Title
82350
    1SAPS     N    1   2.879   2.928  11.096 -0.2794 -0.3717 -0.7812
    1SAPS   HN1    2   2.806   2.992  11.057 -0.3206  1.9565  2.6019
    1SAPS   HN2    3   2.919   2.977  11.179 -1.7808 -0.9255  0.3188
    1SAPS   HN3    4   2.947   2.901  11.022  0.2931  2.4947 -1.4341
    1SAPS   C12    5   2.817   2.807  11.143  0.0970  1.0341 -0.2272
    1SAPS  H12A    6   2.837   2.788  11.247  0.3743 -0.8067 -0.5777
    1SAPS   C13    7   2.670   2.808  11.127  0.0116  0.7317 -0.1571
    1SAPS  O13A    8   2.618   2.923  11.099 -0.4812  0.1847 -0.2099
    1SAPS  O13B    9   2.601   2.720  11.191 -0.0186 -0.2442  0.0383
    1SAPS   C11   10   2.867   2.685  11.059  0.4569 -0.7786  0.0212
    1SAPS  H11A   11   2.836   2.702  10.954 -0.4254 -0.9897  0.2350
    1SAPS  H11B   12   2.817   2.591  11.092  1.6492 -1.2542  0.5244
    1SAPS     P   13   3.072   2.525  11.060 -0.4884  0.3166 -0.1016
    1SAPS   O13   14   3.217   2.544  11.032 -0.3802 -0.4056 -0.3359
    1SAPS   O14   15   3.026   2.455  11.185 -0.1899  0.4659  0.4881
    1SAPS   O12   16   3.007   2.667  11.059 -0.2781 -0.1418  0.1731
    1SAPS   O11   17   3.009   2.447  10.941  0.2023  0.6208  0.4894
    1SAPS    C1   18   3.064   2.467  10.806  0.0806 -0.9316 -0.0586
    1SAPS    HA   19   3.118   2.563  10.796 -0.5025 -0.6439 -0.4714
    1SAPS    HB   20   3.131   2.384  10.775 -0.9487 -0.7301 -3.1329
    1SAPS    C2   21   2.947   2.485  10.705 -0.3868  0.2949 -0.0985
    1SAPS    HS   22   2.891   2.581  10.715 -1.5705 -0.1926 -1.5764
    1SAPS   O21   23   2.859   2.372  10.702 -0.0083 -0.1019 -0.0796
    1SAPS   C21   24   2.752   2.388  10.774  0.2530  0.1678  0.6446
    1SAPS   O22   25   2.731   2.480  10.854 -0.6528 -0.1867  0.2058
    1SAPS   C22   26   2.653   2.285  10.721 -0.0766 -0.3210  1.0040
    1SAPS   H2R   27   2.706   2.216  10.652 -1.4094 -1.1377  0.7472
    1SAPS   H2S   28   2.631   2.231  10.816  1.5267 -2.2488  0.3337
    1SAPS    C3   29   3.019   2.499  10.564 -0.0873 -0.1101 -0.0609
    1SAPS    HX   30   3.109   2.434  10.560 -0.5784 -0.8435  0.7330
    1SAPS    HY   31   3.056   2.603  10.547  0.3826 -0.1224  0.8509
    1SAPS   O31   32   2.930   2.462  10.454 -0.0652 -0.1240  0.2846
    1SAPS   C31   33   2.992   2.456  10.332  0.1902 -0.8338 -0.2520
    1SAPS   O32   34   3.109   2.487  10.311  0.5405 -0.4767  0.3999
    1SAPS   C32   35   2.890   2.419  10.226 -0.0144  0.0487 -0.3798
    1SAPS   H2X   36   2.850   2.510  10.177 -0.9517  0.2273  0.6835
    1SAPS   H2Y   37   2.803   2.373  10.276  0.8646 -0.5971  0.5810
    1SAPS   C23   38   2.527   2.352  10.670  0.3088 -0.3808  0.6006
    1SAPS   H3R   39   2.472   2.411  10.746  0.0678  2.3238 -1.5247
    1SAPS   H3S   40   2.456   2.272  10.638  0.4743  0.0899 -1.0392
    1SAPS   C24   41   2.551   2.439  10.542 -0.0985 -0.4754  0.3674
    1SAPS   H4R   42   2.610   2.379  10.470 -0.5990  0.9980 -1.3281
    1SAPS   H4S   43   2.608   2.534  10.549  0.1594 -0.6411  0.5549
    1SAPS   C25   44   2.420   2.473  10.477 -0.0942 -0.3119 -0.8990
    1SAPS   H5R   45   2.356   2.523  10.550  0.7384 -0.9466  0.3140
    1SAPS   C26   46   2.381   2.446  10.354  0.3926 -0.0517  0.0503
    1SAPS   H6R   47   2.285   2.487  10.320 -1.2028 -1.5649  2.4159
    1SAPS   C27   48   2.467   2.392  10.239  0.2233  0.5598 -0.0762
    1SAPS   H7R   49   2.572   2.428  10.241  1.0317 -1.7185  0.5993
    1SAPS   H7S   50   2.421   2.441  10.150  2.0638  1.8012 -0.4098
    1SAPS   C28   51   2.473   2.246  10.221  1.0471  0.4782 -0.4503
    1SAPS   H8R   52   2.473   2.196  10.319 -1.7029 -0.5028 -0.8562
    1SAPS   C29   53   2.464   2.173  10.108  0.9026  0.0074 -0.8471
    1SAPS   H9R   54   2.477   2.064  10.118  1.3483  0.2121  1.1994
    1SAPS  C210   55   2.434   2.238   9.973  0.4560 -0.0423 -0.0634
    1SAPS  H10R   56   2.526   2.290   9.939 -0.2908 -0.2113 -2.5871
    1SAPS  H10S   57   2.352   2.313   9.976  0.2736 -0.2710  1.0921
    1SAPS  C211   58   2.404   2.131   9.867 -0.1157 -0.2172 -0.3037
    1SAPS  H11R   59   2.346   2.045   9.905 -0.6972  0.4574  0.3687
    1SAPS  C212   60   2.439   2.139   9.735  0.2957 -0.7358  0.6272
    1SAPS  H12R   61   2.401   2.064   9.664 -1.5983  0.8817 -0.1624
    1SAPS  C213   62   2.525   2.258   9.684 -0.6389 -0.1309 -0.0364
    1SAPS  H13R   63   2.506   2.349   9.745 -1.1491 -0.1130 -0.2181
    1SAPS  H13S   64   2.495   2.288   9.581  0.1806  1.1676  0.0721
    1SAPS  C214   65   2.675   2.206   9.691  0.4654  0.7661  0.4363
    1SAPS  H14R   66   2.687   2.140   9.778 -0.1901  0.1853  0.0937
    1SAPS  C215   67   2.764   2.214   9.592 -0.0434  0.2607  0.1636
    1SAPS  H15R   68   2.851   2.146   9.590 -1.3236 -1.4643  0.1568
    1SAPS  C216   69   2.735   2.267   9.460 -0.3003 -0.6213 -0.2377
    1SAPS  H16R   70   2.832   2.282   9.408 -0.0340 -0.3350  0.3283
    1SAPS  H16S   71   2.689   2.368   9.464 -0.4381 -0.6161 -1.5472
    1SAPS  C217   72   2.646   2.174   9.384 -0.8485 -0.0490  0.2627
    1SAPS  H17R   73   2.553   2.140   9.434 -0.2119 -1.8613  0.2924
    1SAPS  H17S   74   2.703   2.083   9.355  0.4650  0.8291  0.0041
    1SAPS  C218   75   2.602   2.219   9.244 -0.3116  0.3587  0.4484
    1SAPS  H18R   76   2.682   2.242   9.171 -0.8817  0.2756 -0.2154
    1SAPS  H18S   77   2.539   2.310   9.254 -0.4231  0.2810  0.4483
    1SAPS  C219   78   2.511   2.111   9.176  0.5350  0.6976 -0.4665
    1SAPS  H19R   79   2.431   2.088   9.250  0.3934 -0.8251 -1.0704
    1SAPS  H19S   80   2.572   2.018   9.178  1.0834  1.0397 -0.9305
    1SAPS  C220   81   2.475   2.137   9.032 -0.3179 -0.2654  0.6513
    1SAPS  H20R   82   2.402   2.219   9.013  1.5169  1.3201  0.1130
    1SAPS  H20S   83   2.431   2.047   8.985  0.7871 -0.0074 -0.9308
    1SAPS  H20T   84   2.565   2.170   8.975  0.8731 -0.4517  2.3376
    1SAPS   C33   85   2.944   2.324  10.110 -0.6936 -0.8009  0.1924
    1SAPS   H3X   86   2.856   2.289  10.052  0.3319 -0.7951 -1.4420
    1SAPS   H3Y   87   2.992   2.231  10.147  1.1292  0.5944  1.5560
    1SAPS   C34   88   3.037   2.394  10.012  0.0516  0.2981  0.6855
    1SAPS   H4X   89   3.136   2.385  10.063 -0.7490  1.1789  2.4751
    1SAPS   H4Y   90   3.011   2.501   9.996  2.0170  0.6129 -0.8314
    1SAPS   C35   91   3.052   2.316   9.880 -0.2451 -0.4204 -0.0394
    1SAPS   H5X   92   2.965   2.339   9.815 -2.0942 -2.0388  1.7273
    1SAPS   H5Y   93   3.050   2.206   9.899  1.2130 -0.0362  2.9289
    1SAPS   C36   94   3.179   2.344   9.800  0.8877  0.6649 -0.1099
    1SAPS   H6X   95   3.202   2.260   9.731  0.5222  0.2087  0.3135
    1SAPS   H6Y   96   3.263   2.350   9.873  1.5344  1.2416 -0.8799
    1SAPS   C37   97   3.176   2.468   9.713 -0.2530 -0.0636  0.4329
    1SAPS   H7X   98   3.280   2.484   9.678 -0.3600  0.8008  0.4875
    1SAPS   H7Y   99   3.156   2.557   9.777 -0.4982 -0.9169  1.5591
    1SAPS   C38  100   3.090   2.450   9.587  0.6411 -1.1215 -0.0085
    1SAPS   H8X  101   2.981   2.434   9.602  0.3880 -0.7580 -1.3372
    1SAPS   H8Y  102   3.129   2.360   9.534  1.4674 -1.8794  1.8213
    1SAPS   C39  103   3.097   2.569   9.490  0.1632  0.0753 -0.5798
    1SAPS   H9X  104   3.201   2.609   9.484  0.3762 -0.5262 -1.0555
    1SAPS   H9Y  105   3.038   2.652   9.533  1.9493  1.1778 -0.1272
    1SAPS  C310  106   3.054   2.548   9.356  0.6386  0.8401  0.6361
    1SAPS  H10X  107   2.946   2.521   9.351  0.1933  2.5277  0.3881
    1SAPS  H10Y  108   3.113   2.465   9.313  0.1634  0.4209  0.7775
    1SAPS  C311  109   3.059   2.679   9.281 -0.2311  0.2952  0.0688
    1SAPS  H11X  110   3.162   2.720   9.266 -0.8133  1.4271 -1.0607
    1SAPS  H11Y  111   2.997   2.760   9.326  1.8192  1.3873  1.0765
    1SAPS  C312  112   2.996   2.661   9.138 -0.8478 -0.2144 -0.6556
    1SAPS  H12X  113   2.896   2.619   9.160 -0.2130 -1.2519  0.3349
    1SAPS  H12Y  114   3.057   2.587   9.081 -0.2560  0.2209 -0.5961
    1SAPS  C313  115   2.976   2.791   9.050 -0.6696  1.1184  0.0164
    1SAPS  H13X  116   2.969   2.880   9.116  0.4622  1.8281 -0.7800
    1SAPS  H13Y  117   2.887   2.787   8.982 -0.2742  1.3880 -0.5294
    1SAPS  C314  118   3.098   2.823   8.963  0.3072 -0.2953 -0.6225
    1SAPS  H14X  119   3.079   2.762   8.873 -3.4073 -1.4853  0.7584
    1SAPS  H14Y  120   3.190   2.781   9.009  0.5991 -1.1004 -1.8873
    1SAPS  C315  121   3.116   2.973   8.926  0.1417  0.5291 -0.0574
    1SAPS  H15X  122   3.121   3.025   9.024 -0.4519  0.4550  0.0173
    1SAPS  H15Y  123   3.039   3.019   8.860  1.0557  0.6685 -1.0539
    1SAPS  C316  124   3.247   2.987   8.848 -0.2581 -0.5282  0.7778
    1SAPS  H16X  125   3.317   2.912   8.891 -2.1003 -2.7751  0.0292
    1SAPS  H16Y  126   3.298   3.086   8.850  0.1273 -0.6751 -0.6482
    1SAPS  C317  127   3.241   2.947   8.697  0.2726  0.6010  0.1629
    1SAPS  H17X  128   3.180   3.021   8.641  0.8641 -0.7087 -2.3789
    1SAPS  H17Y  129   3.184   2.852   8.696 -2.2711  2.0075  1.0656
    1SAPS  C318  130   3.375   2.927   8.630  0.6710 -0.7300  0.2707
    1SAPS  H18X  131   3.442   3.015   8.632  1.8570 -1.5445  3.9667
    1SAPS  H18Y  132   3.373   2.883   8.527 -2.4815 -0.8904  0.2834
    1SAPS  H18Z  133   3.431   2.856   8.695 -0.7551 -1.7531  0.4332
    2SAPS     N  134   1.269   2.868  10.924  0.2198  0.5064  0.1559
    2SAPS   HN1  135   1.261   2.972  10.928 -0.5536  0.5400 -1.6740
    2SAPS   HN2  136   1.359   2.841  10.969 -0.4239 -2.5555 -0.1828
    2SAPS   HN3  137   1.259   2.836  10.826  1.2282 -3.1072  1.0704
    2SAPS   C12  138   1.151   2.794  10.994  0.5574 -0.4615 -0.3566
    2SAPS  H12A  139   1.166   2.687  10.986 -1.7162 -1.0198  1.6969
    2SAPS   C13  140   1.154   2.826  11.138 -0.5513  0.2359 -0.1755
    2SAPS  O13A  141   1.238   2.909  11.188  0.2044  0.3465 -0.5744
    2SAPS  O13B  142   1.065   2.787  11.217 -0.2826 -0.3542 -0.1618
    2SAPS   C11  143   1.014   2.852  10.936  0.4541 -0.0759  0.1427
    2SAPS  H11A  144   1.007   2.962  10.953 -0.9320 -0.3309  1.4094
    2SAPS  H11B  145   0.931   2.814  10.999  0.6975 -0.2843  0.3437
    2SAPS     P  146   0.858   2.859  10.731 -0.3097  0.2110  0.1734
    2SAPS   O13  147   0.754   2.833  10.831  0.1831  0.1593 -0.3625
    2SAPS   O14  148   0.867   3.001  10.690 -0.4767 -0.2158  0.1557
    2SAPS   O12  149   1.001   2.826  10.796  0.6861  0.5708  0.0778
    2SAPS   O11  150   0.855   2.767  10.608  0.2674  0.2789  0.6386
    2SAPS    C1  151   0.981   2.730  10.546 -0.3281 -0.2234  0.3049
    2SAPS    HA  152   1.033   2.821  10.511 -1.3693  0.2068 -0.1398
    2SAPS    HB  153   1.038   2.665  10.617 -1.8356 -0.6756  1.1534
    2SAPS    C2  154   0.973   2.627  10.427 -0.3790 -0.4300 -0.0267
    2SAPS    HS  155   1.071   2.584  10.400 -0.4819 -0.2019 -0.7678
    2SAPS   O21  156   0.913   2.683  10.311 -0.6155  0.3833  0.2505
    2SAPS   C21  157   1.008   2.744  10.233 -0.1592  0.2818  0.4388
    2SAPS   O22  158   1.125   2.752  10.256 -0.7760  0.3168  0.6162
    2SAPS   C22  159   0.962   2.758  10.097 -0.0684 -0.2307 -0.0473
    2SAPS   H2R  160   0.943   2.655  10.060  0.0173 -0.2345 -0.0804
    2SAPS   H2S  161   0.858   2.797  10.098  0.2632  0.6717 -0.6120
    2SAPS    C3  162   0.885   2.507  10.472  0.2574  0.6133 -0.1420
    2SAPS    HX  163   0.785   2.554  10.479  0.2188  0.8032 -1.7146
    2SAPS    HY  164   0.911   2.471  10.574 -1.8497 -0.2906  0.1310
    2SAPS   O31  165   0.894   2.397  10.375 -0.5746  0.7294 -0.2227
    2SAPS   C31  166   0.996   2.315  10.390 -0.5950 -0.1632  0.4430
    2SAPS   O32  167   1.090   2.334  10.467  0.2385  0.4163 -0.3861
    2SAPS   C32  168   0.993   2.198  10.299  0.1595 -0.1100  0.8096
    2SAPS   H2X  169   0.899   2.141  10.319  0.0771  0.3832  1.8773
    2SAPS   H2Y  170   1.072   2.123  10.320 -0.3314 -0.5564  1.1025
    2SAPS   C23  171   1.051   2.852  10.006 -0.1187  0.0884 -0.2120
    2SAPS   H3R  172   1.155   2.812  10.011 -0.0762  0.1481 -0.5964
    2SAPS   H3S  173   1.051   2.957  10.041  0.5793  0.5673 -1.6106
    2SAPS   C24  174   1.016   2.861   9.856 -0.3084 -0.5300 -0.8927
    2SAPS   H4R  175   1.094   2.929   9.816 -1.1777 -0.3081 -2.2993
    2SAPS   H4S  176   0.917   2.910   9.841  0.5657  1.7730  0.4566
    2SAPS   C25  177   1.032   2.725   9.786  0.5537  0.0660  1.1970
    2SAPS   H5R  178   1.022   2.636   9.850  0.9074 -0.1972  0.8885
    2SAPS   C26  179   1.079   2.710   9.660  0.0388  0.6287 -0.2577
    2SAPS   H6R  180   1.108   2.608   9.630 -2.0753 -0.3182  0.7103
    2SAPS   C27  181   1.127   2.811   9.561 -0.5746 -0.5645  0.3450
    2SAPS   H7R  182   1.217   2.775   9.506  1.3603  1.1816  2.1668
    2SAPS   H7S  183   1.155   2.906   9.611 -0.1770 -0.5434  0.0898
    2SAPS   C28  184   1.004   2.834   9.472  0.3995 -0.5622  0.3425
    2SAPS   H8R  185   0.921   2.881   9.527 -0.1455 -0.9069 -0.1633
    2SAPS   C29  186   0.999   2.802   9.340  0.2997 -0.7290  0.2035
    2SAPS   H9R  187   0.905   2.832   9.289  0.5082  1.9571  1.2183
    2SAPS  C210  188   1.104   2.747   9.247 -0.0957 -0.1763 -0.7482
    2SAPS  H10R  189   1.058   2.708   9.154 -1.7573  1.3229 -0.6227
    2SAPS  H10S  190   1.163   2.675   9.307 -0.2392  1.6074  1.6883
    2SAPS  C211  191   1.198   2.851   9.198  0.5256  0.1993 -1.4677
    2SAPS  H11R  192   1.204   2.943   9.258  0.3645  0.1341 -1.3513
    2SAPS  C212  193   1.268   2.848   9.082 -0.4382  0.6876  0.1868
    2SAPS  H12R  194   1.336   2.929   9.050  1.6410 -1.0552 -0.0877
    2SAPS  C213  195   1.256   2.734   8.980  0.6140  0.7473 -0.3417
    2SAPS  H13R  196   1.240   2.647   9.048  0.8270  1.7313  0.9950
    2SAPS  H13S  197   1.354   2.726   8.928 -0.9583  1.5852 -3.7278
    2SAPS  C214  198   1.146   2.748   8.880 -0.2125  0.4916 -0.1016
    2SAPS  H14R  199   1.048   2.763   8.926  0.6807  2.2263  1.3512
    2SAPS  C215  200   1.146   2.731   8.748 -0.1319  0.3933  0.3245
    2SAPS  H15R  201   1.051   2.752   8.696 -1.0887  0.1238  1.9076
    2SAPS  C216  202   1.271   2.694   8.669  0.8232  0.5258 -0.2184
    2SAPS  H16R  203   1.302   2.592   8.700 -0.3357  0.1365 -0.3168
    2SAPS  H16S  204   1.359   2.756   8.698  2.3503 -0.4968 -2.4145
    2SAPS  C217  205   1.243   2.714   8.518 -0.6879  0.2494 -0.1791
    2SAPS  H17R  206   1.339   2.713   8.463 -0.1005 -0.7785  0.8107
    2SAPS  H17S  207   1.202   2.815   8.499 -0.3443  0.0687 -2.0000
    2SAPS  C218  208   1.148   2.611   8.458  0.5045 -0.6534 -0.7661
    2SAPS  H18R  209   1.157   2.618   8.348 -1.6424  1.3199 -0.8980
    2SAPS  H18S  210   1.046   2.628   8.500  0.9211 -0.1027  0.0593
    2SAPS  C219  211   1.198   2.468   8.478 -0.1786  0.1215 -0.2818
    2SAPS  H19R  212   1.171   2.435   8.580 -2.1589  1.6455 -0.2478
    2SAPS  H19S  213   1.309   2.464   8.482 -0.2507 -2.8961  3.0558
    2SAPS  C220  214   1.152   2.368   8.375  0.6630  0.4862 -0.4442
    2SAPS  H20R  215   1.194   2.266   8.388 -2.0460 -0.8395 -1.3545
    2SAPS  H20S  216   1.189   2.405   8.277 -0.6439  1.8800 -0.4542
    2SAPS  H20T  217   1.042   2.370   8.362  0.4537 -0.1884  1.0428
    2SAPS   C33  218   1.003   2.244  10.155  0.0456  0.6111 -0.1219
    2SAPS   H3X  219   0.911   2.299  10.126 -0.7640 -0.1019  1.0078
    2SAPS   H3Y  220   0.998   2.153  10.090  0.9417 -1.5180  2.5955
    2SAPS   C34  221   1.128   2.319  10.100  0.0348 -0.1677 -0.1352
    2SAPS   H4X  222   1.219   2.257  10.082 -0.3991 -1.1655  1.0012
    2SAPS   H4Y  223   1.153   2.396  10.175  0.5355 -0.1526 -0.3101
    2SAPS   C35  224   1.110   2.372   9.957 -0.1891 -0.6293  0.4508
    2SAPS   H5X  225   1.204   2.413   9.916  0.1565 -1.8140  0.0163
    2SAPS   H5Y  226   1.028   2.446   9.970  1.2409  1.0344  0.3992
    2SAPS   C36  227   1.072   2.265   9.852 -0.9284 -0.2792  0.0025
    2SAPS   H6X  228   0.970   2.228   9.875 -0.7141  0.5426  2.4956
    2SAPS   H6Y  229   1.144   2.181   9.864  1.8348  1.4632 -2.7960
    2SAPS   C37  230   1.077   2.305   9.706  0.9824  0.4657 -0.0064
    2SAPS   H7X  231   1.173   2.273   9.660  0.9587  0.9669 -0.4163
    2SAPS   H7Y  232   1.065   2.413   9.682 -1.4281 -0.0773 -1.6160
    2SAPS   C38  233   0.968   2.239   9.630 -0.0774  0.0807 -0.6160
    2SAPS   H8X  234   0.869   2.285   9.652 -0.0629 -0.6453  1.0629
    2SAPS   H8Y  235   0.954   2.134   9.662  2.8890 -0.3393 -0.4499
    2SAPS   C39  236   0.997   2.250   9.484  1.3626 -0.1774 -0.1921
    2SAPS   H9X  237   1.095   2.208   9.455  1.8740  1.3176 -0.7236
    2SAPS   H9Y  238   1.016   2.358   9.462  1.9683 -0.3335 -0.4359
    2SAPS  C310  239   0.893   2.193   9.386 -0.4283  0.0849  0.3655
    2SAPS  H10X  240   0.800   2.250   9.410 -1.8968 -2.4759  1.1311
    2SAPS  H10Y  241   0.878   2.085   9.405 -1.9327  0.6178  2.7133
    2SAPS  C311  242   0.923   2.209   9.235 -0.8457 -1.2782  0.2114
    2SAPS  H11X  243   0.946   2.318   9.231 -1.5301 -1.1501 -0.2941
    2SAPS  H11Y  244   0.828   2.194   9.180 -1.2973 -0.9704  0.8934
    2SAPS  C312  245   1.040   2.129   9.196 -0.3116 -0.1429 -0.2877
    2SAPS  H12X  246   1.007   2.024   9.184  0.6859 -0.8125  2.2588
    2SAPS  H12Y  247   1.131   2.125   9.260 -1.5600 -0.3462  1.5647
    2SAPS  C313  248   1.096   2.185   9.060 -0.3004  0.2908 -0.8296
    2SAPS  H13X  249   1.133   2.283   9.095 -0.6572  0.4810 -0.9829
    2SAPS  H13Y  250   1.014   2.197   8.987  0.2337  1.3674 -1.2774
    2SAPS  C314  251   1.210   2.102   9.007 -0.9063 -0.2657  1.5169
    2SAPS  H14X  252   1.162   2.003   8.990  1.2150 -1.2097  0.7326
    2SAPS  H14Y  253   1.288   2.083   9.084 -0.0582 -1.8096  0.3219
    2SAPS  C315  254   1.261   2.160   8.872 -0.4566  0.2126 -0.0126
    2SAPS  H15X  255   1.312   2.258   8.875  2.2496 -1.0185 -1.8682
    2SAPS  H15Y  256   1.169   2.178   8.811 -1.0232  0.8760  0.9960
    2SAPS  C316  257   1.352   2.067   8.790 -0.8268 -0.6189  0.2779
    2SAPS  H16X  258   1.303   1.967   8.785  1.6796 -2.2611  3.8506
    2SAPS  H16Y  259   1.448   2.063   8.845 -0.6562 -0.5906 -0.0175
    2SAPS  C317  260   1.377   2.106   8.649  0.4742 -0.6868 -0.1956
    2SAPS  H17X  261   1.280   2.096   8.598  1.0308  0.6934 -1.6049
    2SAPS  H17Y  262   1.442   2.032   8.598 -0.6776 -1.6433 -0.2997
    2SAPS  C318  263   1.440   2.248   8.625 -0.3316 -0.4980  0.4416
    2SAPS  H18X  264   1.542   2.233   8.667  0.6322 -2.7759 -2.4128
    2SAPS  H18Y  265   1.381   2.333   8.665  0.9505  0.8228 -0.3824
    2SAPS  H18Z  266   1.451   2.275   8.518  1.8407  1.6860  1.1436
    3SAPS     N  267   0.817   3.653  10.940  0.3998  0.6666  0.2467
    3SAPS   HN1  268   0.749   3.609  10.874  0.5911 -0.3329  0.6964
    3SAPS   HN2  269   0.901   3.678  10.884 -0.7326 -0.2556 -2.0277
    3SAPS   HN3  270   0.837   3.583  11.014 -1.5075 -0.8895 -0.6353
    3SAPS   C12  271   0.754   3.776  11.003 -0.8116 -0.2319  0.4848
    3SAPS  H12A  272   0.718   3.842  10.925 -0.0636 -0.2977  0.0722
    3SAPS   C13  273   0.632   3.740  11.085  0.4081  0.4942 -0.2351
    3SAPS  O13A  274   0.594   3.623  11.103  0.0656  0.2467 -0.6233
    3SAPS  O13B  275   0.572   3.839  11.132  0.5187  0.6374  0.2872
    3SAPS   C11  276   0.862   3.859  11.078  0.3866  0.3116  0.2145
    3SAPS  H11A  277   0.873   3.806  11.176 -1.0283  1.3222  0.9658
    3SAPS  H11B  278   0.818   3.958  11.101  1.5098  0.9841 -0.4562
    3SAPS     P  279   1.023   3.978  10.917 -0.4051 -0.3859  0.6320
    3SAPS   O13  280   1.081   4.078  11.008  0.3373 -0.4352  0.2181
    3SAPS   O14  281   1.110   3.931  10.803  0.3370  0.3393 -0.3803
    3SAPS   O12  282   0.982   3.857  11.006  0.3802 -0.7400 -0.1807
    3SAPS   O11  283   0.889   4.033  10.870  0.1511 -0.3266  0.6014
    3SAPS    C1  284   0.815   4.009  10.742  0.5892  0.3141  0.5181
    3SAPS    HA  285   0.811   3.902  10.714  0.0249  0.5545 -0.3492
    3SAPS    HB  286   0.712   4.045  10.762  1.2130  1.2377  2.3197
    3SAPS    C2  287   0.885   4.088  10.629  0.3333  0.1415  0.2228
    3SAPS    HS  288   0.989   4.047  10.622  0.0886 -0.5218  0.4168
    3SAPS   O21  289   0.875   4.232  10.674 -0.3118  0.0452  0.1131
    3SAPS   C21  290   0.984   4.301  10.652  0.5904  0.0436 -0.3395
    3SAPS   O22  291   1.090   4.263  10.605  0.3418  0.3472 -0.6307
    3SAPS   C22  292   0.954   4.440  10.707  0.6369 -0.8574 -0.4926
    3SAPS   H2R  293   0.852   4.479  10.690  1.3879  1.0409 -0.9145
    3SAPS   H2S  294   0.968   4.441  10.818 -1.5465  0.3553 -0.1751
    3SAPS    C3  295   0.816   4.069  10.490 -0.1287 -0.3057 -0.6087
    3SAPS    HX  296   0.708   4.070  10.517 -0.4189 -2.6314 -1.4656
    3SAPS    HY  297   0.825   3.966  10.450  1.0671  0.4385 -2.3533
    3SAPS   O31  298   0.849   4.174  10.391  0.1042 -0.1549  0.0857
    3SAPS   C31  299   0.961   4.145  10.331 -0.1936  0.3268  0.3296
    3SAPS   O32  300   1.019   4.041  10.338 -0.2684  0.4105  0.0814
    3SAPS   C32  301   1.017   4.267  10.260  0.2501 -0.5869  0.2801
    3SAPS   H2X  302   1.127   4.263  10.242  0.6707  5.2974 -0.6301
    3SAPS   H2Y  303   1.001   4.356  10.324 -1.6159  0.1768 -1.1486
    3SAPS   C23  304   1.040   4.558  10.650 -0.6287  0.7881 -0.5608
    3SAPS   H3R  305   1.136   4.513  10.618 -0.2433 -0.4014  2.0175
    3SAPS   H3S  306   1.073   4.633  10.725 -0.9024 -2.1802  2.7798
    3SAPS   C24  307   0.971   4.631  10.529  0.4698  0.6081  0.0976
    3SAPS   H4R  308   0.868   4.655  10.562 -0.1700 -2.0511  0.3109
    3SAPS   H4S  309   0.960   4.558  10.446  0.0484  0.2475  0.4636
    3SAPS   C25  310   1.050   4.752  10.488 -0.3654 -0.1358  0.6332
    3SAPS   H5R  311   1.038   4.830  10.565 -1.8653 -0.2136  0.5149
    3SAPS   C26  312   1.143   4.762  10.394  0.1991  0.0811  0.5632
    3SAPS   H6R  313   1.194   4.859  10.387  0.4173  0.0512  1.4947
    3SAPS   C27  314   1.167   4.665  10.273  0.4039 -0.4282  0.0715
    3SAPS   H7R  315   1.098   4.579  10.288  1.7875 -1.4091  1.0637
    3SAPS   H7S  316   1.271   4.628  10.275  2.1777  3.9559 -0.5453
    3SAPS   C28  317   1.133   4.734  10.146  0.4041 -0.6383  1.2438
    3SAPS   H8R  318   1.031   4.736  10.106  0.7860  0.6540  0.2578
    3SAPS   C29  319   1.215   4.820  10.084  0.3251 -0.0066  0.1981
    3SAPS   H9R  320   1.189   4.846   9.980 -1.0388 -0.2124  0.4698
    3SAPS  C210  321   1.350   4.861  10.124  0.0052  0.2239 -0.0319
    3SAPS  H10R  322   1.426   4.808  10.063 -0.9464 -0.0471 -1.0096
    3SAPS  H10S  323   1.361   4.836  10.232 -0.9501 -2.4834 -0.4874
    3SAPS  C211  324   1.362   5.003  10.097  0.3028  0.0521  0.8789
    3SAPS  H11R  325   1.344   5.073  10.180 -3.2717  0.3878 -0.0075
    3SAPS  C212  326   1.400   5.054   9.973  0.4658 -0.6997 -0.3230
    3SAPS  H12R  327   1.414   5.162   9.959 -0.6188 -0.6264 -1.0056
    3SAPS  C213  328   1.436   4.984   9.845 -0.1155  0.0368  0.3232
    3SAPS  H13R  329   1.355   4.986   9.769 -1.5734 -0.1879  1.7982
    3SAPS  H13S  330   1.451   4.876   9.866 -1.4431 -0.4509 -1.0756
    3SAPS  C214  331   1.568   5.036   9.793  0.0803  0.2679 -0.1855
    3SAPS  H14R  332   1.649   5.016   9.864 -1.2747 -1.6446  0.9073
    3SAPS  C215  333   1.580   5.081   9.672 -0.0919 -1.0593 -0.0365
    3SAPS  H15R  334   1.675   5.133   9.654 -0.3403 -0.4089  0.4968
    3SAPS  C216  335   1.474   5.122   9.576  0.3704 -0.8844 -0.1692
    3SAPS  H16R  336   1.377   5.148   9.624 -0.6331  0.2747 -2.6571
    3SAPS  H16S  337   1.467   5.043   9.498  0.4213 -2.2910  1.1960
    3SAPS  C217  338   1.508   5.260   9.518 -0.1698  0.1035 -0.2455
    3SAPS  H17R  339   1.540   5.337   9.592 -2.0687 -0.2697  1.0145
    3SAPS  H17S  340   1.415   5.296   9.470 -0.2663  0.8997  0.5010
    3SAPS  C218  341   1.621   5.259   9.402  0.1702 -0.2824  0.0778
    3SAPS  H18R  342   1.606   5.175   9.330  2.1721  2.5797 -4.0491
    3SAPS  H18S  343   1.718   5.242   9.454  0.6653  2.1217  0.0471
    3SAPS  C219  344   1.619   5.399   9.329  0.0899  0.0369 -0.4484
    3SAPS  H19R  345   1.516   5.413   9.289 -0.1382  0.1242  0.1581
    3SAPS  H19S  346   1.688   5.388   9.243 -0.6546  0.8179 -1.1592
    3SAPS  C220  347   1.656   5.508   9.421  0.2416 -0.0006 -0.7535
    3SAPS  H20R  348   1.722   5.474   9.503  0.1883  3.6088  0.9691
    3SAPS  H20S  349   1.561   5.538   9.471  0.7781 -0.9473  0.9133
    3SAPS  H20T  350   1.702   5.599   9.378  1.0731  0.0884  0.2881
    3SAPS   C33  351   0.949   4.304  10.126 -0.2576  0.0495 -0.5240
    3SAPS   H3X  352   0.972   4.407  10.092 -2.0995  0.5228 -0.4427
    3SAPS   H3Y  353   0.840   4.305  10.145  0.0782  0.4855  1.6036
    3SAPS   C34  354   0.983   4.211  10.007 -0.4529 -0.8590  0.7717
    3SAPS   H4X  355   0.894   4.144  10.003 -1.0505 -0.0127 -1.2845
    3SAPS   H4Y  356   1.073   4.148  10.025  2.0006  2.3559  0.6927
    3SAPS   C35  357   0.999   4.289   9.873  0.3146  0.1478  0.2784
    3SAPS   H5X  358   1.079   4.365   9.886  0.8298 -0.1757 -0.8288
    3SAPS   H5Y  359   0.905   4.348   9.862  2.3960  4.2061  2.1732
    3SAPS   C36  360   1.052   4.208   9.754 -0.2257  0.3135 -0.0258
    3SAPS   H6X  361   1.029   4.099   9.760  1.6040 -0.0519  1.2964
    3SAPS   H6Y  362   1.161   4.225   9.767 -0.3374  1.1462 -0.1046
    3SAPS   C37  363   1.001   4.268   9.624 -0.2771  0.8927  0.1370
    3SAPS   H7X  364   1.020   4.377   9.629  0.4121  0.7314  1.3631
    3SAPS   H7Y  365   0.895   4.246   9.602  0.2503 -2.0951  0.1400
    3SAPS   C38  366   1.077   4.219   9.499  0.2690  0.1652  0.5824
    3SAPS   H8X  367   1.066   4.111   9.477 -0.7547  0.7785 -2.2273
    3SAPS   H8Y  368   1.185   4.219   9.525  0.9589 -2.1719 -1.7925
    3SAPS   C39  369   1.049   4.299   9.372  0.0552  0.1832 -0.6683
    3SAPS   H9X  370   1.095   4.400   9.385 -0.6531  0.4617 -0.2471
    3SAPS   H9Y  371   0.941   4.324   9.363 -0.1999 -0.4811  0.3942
    3SAPS  C310  372   1.110   4.220   9.258  0.3936 -0.2500 -0.0082
    3SAPS  H10X  373   1.041   4.134   9.246  0.3603 -0.0787 -1.1055
    3SAPS  H10Y  374   1.206   4.173   9.289  0.1290 -0.0856  1.1197
    3SAPS  C311  375   1.133   4.295   9.123 -0.8615  0.1234  0.6174
    3SAPS  H11X  376   1.206   4.377   9.138 -1.5697  0.6959  1.0098
    3SAPS  H11Y  377   1.038   4.333   9.078 -1.3665  1.9496  3.0543
    3SAPS  C312  378   1.186   4.196   9.026 -0.0104 -1.0718 -0.3842
    3SAPS  H12X  379   1.122   4.105   9.025 -0.9487 -0.5994  3.0981
    3SAPS  H12Y  380   1.289   4.162   9.049 -0.3940 -0.9523  1.7124
    3SAPS  C313  381   1.212   4.251   8.888  0.1596  0.1702  0.1789
    3SAPS  H13X  382   1.270   4.345   8.900 -1.9757  1.2948  3.1556
    3SAPS  H13Y  383   1.113   4.259   8.837  0.3104  1.3953  0.0471
    3SAPS  C314  384   1.289   4.142   8.813  0.1332  0.0539  0.3865
    3SAPS  H14X  385   1.251   4.039   8.832 -0.5227 -0.1028 -1.5579
    3SAPS  H14Y  386   1.391   4.147   8.858  0.0044 -0.2909  0.7259
    3SAPS  C315  387   1.288   4.183   8.665 -0.4131 -0.4778  0.5694
    3SAPS  H15X  388   1.343   4.279   8.666 -1.2728  0.0427  2.8714
    3SAPS  H15Y  389   1.183   4.192   8.629 -0.4439 -2.2095  0.1184
    3SAPS  C316  390   1.366   4.091   8.564 -0.0620  0.6090  0.0538
    3SAPS  H16X  391   1.329   3.990   8.593 -0.5760  0.2672 -1.6990
    3SAPS  H16Y  392   1.473   4.086   8.593  0.5054 -0.3322 -2.0385
    3SAPS  C317  393   1.348   4.109   8.415  0.0917 -0.2839 -0.3199
    3SAPS  H17X  394   1.437   4.078   8.356 -0.6396  0.1075 -1.6881
    3SAPS  H17Y  395   1.349   4.220   8.406 -0.8542 -0.0017  2.3313
    3SAPS  C318  396   1.219   4.058   8.351  0.3561 -0.3753 -0.5627
    3SAPS  H18X  397   1.131   4.074   8.417 -1.3956  1.3125 -3.1255
    3SAPS  H18Y  398   1.216   3.950   8.326  2.4148 -0.4451 -0.6768
    3SAPS  H18Z  399   1.199   4.119   8.260 -0.6311 -0.6344 -0.5262
    4SAPS     N  400   3.166   5.370  10.642 -0.5823 -0.4878 -0.5957
    4SAPS   HN1  401   3.071   5.401  10.670 -1.2195 -3.4275  0.7919
    4SAPS   HN2  402   3.187   5.370  10.540  0.3362 -0.9088 -0.4137
    4SAPS   HN3  403   3.164   5.272  10.675  2.5113 -0.5110 -0.2319
    4SAPS   C12  404   3.263   5.451  10.728 -0.0805 -0.6758  0.0830
    4SAPS  H12A  405   3.295   5.533  10.666 -0.3291 -0.0419  0.7718
    4SAPS   C13  406   3.190   5.511  10.858  0.2347 -0.5999 -0.0542
    4SAPS  O13A  407   3.081   5.457  10.900 -0.3810 -0.5438 -0.1374
    4SAPS  O13B  408   3.247   5.607  10.924  0.5361 -0.2103  0.0985
    4SAPS   C11  409   3.376   5.357  10.777  0.5440  0.2527  0.2013
    4SAPS  H11A  410   3.336   5.282  10.849  1.4283  2.9530  3.8385
    4SAPS  H11B  411   3.457   5.412  10.830  0.1726  2.0173 -1.0063
    4SAPS     P  412   3.548   5.177  10.696  0.1695 -0.0207 -0.5365
    4SAPS   O13  413   3.566   5.168  10.845  0.1112 -0.4993 -0.4020
    4SAPS   O14  414   3.507   5.054  10.621  0.3588 -0.1047 -0.3591
    4SAPS   O12  415   3.441   5.290  10.666 -0.5140  0.6623  0.4415
    4SAPS   O11  416   3.679   5.232  10.636  0.2733 -0.4229  0.5670
    4SAPS    C1  417   3.721   5.365  10.638  0.1743  0.2419  0.6813
    4SAPS    HA  418   3.676   5.415  10.727  1.2783  0.7680  0.9549
    4SAPS    HB  419   3.831   5.374  10.643  0.4377 -2.0721  0.2468
    4SAPS    C2  420   3.668   5.430  10.508 -0.3314 -0.3396 -0.3670
    4SAPS    HS  421   3.559   5.419  10.524 -0.4146  0.4511 -0.3678
    4SAPS   O21  422   3.724   5.364  10.385  0.3015  0.5137 -0.7385
    4SAPS   C21  423   3.624   5.331  10.308  0.6917  0.5064 -0.3470
    4SAPS   O22  424   3.506   5.370  10.325 -0.0100 -0.6161  0.0718
    4SAPS   C22  425   3.654   5.211  10.220 -0.2001  0.7280  0.1136
    4SAPS   H2R  426   3.758   5.223  10.185 -0.0970 -0.5233 -0.0613
    4SAPS   H2S  427   3.651   5.117  10.279  0.0018  1.0867  0.7022
    4SAPS    C3  428   3.683   5.581  10.504  0.8895  0.0754  0.0501
    4SAPS    HX  429   3.793   5.593  10.513  0.9873  0.5596 -1.4381
    4SAPS    HY  430   3.633   5.619  10.595 -0.0816 -0.6857 -0.1558
    4SAPS   O31  431   3.623   5.638  10.380 -0.2356 -0.1626 -0.0934
    4SAPS   C31  432   3.499   5.687  10.379 -0.1590  0.1364 -0.0741
    4SAPS   O32  433   3.421   5.679  10.475  0.0680 -0.2717  0.4229
    4SAPS   C32  434   3.464   5.759  10.244 -0.0270  0.0966  0.1215
    4SAPS   H2X  435   3.530   5.848  10.236 -1.6374  1.2263 -1.1950
    4SAPS   H2Y  436   3.359   5.795  10.243 -0.7453 -1.7139 -2.9581
    4SAPS   C23  437   3.565   5.189  10.103  0.5394  0.1458  0.6406
    4SAPS   H3R  438   3.525   5.277  10.048  0.6148  0.3540  0.9114
    4SAPS   H3S  439   3.475   5.145  10.152  0.8288  0.3826  1.4090
    4SAPS   C24  440   3.625   5.084  10.008  0.1091 -0.4319  0.2311
    4SAPS   H4R  441   3.645   4.994  10.070  4.1447 -0.4818 -0.8905
    4SAPS   H4S  442   3.728   5.104   9.972 -0.8738  2.9728 -1.0388
    4SAPS   C25  443   3.531   5.047   9.897  0.0666  0.3687  0.4723
    4SAPS   H5R  444   3.429   5.038   9.938  0.1135 -2.4203  0.1470
    4SAPS   C26  445   3.559   5.055   9.764 -0.0111 -0.3236 -0.5645
    4SAPS   H6R  446   3.475   5.047   9.693 -0.6657 -0.2280  0.1878
    4SAPS   C27  447   3.693   5.084   9.704  1.2200 -0.4615 -0.3135
    4SAPS   H7R  448   3.695   5.013   9.619 -0.2497  0.2119 -0.9621
    4SAPS   H7S  449   3.776   5.054   9.770  0.0067  1.9122  2.5538
    4SAPS   C28  450   3.731   5.224   9.667 -0.4217  0.0866  0.0282
    4SAPS   H8R  451   3.744   5.292   9.753  1.0495 -0.5917  0.3785
    4SAPS   C29  452   3.745   5.271   9.539  0.4967  0.3561  0.0080
    4SAPS   H9R  453   3.775   5.376   9.522 -0.0877  0.6407  0.6667
    4SAPS  C210  454   3.713   5.196   9.414  0.6354 -0.2846  0.7002
    4SAPS  H10R  455   3.661   5.262   9.341  2.9018 -0.6308 -1.3722
    4SAPS  H10S  456   3.644   5.112   9.434 -0.6741  0.3386 -0.9427
    4SAPS  C211  457   3.839   5.141   9.350  0.3410  0.5157  0.7035
    4SAPS  H11R  458   3.928   5.135   9.415  1.2407  0.8165 -0.4652
    4SAPS  C212  459   3.852   5.089   9.227 -0.0443  0.1537 -0.1261
    4SAPS  H12R  460   3.957   5.073   9.197 -0.3179 -0.8121 -0.6277
    4SAPS  C213  461   3.748   5.062   9.122  0.1035 -0.2288  0.1194
    4SAPS  H13R  462   3.735   5.153   9.060 -0.4646  0.0895  0.6904
    4SAPS  H13S  463   3.651   5.060   9.178  1.4952  1.0416  2.7636
    4SAPS  C214  464   3.755   4.940   9.038 -0.7001  0.6786  0.1531
    4SAPS  H14R  465   3.847   4.931   8.978  1.2069 -2.0474  3.1366
    4SAPS  C215  466   3.679   4.829   9.051  0.4072  0.7918 -0.7034
    4SAPS  H15R  467   3.703   4.738   8.994  0.4975  0.7522 -0.6005
    4SAPS  C216  468   3.541   4.818   9.113 -0.3653  0.4608  1.0564
    4SAPS  H16R  469   3.467   4.778   9.040 -1.1368  3.4811 -0.0158
    4SAPS  H16S  470   3.495   4.918   9.133 -0.5699  0.4517  0.6357
    4SAPS  C217  471   3.538   4.744   9.244 -0.5692  0.3760 -0.9592
    4SAPS  H17R  472   3.588   4.645   9.244  2.0809  1.6293 -0.3364
    4SAPS  H17S  473   3.431   4.734   9.274 -0.6245 -0.2352 -1.3319
    4SAPS  C218  474   3.621   4.819   9.351 -0.2414  0.1822  0.3097
    4SAPS  H18R  475   3.573   4.919   9.359  1.7883  1.2003  0.4729
    4SAPS  H18S  476   3.730   4.826   9.327 -0.5762 -1.6157 -2.1058
    4SAPS  C219  477   3.627   4.755   9.492  0.1380  0.2184  0.1887
    4SAPS  H19R  478   3.539   4.792   9.548 -1.1290 -1.8950 -0.2863
    4SAPS  H19S  479   3.714   4.804   9.540  0.3452  0.8572 -0.8123
    4SAPS  C220  480   3.661   4.601   9.489  0.0735  0.1315 -0.1255
    4SAPS  H20R  481   3.674   4.562   9.592 -1.3991 -1.8279 -0.6152
    4SAPS  H20S  482   3.753   4.590   9.427  0.2860 -0.5087  0.2928
    4SAPS  H20T  483   3.573   4.545   9.450 -0.5446  1.9429 -1.4954
    4SAPS   C33  484   3.484   5.676  10.119  0.1751 -0.1722  0.5499
    4SAPS   H3X  485   3.424   5.584  10.132  1.2163 -0.9800 -0.2745
    4SAPS   H3Y  486   3.584   5.629  10.107  1.0249  2.1583 -2.8037
    4SAPS   C34  487   3.434   5.752   9.990  0.2191  0.4449  0.1552
    4SAPS   H4X  488   3.491   5.848   9.994  1.9353 -0.5132 -0.5333
    4SAPS   H4Y  489   3.324   5.768   9.999  0.0470 -1.0300  0.9466
    4SAPS   C35  490   3.468   5.676   9.862  0.1085 -0.6256  0.0404
    4SAPS   H5X  491   3.578   5.658   9.859  0.6608  1.9482  1.3044
    4SAPS   H5Y  492   3.466   5.746   9.775  1.6744 -0.0697  0.4075
    4SAPS   C36  493   3.388   5.551   9.845  1.0151  0.1699 -0.3944
    4SAPS   H6X  494   3.283   5.586   9.837  1.5055  1.3747 -1.8394
    4SAPS   H6Y  495   3.390   5.472   9.923 -1.9049 -0.3219 -0.6791
    4SAPS   C37  496   3.423   5.485   9.711  0.8950  0.0739 -0.5021
    4SAPS   H7X  497   3.366   5.390   9.714 -1.2487  1.2827 -0.3847
    4SAPS   H7Y  498   3.530   5.459   9.702  0.9181 -1.3882  2.6474
    4SAPS   C38  499   3.369   5.564   9.589 -0.3252  0.1926 -0.1559
    4SAPS   H8X  500   3.421   5.662   9.584  1.9131 -0.9649 -1.4686
    4SAPS   H8Y  501   3.263   5.587   9.610  0.6155  4.4781  0.7788
    4SAPS   C39  502   3.372   5.491   9.452 -0.1747  0.0652 -0.1443
    4SAPS   H9X  503   3.303   5.404   9.456 -0.8016  0.6110  2.3904
    4SAPS   H9Y  504   3.473   5.445   9.441  0.2596  0.2907  2.4266
    4SAPS  C310  505   3.340   5.588   9.336 -0.3798  0.7053  0.0203
    4SAPS  H10X  506   3.422   5.662   9.349 -0.6989  1.2238 -0.8144
    4SAPS  H10Y  507   3.243   5.641   9.351  1.0897  3.2054  1.1910
    4SAPS  C311  508   3.331   5.511   9.205 -0.1981  0.0028 -0.1991
    4SAPS  H11X  509   3.239   5.453   9.225 -0.4378  0.8593  1.3211
    4SAPS  H11Y  510   3.419   5.447   9.179 -1.3298 -1.2098 -1.2014
    4SAPS  C312  511   3.302   5.591   9.080  0.5103  0.4649  0.0354
    4SAPS  H12X  512   3.277   5.515   9.003  0.4173  0.6146 -0.0839
    4SAPS  H12Y  513   3.391   5.634   9.030  0.2955  1.0433  0.1353
    4SAPS  C313  514   3.178   5.677   9.082 -0.0816  0.0058 -0.5521
    4SAPS  H13X  515   3.197   5.778   9.125 -1.3972  0.2597 -0.5151
    4SAPS  H13Y  516   3.102   5.619   9.139  1.3993 -2.1209 -0.6470
    4SAPS  C314  517   3.099   5.695   8.948 -0.5094 -0.3760 -0.2732
    4SAPS  H14X  518   3.083   5.593   8.908 -1.1343 -0.9919  1.4935
    4SAPS  H14Y  519   3.159   5.759   8.879 -0.4738  1.0894  1.0663
    4SAPS  C315  520   2.960   5.752   8.966 -0.2068  0.2593  0.1532
    4SAPS  H15X  521   2.950   5.840   9.034  2.1288  1.1030 -0.4833
    4SAPS  H15Y  522   2.911   5.669   9.021  0.5428  0.8265  1.7693
    4SAPS  C316  523   2.902   5.774   8.830  0.0923 -0.3857  0.4437
    4SAPS  H16X  524   2.873   5.672   8.797  1.2716 -1.1058  1.5234
    4SAPS  H16Y  525   2.966   5.825   8.755 -0.3626  2.6342  1.9501
    4SAPS  C317  526   2.780   5.861   8.830 -0.9028  0.3408  0.7667
    4SAPS  H17X  527   2.808   5.968   8.842  0.3894  0.2318 -0.9099
    4SAPS  H17Y  528   2.710   5.832   8.911 -0.8461  1.8411  1.3760
    4SAPS  C318  529   2.698   5.848   8.696  0.3176  0.0937  0.1066
    4SAPS  H18X  530   2.594   5.887   8.710  0.4173  1.3685 -2.2061
    4SAPS  H18Y  531   2.682   5.741   8.673 -1.4156  0.3230  0.0602
    4SAPS  H18Z  532   2.747   5.902   8.612 -0.3323  0.3680 -0.1042
    5SAPS     N  533   6.753   4.049  11.092  0.4446  0.0261  0.0066
    5SAPS   HN1  534   6.843   4.030  11.141  0.1609  1.4257  1.1490
    5SAPS   HN2  535   6.682   3.982  11.127  1.5874 -2.8259 -2.6832
    5SAPS   HN3  536   6.772   4.035  10.991  0.3542 -0.1243  0.0104
    5SAPS   C12  537   6.725   4.189  11.125  0.1635  0.3149 -0.0085
    5SAPS  H12A  538   6.634   4.214  11.071 -0.5184 -1.7360  0.1246
    5SAPS   C13  539   6.702   4.221  11.277 -0.2719  0.4268  0.3233
    5SAPS  O13A  540   6.689   4.126  11.359 -0.4400 -0.2261  0.0203
    5SAPS  O13B  541   6.676   4.345  11.299 -0.2792 -0.2801  0.3771
    5SAPS   C11  542   6.841   4.275  11.066 -0.1776 -0.2382 -0.4598
    5SAPS  H11A  543   6.925   4.276  11.138 -0.9626  1.8442  0.5040
    5SAPS  H11B  544   6.810   4.382  11.062  0.7124  0.0765  0.7240
    5SAPS     P  545   7.023   4.244  10.886 -0.6055 -0.0964  0.0609
    5SAPS   O13  546   7.113   4.136  10.938  0.0448  0.0998 -0.2603
    5SAPS   O14  547   7.019   4.261  10.740  0.0497 -0.3699 -0.7155
    5SAPS   O12  548   6.874   4.227  10.943  0.2013 -0.2570  0.2093
    5SAPS   O11  549   7.069   4.376  10.948  0.2266 -0.5902  0.3613
    5SAPS    C1  550   7.208   4.411  10.966  0.2738  0.2781 -0.0970
    5SAPS    HA  551   7.216   4.504  11.026  1.2332 -1.0476  1.9199
    5SAPS    HB  552   7.271   4.335  11.016  0.9513  0.7822 -0.1739
    5SAPS    C2  553   7.289   4.444  10.836  0.0882 -0.1022 -0.0555
    5SAPS    HS  554   7.382   4.493  10.871  0.4193 -0.9333  0.2366
    5SAPS   O21  555   7.215   4.540  10.749  0.1052  0.2771  0.4270
    5SAPS   C21  556   7.204   4.665  10.786 -0.2338 -0.8376  0.1997
    5SAPS   O22  557   7.235   4.717  10.893  0.1504  0.2315 -0.5256
    5SAPS   C22  558   7.130   4.742  10.669 -0.2081  0.3751  0.2538
    5SAPS   H2R  559   7.020   4.725  10.675 -0.5554  2.7300  3.0559
    5SAPS   H2S  560   7.131   4.851  10.687 -1.4459  0.2988  0.8997
    5SAPS    C3  561   7.348   4.321  10.749  0.2144  0.1421 -0.2531
    5SAPS    HX  562   7.268   4.251  10.718 -1.1242  0.3005  2.5063
    5SAPS    HY  563   7.407   4.266  10.825 -1.3886 -0.1365  0.8321
    5SAPS   O31  564   7.439   4.368  10.644 -0.7499 -0.0166  0.2151
    5SAPS   C31  565   7.383   4.394  10.526 -0.4095  0.1567 -0.2434
    5SAPS   O32  566   7.276   4.349  10.490  0.0625  0.2031  0.2042
    5SAPS   C32  567   7.473   4.482  10.449  0.2175 -0.4270  0.4414
    5SAPS   H2X  568   7.571   4.435  10.429 -0.1016 -1.1391  0.5381
    5SAPS   H2Y  569   7.494   4.572  10.511  0.7944 -0.6632  0.5973
    5SAPS   C23  570   7.202   4.718  10.528 -0.0263  0.6772  0.0187
    5SAPS   H3R  571   7.128   4.733  10.446 -0.8048 -1.3404  0.2847
    5SAPS   H3S  572   7.232   4.612  10.517 -1.0827  0.4894 -1.3965
    5SAPS   C24  573   7.316   4.817  10.507 -0.8862 -0.3809 -0.3344
    5SAPS   H4R  574   7.388   4.770  10.436  0.0084 -0.8413  0.8407
    5SAPS   H4S  575   7.372   4.827  10.602 -3.0863 -1.7333  1.1797
    5SAPS   C25  576   7.279   4.962  10.458  0.1623 -0.2315 -0.2218
    5SAPS   H5R  577   7.252   5.035  10.536 -0.0450  0.6340 -1.0927
    5SAPS   C26  578   7.277   5.007  10.328 -0.5560 -0.4231 -0.6721
    5SAPS   H6R  579   7.270   5.116  10.312  0.2504 -0.0312  1.3124
    5SAPS   C27  580   7.291   4.923  10.205  0.3566 -0.4887 -0.9300
    5SAPS   H7R  581   7.353   4.832  10.222 -0.2297 -0.6705  0.3641
    5SAPS   H7S  582   7.342   4.971  10.118 -0.8268 -1.8713 -2.4624
    5SAPS   C28  583   7.153   4.876  10.165 -0.8778 -0.3628 -0.3445
    5SAPS   H8R  584   7.112   4.798  10.232 -1.7935  0.3611 -0.0480
    5SAPS   C29  585   7.084   4.910  10.053  0.2481  0.7023 -0.6609
    5SAPS   H9R  586   6.986   4.860  10.039 -0.7724  0.5788  4.9120
    5SAPS  C210  587   7.139   4.986   9.934 -0.3659 -0.2250 -0.0434
    5SAPS  H10R  588   7.222   5.052   9.967 -0.1352 -0.3082 -0.4411
    5SAPS  H10S  589   7.061   5.049   9.886  0.6535  0.9102 -0.2557
    5SAPS  C211  590   7.210   4.906   9.828 -0.8487  0.1425 -0.2376
    5SAPS  H11R  591   7.238   4.805   9.861  1.0780  0.9031  0.6170
    5SAPS  C212  592   7.223   4.933   9.693  0.4965 -0.5310 -0.8346
    5SAPS  H12R  593   7.279   4.862   9.631 -0.4016 -0.3589 -1.8775
    5SAPS  C213  594   7.166   5.044   9.613 -0.2573 -0.0814 -0.2351
    5SAPS  H13R  595   7.092   5.109   9.664 -0.7016 -1.7997  1.4215
    5SAPS  H13S  596   7.097   4.998   9.539  2.2661 -1.3564 -1.9519
    5SAPS  C214  597   7.268   5.117   9.534 -0.5837 -0.2587  0.2304
    5SAPS  H14R  598   7.370   5.092   9.566 -0.7218 -0.2697  0.6635
    5SAPS  C215  599   7.250   5.217   9.446  0.0326 -0.1090  0.2822
    5SAPS  H15R  600   7.334   5.259   9.388 -1.0057 -0.8629 -1.8656
    5SAPS  C216  601   7.118   5.260   9.385 -0.4881  0.0806  0.4915
    5SAPS  H16R  602   7.090   5.346   9.450 -0.9330  0.1463  0.2158
    5SAPS  H16S  603   7.042   5.181   9.403  0.0796  0.2671  4.6098
    5SAPS  C217  604   7.118   5.290   9.233 -0.1441  0.3124 -0.0503
    5SAPS  H17R  605   7.175   5.383   9.215 -0.0720  0.1771 -0.5620
    5SAPS  H17S  606   7.011   5.311   9.207  0.3332  1.7586 -1.0099
    5SAPS  C218  607   7.168   5.175   9.148 -0.0182  0.0024 -0.2065
    5SAPS  H18R  608   7.275   5.159   9.172  1.0685  1.4382 -3.4913
    5SAPS  H18S  609   7.113   5.079   9.167  1.7526 -1.1222 -0.5688
    5SAPS  C219  610   7.170   5.186   8.995  0.9237  0.5268  0.0470
    5SAPS  H19R  611   7.063   5.209   8.975  0.5959  2.1143  3.0392
    5SAPS  H19S  612   7.195   5.086   8.953 -1.6231 -1.2844  2.4763
    5SAPS  C220  613   7.266   5.291   8.942 -0.0012 -0.6055  0.3515
    5SAPS  H20R  614   7.269   5.377   9.012 -2.8988  0.4100 -0.6043
    5SAPS  H20S  615   7.239   5.317   8.837 -1.7972 -2.0030  0.4342
    5SAPS  H20T  616   7.368   5.246   8.943  0.1799 -0.2116  0.0822
    5SAPS   C33  617   7.425   4.519  10.299 -0.0783  0.1388 -0.1184
    5SAPS   H3X  618   7.333   4.581  10.300 -0.9834 -1.1045 -1.4757
    5SAPS   H3Y  619   7.389   4.424  10.253  0.6106 -0.1948  0.0133
    5SAPS   C34  620   7.531   4.582  10.215  0.7817  0.0828 -0.1068
    5SAPS   H4X  621   7.629   4.534  10.237  0.4367 -0.6890 -0.2555
    5SAPS   H4Y  622   7.551   4.688  10.245  2.4616 -0.7216  1.8787
    5SAPS   C35  623   7.503   4.569  10.060 -0.1683  0.5288 -0.9642
    5SAPS   H5X  624   7.400   4.608  10.046 -0.9932 -1.5270 -0.9532
    5SAPS   H5Y  625   7.511   4.459  10.044 -1.1242  0.6668 -2.5453
    5SAPS   C36  626   7.603   4.628   9.957 -0.2551  0.6853 -0.4714
    5SAPS   H6X  627   7.701   4.575   9.958  1.4703  3.6365 -0.4505
    5SAPS   H6Y  628   7.630   4.730   9.992  1.1061  0.6766 -1.4010
    5SAPS   C37  629   7.549   4.637   9.812  0.3366  0.1228 -1.1798
    5SAPS   H7X  630   7.471   4.716   9.810 -2.0239 -2.0902 -1.8330
    5SAPS   H7Y  631   7.481   4.551   9.794 -0.1294  0.9264 -3.5455
    5SAPS   C38  632   7.654   4.644   9.700 -0.8370 -0.0787 -0.8596
    5SAPS   H8X  633   7.735   4.569   9.699 -0.1098  0.6892 -0.8624
    5SAPS   H8Y  634   7.704   4.741   9.719  1.3715 -0.8607 -2.2655
    5SAPS   C39  635   7.585   4.637   9.561  0.0589  0.4262  0.0241
    5SAPS   H9X  636   7.503   4.711   9.547 -2.2038 -1.4668  2.2285
    5SAPS   H9Y  637   7.551   4.531   9.564  4.2827 -1.1805 -1.0998
    5SAPS  C310  638   7.674   4.642   9.440  1.2390  0.3196 -0.1270
    5SAPS  H10X  639   7.735   4.550   9.436 -0.8484 -1.2500  1.6261
    5SAPS  H10Y  640   7.746   4.727   9.446  0.1706  1.3085 -0.8932
    5SAPS  C311  641   7.597   4.651   9.307 -0.1407  0.3967  0.2928
    5SAPS  H11X  642   7.573   4.755   9.277 -0.4351  0.1608 -0.2981
    5SAPS  H11Y  643   7.493   4.618   9.326  0.0159  1.6121  4.2039
    5SAPS  C312  644   7.663   4.573   9.194  0.0014  1.0585  0.7342
    5SAPS  H12X  645   7.666   4.463   9.209 -1.3723  0.8924 -0.0455
    5SAPS  H12Y  646   7.763   4.619   9.182  1.0600 -1.1692  0.5131
    5SAPS  C313  647   7.582   4.591   9.062 -0.4223  0.0117  0.0771
    5SAPS  H13X  648   7.582   4.702   9.050 -2.6821  0.6894  4.1973
    5SAPS  H13Y  649   7.478   4.560   9.086 -0.9182  0.9206 -0.8408
    5SAPS  C314  650   7.628   4.532   8.927 -0.0114  0.8158  0.3157
    5SAPS  H14X  651   7.546   4.555   8.856 -1.6376 -2.5692  0.8586
    5SAPS  H14Y  652   7.635   4.421   8.930  0.2590  0.8274  0.1320
    5SAPS  C315  653   7.760   4.583   8.874  0.4265  0.2129  0.5495
    5SAPS  H15X  654   7.847   4.515   8.889  0.4809  0.2677  0.4898
    5SAPS  H15Y  655   7.784   4.674   8.932  0.8501  0.0238  0.6789
    5SAPS  C316  656   7.753   4.613   8.725 -0.4527  0.3623 -0.3219
    5SAPS  H16X  657   7.677   4.693   8.708  1.9357  3.1670  1.2086
    5SAPS  H16Y  658   7.741   4.529   8.654  0.7153 -2.0692  2.1561
    5SAPS  C317  659   7.872   4.699   8.678  0.1666 -0.0098 -0.1041
    5SAPS  H17X  660   7.884   4.778   8.755  2.2677 -1.1353  0.7705
    5SAPS  H17Y  661   7.847   4.755   8.585  1.7914 -1.1484 -1.2720
    5SAPS  C318  662   8.003   4.611   8.662 -0.3860  0.1973 -1.0027
    5SAPS  H18X  663   7.969   4.524   8.602 -1.1086  0.3626 -0.8538
    5SAPS  H18Y  664   8.032   4.582   8.765 -0.5516  0.9302 -0.7432
    5SAPS  H18Z  665   8.080   4.666   8.604  0.3436 -1.2523 -1.4502
    6SAPS     N  666   0.355   3.873  10.955  0.4006  0.0484 -0.2776
    6SAPS   HN1  667   0.412   3.868  11.041 -2.5244  0.8215  1.8613
    6SAPS   HN2  668   0.414   3.856  10.871  1.8168 -0.1863  0.7372
    6SAPS   HN3  669   0.314   3.969  10.955 -1.9070 -0.8340 -2.0842
    6SAPS   C12  670   0.250   3.782  10.966 -0.3625 -0.2000  0.0096
    6SAPS  H12A  671   0.290   3.694  11.015  0.1980  0.6953  1.2151
    6SAPS   C13  672   0.151   3.833  11.072 -0.6533  0.5581  0.0583
    6SAPS  O13A  673   0.179   3.935  11.148 -0.8106  0.2860 -0.2490
    6SAPS  O13B  674   0.062   3.749  11.107  0.0254 -0.2670  0.4832
    6SAPS   C11  675   0.174   3.755  10.836 -0.1608 -0.0266 -0.0745
    6SAPS  H11A  676   0.077   3.708  10.863  0.1290 -0.3819  0.3601
    6SAPS  H11B  677   0.227   3.691  10.762 -2.1854 -0.0479 -1.5869
    6SAPS     P  678   0.017   3.920  10.697  0.2407  0.3632 -0.1756
    6SAPS   O13  679  -0.067   3.951  10.821  0.5445  0.0465  0.4564
    6SAPS   O14  680   0.031   4.033  10.607  0.3161  0.0116  0.1634
    6SAPS   O12  681   0.156   3.877  10.765 -0.4187  0.6447  1.0928
    6SAPS   O11  682  -0.039   3.791  10.620  0.2964 -0.0887  0.2939
    6SAPS    C1  683   0.033   3.711  10.526  0.6169 -0.1508 -0.1197
    6SAPS    HA  684   0.131   3.754  10.498  0.2867  1.0528  0.5072
    6SAPS    HB  685   0.057   3.615  10.577 -1.4016 -0.3173  0.6387
    6SAPS    C2  686  -0.050   3.669  10.400 -0.1724  0.2636 -0.6334
    6SAPS    HS  687  -0.000   3.590  10.339  0.3940  1.1847 -1.3981
    6SAPS   O21  688  -0.084   3.783  10.316 -0.2933 -0.4043 -0.0338
    6SAPS   C21  689   0.019   3.804  10.233 -0.4978  0.3626  0.0147
    6SAPS   O22  690   0.129   3.754  10.247 -0.1112  0.0186 -0.2440
    6SAPS   C22  691  -0.032   3.883  10.116  1.3085  0.7319 -0.2694
    6SAPS   H2R  692  -0.109   3.820  10.065  1.6963  1.7429 -2.2237
    6SAPS   H2S  693  -0.092   3.970  10.148 -1.9902 -0.6052 -2.2333
    6SAPS    C3  694  -0.177   3.594  10.446 -0.4963 -0.1286  0.2175
    6SAPS    HX  695  -0.237   3.664  10.507  2.4297  0.2268  2.9571
    6SAPS    HY  696  -0.159   3.504  10.509 -0.9120 -1.0895 -0.9854
    6SAPS   O31  697  -0.248   3.553  10.327 -0.0326  0.1254 -0.2183
    6SAPS   C31  698  -0.344   3.467  10.352  0.3098  0.1125 -0.2445
    6SAPS   O32  699  -0.380   3.431  10.465 -0.4166  0.1285  0.4680
    6SAPS   C32  700  -0.411   3.430  10.217  0.2325 -0.0233  0.1265
    6SAPS   H2X  701  -0.351   3.453  10.127 -0.2581 -1.7269 -0.6784
    6SAPS   H2Y  702  -0.501   3.496  10.220  1.1160  1.2158  3.0474
    6SAPS   C23  703   0.083   3.926  10.022  0.2943 -0.4817 -0.3553
    6SAPS   H3R  704   0.130   3.835   9.977  0.5119 -0.7725  0.4274
    6SAPS   H3S  705   0.171   3.970  10.075 -0.7270  1.7481 -0.4143
    6SAPS   C24  706   0.033   4.018   9.905 -0.4751  0.7882  0.9524
    6SAPS   H4R  707  -0.018   4.105   9.951 -1.7335  0.7144 -0.2123
    6SAPS   H4S  708  -0.051   3.959   9.861  0.2853 -0.6710  1.3927
    6SAPS   C25  709   0.146   4.071   9.812 -0.2475 -0.1528 -0.7332
    6SAPS   H5R  710   0.219   4.128   9.870 -0.7355 -0.6172  0.3769
    6SAPS   C26  711   0.146   4.078   9.682  0.0537  0.5250  0.1879
    6SAPS   H6R  712   0.235   4.114   9.628  0.2281 -0.8976 -0.5304
    6SAPS   C27  713   0.038   4.020   9.597 -0.2674 -0.5316 -0.0661
    6SAPS   H7R  714  -0.044   4.094   9.581  0.2333  0.0261 -0.1007
    6SAPS   H7S  715  -0.004   3.927   9.642  1.3993 -0.5975  1.4808
    6SAPS   C28  716   0.083   3.969   9.463  0.3318 -0.4927  0.3457
    6SAPS   H8R  717   0.093   3.861   9.446 -1.7208 -0.8558  1.1237
    6SAPS   C29  718   0.133   4.040   9.360 -0.4712  0.1867  0.0490
    6SAPS   H9R  719   0.153   3.987   9.265  0.7715 -0.3149  0.5723
    6SAPS  C210  720   0.142   4.189   9.346  0.2760 -0.4385 -0.7906
    6SAPS  H10R  721   0.230   4.224   9.288 -0.4236  0.1831 -1.5106
    6SAPS  H10S  722   0.161   4.238   9.444  0.1476 -0.1100 -0.9259
    6SAPS  C211  723   0.021   4.267   9.293 -0.0668 -0.6884 -0.4933
    6SAPS  H11R  724  -0.074   4.251   9.346 -0.3979  0.3881 -0.7454
    6SAPS  C212  725   0.012   4.330   9.175  0.6415  0.6798  0.3137
    6SAPS  H12R  726  -0.083   4.376   9.144  0.2926 -0.5412 -0.4667
    6SAPS  C213  727   0.114   4.355   9.070  0.2633  0.2233 -0.4652
    6SAPS  H13R  728   0.209   4.389   9.116  0.7950  0.1675 -1.4732
    6SAPS  H13S  729   0.088   4.440   9.004  1.0264  0.9844  0.1917
    6SAPS  C214  730   0.132   4.233   8.980  0.6802  0.1452  0.3817
    6SAPS  H14R  731   0.228   4.180   8.991  0.1915 -0.5730  1.3768
    6SAPS  C215  732   0.055   4.198   8.873  0.8381 -0.1387 -0.0974
    6SAPS  H15R  733   0.081   4.107   8.818  1.4317 -0.2062  0.2922
    6SAPS  C216  734  -0.064   4.273   8.826  0.1187 -0.5248  0.2005
    6SAPS  H16R  735  -0.097   4.342   8.907 -0.1549 -0.8470  0.3666
    6SAPS  H16S  736  -0.151   4.205   8.816  0.3840 -0.8391 -0.0258
    6SAPS  C217  737  -0.029   4.359   8.711  0.1202  0.0268 -0.3560
    6SAPS  H17R  738  -0.006   4.292   8.626  0.3581  0.1132 -0.3605
    6SAPS  H17S  739   0.061   4.418   8.737 -0.9649  1.2520  0.7870
    6SAPS  C218  740  -0.128   4.471   8.667 -0.4966  0.2763 -0.2062
    6SAPS  H18R  741  -0.149   4.536   8.754  0.4760  0.4486 -0.0944
    6SAPS  H18S  742  -0.226   4.427   8.638 -0.5639  0.4720 -0.2770
    6SAPS  C219  743  -0.098   4.565   8.550 -0.4163  0.5122  0.1275
    6SAPS  H19R  744  -0.189   4.626   8.532 -0.6904  0.9393  2.6378
    6SAPS  H19S  745  -0.075   4.502   8.461 -1.1951  0.5858 -0.1313
    6SAPS  C220  746   0.027   4.654   8.563  0.0247  0.1625 -0.2357
    6SAPS  H20R  747   0.117   4.599   8.528  1.7268  0.3425  3.4253
    6SAPS  H20S  748   0.057   4.687   8.665  0.8291  0.7774 -0.6633
    6SAPS  H20T  749   0.016   4.743   8.496 -1.1653  0.9524  0.9509
    6SAPS   C33  750  -0.445   3.278  10.204 -0.1165 -0.0414 -0.6037
    6SAPS   H3X  751  -0.520   3.270  10.122 -0.7292  0.5214 -0.1021
    6SAPS   H3Y  752  -0.497   3.242  10.295 -0.0718  0.9987 -0.1553
    6SAPS   C34  753  -0.316   3.197  10.170 -0.3512 -1.2126  0.4106
    6SAPS   H4X  754  -0.237   3.229  10.241  0.2369 -1.9050  0.0772
    6SAPS   H4Y  755  -0.287   3.231  10.068  1.8839 -3.1046  0.3252
    6SAPS   C35  756  -0.327   3.050  10.170 -0.4745  0.4126  0.4636
    6SAPS   H5X  757  -0.391   3.016  10.254 -1.3472  0.5195 -0.1458
    6SAPS   H5Y  758  -0.228   3.002  10.175 -0.7147 -0.1371  5.6844
    6SAPS   C36  759  -0.411   2.994  10.049 -0.0587  0.1930 -0.1180
    6SAPS   H6X  760  -0.499   3.061  10.036 -0.6598 -0.8095 -1.4943
    6SAPS   H6Y  761  -0.437   2.889  10.075  1.8832 -0.1269  0.6958
    6SAPS   C37  762  -0.344   2.992   9.919  0.4388 -1.4407 -0.2658
    6SAPS   H7X  763  -0.276   2.904   9.913 -0.0511 -1.9661  1.4933
    6SAPS   H7Y  764  -0.275   3.079   9.914  1.8940 -2.6072 -3.0109
    6SAPS   C38  765  -0.440   3.011   9.797  1.5558 -0.1153 -0.2298
    6SAPS   H8X  766  -0.516   3.090   9.813  1.2256 -0.7905  1.8873
    6SAPS   H8Y  767  -0.496   2.915   9.792  3.2572 -1.3134  1.7287
    6SAPS   C39  768  -0.366   3.044   9.661  0.0778 -0.0176 -0.3904
    6SAPS   H9X  769  -0.292   2.961   9.653  0.0088 -0.3831  1.8735
    6SAPS   H9Y  770  -0.308   3.138   9.661  1.6665 -0.9544 -0.2533
    6SAPS  C310  771  -0.456   3.048   9.539  0.4982 -0.8138  0.3555
    6SAPS  H10X  772  -0.530   3.130   9.551  0.1180 -1.4379  2.9534
    6SAPS  H10Y  773  -0.511   2.951   9.542 -0.2015 -0.5801 -2.3416
    6SAPS  C311  774  -0.372   3.060   9.416 -0.4267  0.2455 -0.2243
    6SAPS  H11X  775  -0.296   2.978   9.415  0.5957  1.1411 -2.1583
    6SAPS  H11Y  776  -0.308   3.151   9.417  0.1387 -0.1456  0.2954
    6SAPS  C312  777  -0.447   3.043   9.281 -0.0005 -0.1198  0.5408
    6SAPS  H12X  778  -0.530   3.117   9.281 -0.7491 -0.9077  2.1960
    6SAPS  H12Y  779  -0.492   2.942   9.275  0.2023 -0.1898  0.1899
    6SAPS  C313  780  -0.350   3.070   9.163 -0.0071 -0.0545 -0.6754
    6SAPS  H13X  781  -0.272   2.995   9.190 -2.3568 -1.5186  2.7309
    6SAPS  H13Y  782  -0.316   3.176   9.164  0.4089 -0.1849  0.3997
    6SAPS  C314  783  -0.413   3.059   9.026  0.4800  1.5139 -0.2692
    6SAPS  H14X  784  -0.342   3.108   8.955  0.6525  2.0926  0.3021
    6SAPS  H14Y  785  -0.507   3.118   9.032 -1.4574 -1.5482  1.8925
    6SAPS  C315  786  -0.432   2.913   8.992 -0.2038 -0.0581 -0.5773
    6SAPS  H15X  787  -0.496   2.879   9.076 -0.0340  1.8512  0.3670
    6SAPS  H15Y  788  -0.334   2.862   9.006  0.4889  0.6634 -2.4908
    6SAPS  C316  789  -0.491   2.871   8.858 -0.6821 -0.1776 -0.3221
    6SAPS  H16X  790  -0.511   2.762   8.859 -1.2459 -0.0816  0.5772
    6SAPS  H16Y  791  -0.422   2.901   8.777 -1.0336  2.0616  0.1305
    6SAPS  C317  792  -0.621   2.943   8.823 -0.2885  0.7353  0.0685
    6SAPS  H17X  793  -0.636   2.922   8.715 -0.7791  0.5624  0.1679
    6SAPS  H17Y  794  -0.607   3.053   8.827  0.3012  0.6593  0.2219
    6SAPS  C318  795  -0.735   2.887   8.899 -0.5359  0.4586 -0.4242
    6SAPS  H18X  796  -0.831   2.929   8.864 -1.2045 -0.6138  0.0599
    6SAPS  H18Y  797  -0.738   2.909   9.008  0.6191 -0.6250 -0.1467
    6SAPS  H18Z  798  -0.743   2.777   8.885 -0.2504  0.4169 -0.2715
    7SAPS     N  799   1.805   4.732  10.691 -0.0548 -0.1448  0.3170
    7SAPS   HN1  800   1.870   4.664  10.648 -0.9432  0.2163 -1.7028
    7SAPS   HN2  801   1.743   4.692  10.764  0.3155  0.3347  0.9061
    7SAPS   HN3  802   1.750   4.770  10.611  0.6971 -0.9164 -0.5915
    7SAPS   C12  803   1.868   4.840  10.770 -0.5802 -0.4326 -0.4899
    7SAPS  H12A  804   1.797   4.908  10.814 -1.2838 -1.2149 -0.3858
    7SAPS   C13  805   1.947   4.781  10.889 -0.3507  0.0244  0.0014
    7SAPS  O13A  806   1.949   4.660  10.916 -0.4805 -0.0524 -0.5741
    7SAPS  O13B  807   2.036   4.854  10.941  0.0778 -0.9580  0.4068
    7SAPS   C11  808   1.966   4.923  10.686 -0.7269 -1.1790  0.3938
    7SAPS  H11A  809   2.058   4.862  10.672  1.2496  1.7110 -0.1866
    7SAPS  H11B  810   2.017   5.007  10.738 -0.7900 -0.6845 -0.3247
    7SAPS     P  811   1.845   5.110  10.550  0.8641  0.5397 -0.3651
    7SAPS   O13  812   1.696   5.101  10.587  0.3119  0.0401 -0.4451
    7SAPS   O14  813   1.924   5.208  10.622 -0.3771 -0.6410 -0.0260
    7SAPS   O12  814   1.910   4.971  10.571 -0.0518 -0.4521  0.1209
    7SAPS   O11  815   1.862   5.138  10.402 -0.5622  0.3633  0.1521
    7SAPS    C1  816   1.818   5.050  10.299  0.2786 -0.0910  0.1607
    7SAPS    HA  817   1.845   4.946  10.326 -1.8289 -0.5784  0.5390
    7SAPS    HB  818   1.708   5.058  10.299  0.2051 -1.0301 -0.2459
    7SAPS    C2  819   1.876   5.070  10.156 -0.4055 -0.4247  0.4191
    7SAPS    HS  820   1.983   5.099  10.166 -1.0881  2.6496  0.0608
    7SAPS   O21  821   1.812   5.178  10.089  0.1298 -0.0953 -0.1142
    7SAPS   C21  822   1.852   5.298  10.111  0.8816 -0.4453  0.2699
    7SAPS   O22  823   1.933   5.333  10.195  0.1756 -0.4105 -0.2513
    7SAPS   C22  824   1.780   5.388  10.011 -0.5500  0.2415 -0.3250
    7SAPS   H2R  825   1.769   5.339   9.912 -1.8984 -0.2358  0.0387
    7SAPS   H2S  826   1.677   5.417  10.040  0.5517  2.1826  1.9531
    7SAPS    C3  827   1.871   4.935  10.080 -0.0703 -0.3857  0.3184
    7SAPS    HX  828   1.769   4.895  10.099 -0.1047 -0.1416  0.6757
    7SAPS    HY  829   1.937   4.857  10.124  1.6733  0.2036 -1.1287
    7SAPS   O31  830   1.891   4.949   9.941  0.4541  0.0907  0.8612
    7SAPS   C31  831   2.020   4.962   9.887  0.2104  0.0631 -0.4007
    7SAPS   O32  832   2.120   4.947   9.954  0.0970  0.4473  0.2699
    7SAPS   C32  833   2.005   4.992   9.735 -0.0850  0.0224 -0.1672
    7SAPS   H2X  834   1.899   4.972   9.708  0.2642  1.3924 -2.9906
    7SAPS   H2Y  835   2.075   4.921   9.684 -0.3548  0.3645 -1.0254
    7SAPS   C23  836   1.858   5.521  10.006 -0.3148 -0.5789  0.5408
    7SAPS   H3R  837   1.949   5.516   9.941 -0.6745 -1.0350  0.0643
    7SAPS   H3S  838   1.894   5.561  10.103 -1.4536  0.2490  0.6390
    7SAPS   C24  839   1.762   5.631   9.946  0.0429 -0.2014 -0.1746
    7SAPS   H4R  840   1.662   5.638   9.994 -1.3505  0.2399 -2.9438
    7SAPS   H4S  841   1.730   5.596   9.846 -0.9945 -1.8348  0.6989
    7SAPS   C25  842   1.838   5.762   9.933  0.3765 -0.2536 -0.1788
    7SAPS   H5R  843   1.843   5.816  10.028 -2.0120  0.5744 -0.4503
    7SAPS   C26  844   1.905   5.792   9.817  0.7296 -0.1904 -0.2959
    7SAPS   H6R  845   1.962   5.886   9.814 -0.9543  0.9658  1.5255
    7SAPS   C27  846   1.909   5.710   9.685  0.4185  0.2524 -0.5433
    7SAPS   H7R  847   1.808   5.715   9.640 -0.3948  1.7524  1.3066
    7SAPS   H7S  848   1.928   5.601   9.697 -1.4938 -0.4376 -3.1616
    7SAPS   C28  849   2.016   5.766   9.594 -0.5883 -0.6379  0.4596
    7SAPS   H8R  850   2.121   5.735   9.609 -1.0809 -1.7935  1.8045
    7SAPS   C29  851   2.004   5.879   9.518  0.2641 -0.7032  0.3424
    7SAPS   H9R  852   2.096   5.921   9.476 -1.3214  1.8099 -0.8296
    7SAPS  C210  853   1.876   5.964   9.517 -1.0302 -0.0642 -0.2007
    7SAPS  H10R  854   1.791   5.933   9.581 -0.8477  0.9997  0.5770
    7SAPS  H10S  855   1.841   5.956   9.412  0.9054  0.3608 -0.9345
    7SAPS  C211  856   1.922   6.101   9.550  0.4914 -0.2244 -0.1800
    7SAPS  H11R  857   1.988   6.110   9.637  0.4387 -1.7793  0.0444
    7SAPS  C212  858   1.903   6.208   9.469  0.2843  0.3611  1.0137
    7SAPS  H12R  859   1.943   6.301   9.513 -0.7874  0.9059  0.8741
    7SAPS  C213  860   1.821   6.212   9.340 -0.2905  0.3176 -0.4565
    7SAPS  H13R  861   1.842   6.122   9.279 -0.5481 -0.1792  0.1778
    7SAPS  H13S  862   1.839   6.306   9.283  0.9214  0.6680  0.4608
    7SAPS  C214  863   1.670   6.209   9.373  0.2878 -0.1149 -0.1848
    7SAPS  H14R  864   1.637   6.124   9.434 -2.1316  1.9529  1.6192
    7SAPS  C215  865   1.575   6.293   9.322  0.1217  0.6034  0.0659
    7SAPS  H15R  866   1.471   6.258   9.331  0.1104  0.5338 -0.3398
    7SAPS  C216  867   1.601   6.400   9.220 -0.5624 -0.3247  0.4380
    7SAPS  H16R  868   1.705   6.408   9.181 -0.1288 -0.6423  1.4795
    7SAPS  H16S  869   1.603   6.498   9.273  2.1925  0.4830 -0.9729
    7SAPS  C217  870   1.511   6.377   9.094 -0.7130  0.2344  0.1339
    7SAPS  H17R  871   1.516   6.272   9.057 -0.9370  1.1085 -2.5580
    7SAPS  H17S  872   1.567   6.433   9.016  2.4513 -1.3502  1.0608
    7SAPS  C218  873   1.371   6.431   9.106 -0.0984  0.0944  0.1064
    7SAPS  H18R  874   1.379   6.532   9.151  3.7415  0.6725 -1.5250
    7SAPS  H18S  875   1.307   6.356   9.158 -0.1343 -1.0112 -1.4444
    7SAPS  C219  876   1.299   6.447   8.969  0.3311  0.3422  0.1917
    7SAPS  H19R  877   1.291   6.346   8.924  0.2901  1.0980 -1.5694
    7SAPS  H19S  878   1.364   6.519   8.915  0.6691  1.6821  2.2842
    7SAPS  C220  879   1.157   6.505   8.979 -0.1431  0.2987 -0.3493
    7SAPS  H20R  880   1.102   6.486   9.074  0.3454 -1.2506 -0.3428
    7SAPS  H20S  881   1.101   6.489   8.885 -1.4839 -3.5404  0.9233
    7SAPS  H20T  882   1.191   6.611   8.986  0.1721  0.1501  0.6522
    7SAPS   C33  883   2.048   5.140   9.706  0.2063  0.1385  0.1364
    7SAPS   H3X  884   2.134   5.162   9.773  0.6671 -1.9476  0.2984
    7SAPS   H3Y  885   1.961   5.201   9.739 -0.0718  0.1758 -0.6498
    7SAPS   C34  886   2.079   5.173   9.556  0.3806  0.1846 -0.0280
    7SAPS   H4X  887   1.986   5.144   9.502 -0.1019 -2.2278  1.9102
    7SAPS   H4Y  888   2.159   5.104   9.524 -1.1888 -2.1778  0.8797
    7SAPS   C35  889   2.096   5.322   9.522 -0.5694 -0.4141  0.4749
    7SAPS   H5X  890   2.203   5.345   9.544  0.5124 -2.5379 -2.0512
    7SAPS   H5Y  891   2.024   5.388   9.576  2.3350  4.6107 -1.1236
    7SAPS   C36  892   2.084   5.351   9.372  0.5669 -0.1686  0.4552
    7SAPS   H6X  893   1.978   5.360   9.340  0.5954 -2.0520 -0.2907
    7SAPS   H6Y  894   2.124   5.260   9.322 -0.8085 -0.8562  0.5494
    7SAPS   C37  895   2.157   5.470   9.313  0.5018 -1.2148  0.3426
    7SAPS   H7X  896   2.257   5.476   9.360  0.4042  2.1456  0.3907
    7SAPS   H7Y  897   2.104   5.563   9.346  2.6225  0.4446 -0.6839
    7SAPS   C38  898   2.136   5.479   9.161  0.0362 -0.1614 -1.0831
    7SAPS   H8X  899   2.028   5.464   9.138 -0.0582 -0.4674 -0.4735
    7SAPS   H8Y  900   2.194   5.405   9.103  0.9829 -1.5415  1.4732
    7SAPS   C39  901   2.170   5.618   9.103  0.4808 -0.6610  0.9244
    7SAPS   H9X  902   2.144   5.608   8.995  0.1040 -0.2760  0.9781
    7SAPS   H9Y  903   2.279   5.636   9.111  0.5407 -0.3269 -0.3606
    7SAPS  C310  904   2.091   5.748   9.141  0.5617 -0.6638 -0.5434
    7SAPS  H10X  905   2.140   5.775   9.237  0.7396 -0.4728 -0.6870
    7SAPS  H10Y  906   1.985   5.719   9.158  0.5117  0.6477  1.7255
    7SAPS  C311  907   2.110   5.863   9.039 -0.1058  0.7872  0.0510
    7SAPS  H11X  908   2.072   5.823   8.943  0.4842  1.5370 -0.5081
    7SAPS  H11Y  909   2.218   5.887   9.026  0.2719 -0.6515  0.3242
    7SAPS  C312  910   2.036   5.986   9.083  0.6265  0.0569 -0.7309
    7SAPS  H12X  911   2.078   6.028   9.178 -1.6689 -1.7129  1.1869
    7SAPS  H12Y  912   1.931   5.956   9.100  0.8993 -0.3136  0.3718
    7SAPS  C313  913   2.022   6.093   8.979 -0.0993  0.1215 -0.1637
    7SAPS  H13X  914   1.974   6.185   9.018  1.0582  1.7900 -2.4482
    7SAPS  H13Y  915   1.957   6.050   8.899 -0.6124  0.5897 -0.0031
    7SAPS  C314  916   2.157   6.141   8.914 -0.2785 -0.0708 -0.3623
    7SAPS  H14X  917   2.142   6.215   8.833  1.7023  2.3042  1.3148
    7SAPS  H14Y  918   2.198   6.043   8.881  1.8415  0.8553 -0.6462
    7SAPS  C315  919   2.264   6.204   9.013  0.7580 -0.6102  0.5744
    7SAPS  H15X  920   2.233   6.161   9.111 -2.0889 -2.9551 -1.1935
    7SAPS  H15Y  921   2.249   6.313   9.025 -1.2229 -0.9662  1.8353
    7SAPS  C316  922   2.409   6.158   8.977  0.8836  0.0336 -0.4638
    7SAPS  H16X  923   2.424   6.169   8.867  0.8665 -2.2743 -0.7498
    7SAPS  H16Y  924   2.426   6.050   8.999 -0.4935 -0.3268 -1.0596
    7SAPS  C317  925   2.523   6.233   9.047 -0.4885  0.8088 -0.0136
    7SAPS  H17X  926   2.509   6.232   9.157 -0.4049  0.4508 -0.0051
    7SAPS  H17Y  927   2.527   6.339   9.016 -0.6281  0.9353  0.3959
    7SAPS  C318  928   2.659   6.176   8.999 -0.0001  0.1376 -0.5299
    7SAPS  H18X  929   2.678   6.178   8.889 -2.0337 -1.8154 -1.0086
    7SAPS  H18Y  930   2.667   6.071   9.032 -0.1887  0.0929 -0.6221
    7SAPS  H18Z  931   2.741   6.230   9.051  2.8324 -3.5845 -0.7719
    8SAPS     N  932   6.496   6.090  11.193 -0.6183  0.4264  0.4857
    8SAPS   HN1  933   6.472   6.182  11.151 -0.8112 -0.0819 -0.5488
    8SAPS   HN2  934   6.525   6.111  11.291  0.1170  0.9097  0.1730
    8SAPS   HN3  935   6.573   6.044  11.140  1.8061  4.1600  0.3393
    8SAPS   C12  936   6.371   6.009  11.197 -0.5832  0.0214  0.1553
    8SAPS  H12A  937   6.386   5.921  11.258 -2.0217  1.4014  2.6404
    8SAPS   C13  938   6.246   6.078  11.262 -0.7906 -0.3232 -0.3953
    8SAPS  O13A  939   6.259   6.186  11.322  0.1373  0.3144  0.1114
    8SAPS  O13B  940   6.144   6.008  11.282  0.3309  0.2903 -0.0395
    8SAPS   C11  941   6.344   5.962  11.053 -0.1181 -0.4666 -0.1756
    8SAPS  H11A  942   6.428   5.902  11.011  0.1675  0.4072 -0.8954
    8SAPS  H11B  943   6.338   6.054  10.991  1.7972 -0.1191  0.0749
    8SAPS     P  944   6.218   5.736  11.074  0.2483 -0.4670  0.3532
    8SAPS   O13  945   6.282   5.703  11.207  0.3844  0.1461  0.0266
    8SAPS   O14  946   6.079   5.689  11.055  0.1007  0.4510  0.0116
    8SAPS   O12  947   6.216   5.894  11.042 -0.0965  0.2109 -0.5753
    8SAPS   O11  948   6.313   5.689  10.959 -0.2773 -0.5224 -0.7923
    8SAPS    C1  949   6.277   5.659  10.827  0.6809 -0.1236 -0.0601
    8SAPS    HA  950   6.306   5.553  10.811  0.9951 -0.6197  3.1513
    8SAPS    HB  951   6.168   5.681  10.815  0.6875  0.6646  1.1323
    8SAPS    C2  952   6.371   5.738  10.730  0.5223  0.7345  0.5070
    8SAPS    HS  953   6.339   5.844  10.742 -1.3092  0.3564 -0.5657
    8SAPS   O21  954   6.347   5.706  10.590 -0.6748 -0.6795 -0.4835
    8SAPS   C21  955   6.227   5.749  10.541  0.2740  0.1748 -0.3627
    8SAPS   O22  956   6.138   5.802  10.602  0.3173 -0.4685 -0.0060
    8SAPS   C22  957   6.218   5.700  10.396 -0.1266 -0.9011  0.5527
    8SAPS   H2R  958   6.310   5.735  10.344  1.0156 -2.1447  1.6361
    8SAPS   H2S  959   6.230   5.590  10.398  0.9778 -0.8024  0.4502
    8SAPS    C3  960   6.518   5.737  10.767 -0.6595 -0.5801  0.0465
    8SAPS    HX  961   6.547   5.630  10.755  0.2748 -0.0368 -3.8758
    8SAPS    HY  962   6.532   5.771  10.872  1.3175  3.4671 -1.3046
    8SAPS   O31  963   6.597   5.816  10.677 -0.1978  0.2455 -0.4970
    8SAPS   C31  964   6.604   5.946  10.722 -0.7502 -0.3033  0.9570
    8SAPS   O32  965   6.540   5.984  10.818 -0.2522 -0.1092  0.1096
    8SAPS   C32  966   6.674   6.027  10.617 -0.7479  0.2765 -0.2630
    8SAPS   H2X  967   6.666   5.976  10.519 -0.1117  0.0203 -0.1888
    8SAPS   H2Y  968   6.781   6.020  10.647 -0.9286  1.2020  0.6654
    8SAPS   C23  969   6.089   5.742  10.318  1.1492  0.0025 -0.5746
    8SAPS   H3R  970   6.054   5.845  10.342  0.1716  0.1418 -2.4490
    8SAPS   H3S  971   6.003   5.683  10.356 -2.0002  4.1712 -0.5458
    8SAPS   C24  972   6.101   5.731  10.166  0.2093 -0.1568  0.2382
    8SAPS   H4R  973   5.997   5.724  10.128  0.1083  1.9872  0.0062
    8SAPS   H4S  974   6.157   5.636  10.149 -0.2851 -0.6277  1.2006
    8SAPS   C25  975   6.175   5.845  10.099 -0.1031  0.0292 -0.6281
    8SAPS   H5R  976   6.176   5.938  10.157 -0.2341 -0.2807 -0.1203
    8SAPS   C26  977   6.243   5.848   9.987 -0.1476 -0.8153  0.0923
    8SAPS   H6R  978   6.282   5.946   9.957 -0.6100  0.0383  2.1205
    8SAPS   C27  979   6.282   5.736   9.893 -0.9320 -0.8893 -0.6163
    8SAPS   H7R  980   6.239   5.762   9.794 -0.6961 -0.2415 -0.5584
    8SAPS   H7S  981   6.231   5.642   9.920 -1.3642 -0.0508  1.7222
    8SAPS   C28  982   6.432   5.723   9.877  0.5826  0.2817 -0.2998
    8SAPS   H8R  983   6.472   5.630   9.920  0.9807  0.6479  0.1306
    8SAPS   C29  984   6.509   5.790   9.791  0.7146  0.3158 -0.2394
    8SAPS   H9R  985   6.604   5.742   9.765  0.9441  0.4416  0.3523
    8SAPS  C210  986   6.463   5.897   9.693  0.2667 -0.1762 -0.2942
    8SAPS  H10R  987   6.476   5.994   9.746 -2.1258 -0.0746  0.1968
    8SAPS  H10S  988   6.354   5.888   9.673 -0.0309  0.9236  0.6880
    8SAPS  C211  989   6.535   5.896   9.564 -0.0811  0.0864 -0.5859
    8SAPS  H11R  990   6.596   5.806   9.545 -0.2084  0.3383 -2.4211
    8SAPS  C212  991   6.552   5.997   9.473  0.9989 -0.1945 -0.4026
    8SAPS  H12R  992   6.617   5.988   9.384  0.1896 -0.0924 -1.0091
    8SAPS  C213  993   6.493   6.136   9.472  0.3969  0.1615 -0.8556
    8SAPS  H13R  994   6.438   6.157   9.566  0.8868 -2.4776  0.1124
    8SAPS  H13S  995   6.413   6.145   9.396  0.1123  0.6885 -0.5019
    8SAPS  C214  996   6.602   6.238   9.461  0.2430 -0.3866 -0.7892
    8SAPS  H14R  997   6.684   6.234   9.535 -0.7824  3.5777  0.8535
    8SAPS  C215  998   6.602   6.353   9.393  0.7341  0.0757  0.2644
    8SAPS  H15R  999   6.695   6.411   9.382  2.4065 -2.6219 -0.6772
    8SAPS  C216 1000   6.487   6.406   9.317 -0.2355  0.6666  0.2553
    8SAPS  H16R 1001   6.445   6.495   9.367 -0.2264  0.9559 -0.2408
    8SAPS  H16S 1002   6.400   6.338   9.306 -0.7553  1.1718  1.1333
    8SAPS  C217 1003   6.528   6.444   9.172 -0.7222  0.4419 -0.4691
    8SAPS  H17R 1004   6.582   6.361   9.122 -1.4086  0.0227 -0.5239
    8SAPS  H17S 1005   6.579   6.543   9.174  1.2792 -0.5359 -0.5723
    8SAPS  C218 1006   6.403   6.468   9.082  0.3838  0.0095  0.2963
    8SAPS  H18R 1007   6.353   6.555   9.130  0.9683 -0.2451  1.3947
    8SAPS  H18S 1008   6.337   6.379   9.085  0.5918 -0.2915 -2.1334
    8SAPS  C219 1009   6.439   6.502   8.939  0.4998  0.5580 -0.0334
    8SAPS  H19R 1010   6.513   6.428   8.900  2.2612  2.8079 -1.1965
    8SAPS  H19S 1011   6.492   6.598   8.956  2.5376 -0.8100  2.0538
    8SAPS  C220 1012   6.333   6.517   8.843  0.4594 -0.9528  0.4168
    8SAPS  H20R 1013   6.369   6.514   8.738  1.8832  0.2139  0.8407
    8SAPS  H20S 1014   6.283   6.612   8.870 -2.6091 -1.8707 -1.4984
    8SAPS  H20T 1015   6.242   6.457   8.864  1.2982 -1.1376  4.0684
    8SAPS   C33 1016   6.630   6.171  10.603  0.2582  0.2953 -0.2876
    8SAPS   H3X 1017   6.690   6.220  10.523  0.4512 -0.0439 -0.3490
    8SAPS   H3Y 1018   6.654   6.225  10.697  0.3390  0.8493 -0.6161
    8SAPS   C34 1019   6.480   6.189  10.568  0.1807 -1.1674  0.4840
    8SAPS   H4X 1020   6.419   6.137  10.646 -1.1525 -0.6096 -0.1653
    8SAPS   H4Y 1021   6.463   6.140  10.470  0.3069 -1.9814  0.8560
    8SAPS   C35 1022   6.427   6.332  10.565  0.4206 -0.0131  0.1418
    8SAPS   H5X 1023   6.467   6.394  10.648 -0.8848 -0.2665  0.9893
    8SAPS   H5Y 1024   6.317   6.325  10.578  0.3925  2.2071  1.7006
    8SAPS   C36 1025   6.467   6.397  10.429 -0.2256 -0.0009  0.4304
    8SAPS   H6X 1026   6.426   6.333  10.348  0.8623  1.0182 -0.9742
    8SAPS   H6Y 1027   6.577   6.407  10.421 -0.3339  0.1120 -1.2309
    8SAPS   C37 1028   6.402   6.533  10.416  0.3525  0.7785 -0.0554
    8SAPS   H7X 1029   6.435   6.598  10.500 -3.0655  1.7448  0.6750
    8SAPS   H7Y 1030   6.293   6.523  10.434  0.0618 -1.6156 -2.5085
    8SAPS   C38 1031   6.439   6.596  10.280 -0.0885  0.8298  0.1372
    8SAPS   H8X 1032   6.421   6.513  10.208 -1.1420  1.6224 -0.5373
    8SAPS   H8Y 1033   6.546   6.622  10.269  0.1775 -0.2975 -0.1131
    8SAPS   C39 1034   6.356   6.722  10.269 -0.5234 -0.0286  0.0996
    8SAPS   H9X 1035   6.389   6.776  10.360  0.3761  2.5006 -1.6278
    8SAPS   H9Y 1036   6.246   6.717  10.284 -0.0727 -2.2045  4.0850
    8SAPS  C310 1037   6.389   6.820  10.155  0.0774  0.5215  0.2516
    8SAPS  H10X 1038   6.336   6.915  10.178 -0.8269  0.7141 -2.2856
    8SAPS  H10Y 1039   6.352   6.773  10.061  2.2285 -1.2623  0.2207
    8SAPS  C311 1040   6.543   6.857  10.139 -0.5677 -0.0795  0.1450
    8SAPS  H11X 1041   6.602   6.781  10.083  0.8214  0.6448  0.5886
    8SAPS  H11Y 1042   6.585   6.877  10.240  1.1967 -1.5860 -0.2388
    8SAPS  C312 1043   6.552   6.985  10.065 -0.6376  0.7759  0.3744
    8SAPS  H12X 1044   6.520   7.068  10.132 -3.4153  2.3907 -2.6821
    8SAPS  H12Y 1045   6.484   6.986   9.978 -1.7147  1.6126  1.1966
    8SAPS  C313 1046   6.695   7.028  10.025 -0.2634  1.0440  0.7228
    8SAPS  H13X 1047   6.729   6.965   9.940 -1.9086 -1.0931  1.5732
    8SAPS  H13Y 1048   6.763   7.011  10.110  0.1065 -0.8094  0.1001
    8SAPS  C314 1049   6.709   7.177  10.007 -0.0798  0.4921 -0.2441
    8SAPS  H14X 1050   6.705   7.221  10.108 -1.6774 -0.9741  0.3909
    8SAPS  H14Y 1051   6.620   7.202   9.946 -0.3255  2.3936  0.8499
    8SAPS  C315 1052   6.831   7.228   9.927  0.3263 -0.0364 -0.2133
    8SAPS  H15X 1053   6.924   7.183   9.968  0.3138 -0.0276 -0.1747
    8SAPS  H15Y 1054   6.841   7.337   9.947  3.1041  0.1241 -1.9595
    8SAPS  C316 1055   6.829   7.201   9.776  0.0042 -0.4034  0.3693
    8SAPS  H16X 1056   6.736   7.155   9.737  0.1272 -2.9381  2.7694
    8SAPS  H16Y 1057   6.908   7.124   9.762 -0.6148 -0.8886 -0.5309
    8SAPS  C317 1058   6.874   7.322   9.692  0.1929  0.0888 -0.4406
    8SAPS  H17X 1059   6.978   7.339   9.725 -0.1474  1.7006 -0.1150
    8SAPS  H17Y 1060   6.814   7.410   9.723  2.2297  1.1081  0.8184
    8SAPS  C318 1061   6.853   7.299   9.544 -0.3697  0.8688 -0.7036
    8SAPS  H18X 1062   6.743   7.285   9.533  0.0729 -3.3389 -1.6624
    8SAPS  H18Y 1063   6.903   7.203   9.521 -2.9948 -1.1313  1.2201
    8SAPS  H18Z 1064   6.897   7.379   9.481  1.8784 -1.3008 -2.0796
    9SAPS     N 1065   2.370   2.246   6.360 -0.0849  0.2669 -0.2016
    9SAPS   HN1 1066   2.311   2.330   6.348  0.3274  0.4979 -0.6545
    9SAPS   HN2 1067   2.399   2.210   6.267  0.1875  0.4841 -0.2015
    9SAPS   HN3 1068   2.313   2.179   6.416  0.8767  0.7997  1.4875
    9SAPS   C12 1069   2.497   2.266   6.430  0.2533  0.1633  0.7339
    9SAPS  H12A 1070   2.475   2.302   6.529 -0.3247 -1.5369  1.2719
    9SAPS   C13 1071   2.584   2.147   6.461 -0.1209 -0.2662 -0.6258
    9SAPS  O13A 1072   2.553   2.024   6.437  0.0179  0.0927 -0.1961
    9SAPS  O13B 1073   2.700   2.170   6.509  0.0195 -0.4520  0.5605
    9SAPS   C11 1074   2.581   2.374   6.349 -0.5820  0.3846  0.5808
    9SAPS  H11A 1075   2.605   2.326   6.252  1.0811  0.4991  0.9043
    9SAPS  H11B 1076   2.685   2.384   6.388 -0.0577 -0.3434 -0.5649
    9SAPS     P 1077   2.551   2.621   6.416  0.0497  0.3829 -0.4293
    9SAPS   O13 1078   2.700   2.628   6.405  0.0992 -0.2947 -0.7204
    9SAPS   O14 1079   2.473   2.736   6.360  0.0231 -0.2830 -0.0323
    9SAPS   O12 1080   2.502   2.490   6.332  0.4255 -0.0451 -0.2331
    9SAPS   O11 1081   2.505   2.573   6.560  0.3005  0.1156  0.3994
    9SAPS    C1 1082   2.398   2.650   6.623  0.2645 -0.2676 -0.7083
    9SAPS    HA 1083   2.315   2.676   6.553  0.5649  0.6925 -0.7249
    9SAPS    HB 1084   2.343   2.585   6.695 -1.4724  0.5102 -1.2756
    9SAPS    C2 1085   2.462   2.774   6.692 -0.7933  0.3491 -0.3440
    9SAPS    HS 1086   2.499   2.847   6.617  0.5528  0.2764  0.2227
    9SAPS   O21 1087   2.571   2.718   6.764  0.3205  0.1231 -0.4715
    9SAPS   C21 1088   2.666   2.804   6.791 -1.0368  0.1984  0.2677
    9SAPS   O22 1089   2.663   2.923   6.757  0.1241 -0.2584  0.4894
    9SAPS   C22 1090   2.777   2.730   6.877 -0.2633  0.0107 -0.3666
    9SAPS   H2R 1091   2.738   2.629   6.900  2.2178 -1.1324 -0.9215
    9SAPS   H2S 1092   2.870   2.727   6.817  0.6383  1.0827  0.9266
    9SAPS    C3 1093   2.358   2.844   6.791  0.4508  0.3822 -0.5360
    9SAPS    HX 1094   2.270   2.852   6.724  0.3689  1.6596 -0.2925
    9SAPS    HY 1095   2.397   2.946   6.813  3.7255 -1.1563  1.5526
    9SAPS   O31 1096   2.321   2.764   6.903  0.1955 -0.1088 -0.6433
    9SAPS   C31 1097   2.385   2.800   7.026 -0.1757 -0.5430  0.4966
    9SAPS   O32 1098   2.458   2.896   7.037 -0.4848 -0.0595  1.1251
    9SAPS   C32 1099   2.323   2.710   7.132  0.3420 -0.0973  0.6164
    9SAPS   H2X 1100   2.337   2.604   7.101  2.0190 -0.7353  3.2096
    9SAPS   H2Y 1101   2.216   2.739   7.134  0.4423  0.2686  0.6695
    9SAPS   C23 1102   2.810   2.808   7.005  0.1384 -0.1124 -0.1221
    9SAPS   H3R 1103   2.720   2.851   7.053 -0.1122 -0.7904  0.0161
    9SAPS   H3S 1104   2.881   2.885   6.968 -0.0162  0.4822  0.7852
    9SAPS   C24 1105   2.879   2.723   7.115  0.3486 -0.4505  0.0067
    9SAPS   H4R 1106   2.907   2.790   7.198  1.4411 -1.7283  0.7128
    9SAPS   H4S 1107   2.969   2.675   7.071  1.5382  2.1648 -0.5918
    9SAPS   C25 1108   2.787   2.611   7.165  0.5003  0.6975  0.1839
    9SAPS   H5R 1109   2.739   2.554   7.083  0.4025  1.6052 -0.4145
    9SAPS   C26 1110   2.765   2.575   7.292 -0.1566 -0.0447  0.1060
    9SAPS   H6R 1111   2.704   2.488   7.321  0.0714 -0.6247 -1.0904
    9SAPS   C27 1112   2.833   2.630   7.414 -0.2259  0.2118  0.2750
    9SAPS   H7R 1113   2.941   2.613   7.393 -0.4190 -2.0537  0.9548
    9SAPS   H7S 1114   2.805   2.561   7.496  1.3377 -0.0300  0.6317
    9SAPS   C28 1115   2.802   2.764   7.481 -0.4268  0.8801  0.2130
    9SAPS   H8R 1116   2.717   2.816   7.434 -0.9452 -1.1680 -1.2254
    9SAPS   C29 1117   2.861   2.816   7.594  0.7075  0.2572 -1.0097
    9SAPS   H9R 1118   2.837   2.918   7.626  0.9877 -0.4236  1.6379
    9SAPS  C210 1119   2.981   2.749   7.662 -0.4630 -0.4091 -1.0059
    9SAPS  H10R 1120   3.074   2.804   7.637 -1.7185  2.2644 -0.2162
    9SAPS  H10S 1121   3.001   2.646   7.626  0.0618 -0.7184  0.1388
    9SAPS  C211 1122   2.963   2.750   7.814 -0.4438 -0.4297 -0.2979
    9SAPS  H11R 1123   2.960   2.847   7.865  3.0283 -1.4453  2.3076
    9SAPS  C212 1124   2.959   2.639   7.891 -0.9251 -0.6282  0.3050
    9SAPS  H12R 1125   2.951   2.656   8.000  1.2993 -0.8947  0.5678
    9SAPS  C213 1126   2.970   2.502   7.848  0.1253  0.4173 -0.3054
    9SAPS  H13R 1127   3.073   2.461   7.860  0.1161 -0.2709 -2.1940
    9SAPS  H13S 1128   2.944   2.491   7.740 -0.4188 -0.3562 -0.0992
    9SAPS  C214 1129   2.881   2.418   7.932 -0.3769  0.2901 -0.0097
    9SAPS  H14R 1130   2.772   2.422   7.915 -0.3879  1.1640  0.2413
    9SAPS  C215 1131   2.924   2.338   8.035 -0.1086  0.0729 -0.1495
    9SAPS  H15R 1132   2.837   2.298   8.089 -1.2541  0.2946 -1.7567
    9SAPS  C216 1133   3.059   2.322   8.100  0.2841  0.4437  0.2218
    9SAPS  H16R 1134   3.124   2.289   8.017 -0.6446 -1.7334  0.3068
    9SAPS  H16S 1135   3.055   2.246   8.181  1.6478  0.2359  0.1274
    9SAPS  C217 1136   3.125   2.442   8.167  0.2257 -0.4953 -0.0220
    9SAPS  H17R 1137   3.147   2.526   8.098 -0.7393  0.5409  0.8982
    9SAPS  H17S 1138   3.226   2.405   8.196 -0.7201 -0.9126  3.1062
    9SAPS  C218 1139   3.048   2.488   8.283  0.2421 -0.3707 -0.1816
    9SAPS  H18R 1140   3.041   2.399   8.349  0.9800  0.6532  1.3315
    9SAPS  H18S 1141   2.944   2.517   8.256 -0.3241 -1.0517  1.1956
    9SAPS  C219 1142   3.117   2.593   8.367 -0.7312  0.1480  0.1670
    9SAPS  H19R 1143   3.053   2.611   8.456 -3.0930 -3.6140 -0.5449
    9SAPS  H19S 1144   3.135   2.685   8.308  1.2718 -1.6783 -2.2813
    9SAPS  C220 1145   3.256   2.549   8.430  0.8383  1.2201 -0.6303
    9SAPS  H20R 1146   3.290   2.625   8.504 -3.0649  0.0372  2.7007
    9SAPS  H20S 1147   3.330   2.551   8.346 -0.1368  0.3019 -1.5339
    9SAPS  H20T 1148   3.254   2.450   8.479 -2.5308  0.5830 -1.8051
    9SAPS   C33 1149   2.390   2.727   7.274 -0.0552 -0.1300  0.6609
    9SAPS   H3X 1150   2.439   2.826   7.278 -0.1753 -0.0023 -0.6274
    9SAPS   H3Y 1151   2.479   2.664   7.296  0.0852  0.5896  2.3196
    9SAPS   C34 1152   2.296   2.687   7.391  0.4058 -0.0696 -0.0126
    9SAPS   H4X 1153   2.275   2.578   7.389  2.1038 -0.4109 -0.8756
    9SAPS   H4Y 1154   2.193   2.728   7.390 -0.4706 -2.1524 -0.5568
    9SAPS   C35 1155   2.351   2.706   7.529 -0.4548 -0.3672  0.2025
    9SAPS   H5X 1156   2.452   2.659   7.540  0.6892  0.9523 -3.3535
    9SAPS   H5Y 1157   2.288   2.658   7.607 -1.3572 -2.3768 -1.6738
    9SAPS   C36 1158   2.366   2.856   7.561 -0.1057  0.4286  0.5467
    9SAPS   H6X 1159   2.279   2.907   7.514  0.2743 -0.9479 -1.8156
    9SAPS   H6Y 1160   2.460   2.887   7.511 -0.2497 -1.0609 -0.7206
    9SAPS   C37 1161   2.385   2.886   7.711  0.1803  0.4464  0.5452
    9SAPS   H7X 1162   2.291   2.856   7.762 -0.3033 -0.6102 -0.9307
    9SAPS   H7Y 1163   2.391   2.997   7.709 -3.7300  0.8291  1.9735
    9SAPS   C38 1164   2.514   2.830   7.768  0.1099  0.6988  1.0303
    9SAPS   H8X 1165   2.593   2.858   7.695 -1.8898  3.3613 -0.2759
    9SAPS   H8Y 1166   2.515   2.718   7.766  2.1315  0.6843 -0.9281
    9SAPS   C39 1167   2.540   2.881   7.910 -0.2820  0.6392  0.7344
    9SAPS   H9X 1168   2.553   2.991   7.915 -0.6054  0.6460  1.6631
    9SAPS   H9Y 1169   2.631   2.834   7.953 -1.5503 -2.8027 -0.0436
    9SAPS  C310 1170   2.426   2.837   8.003 -0.0319 -0.5560 -0.5577
    9SAPS  H10X 1171   2.413   2.731   7.974  0.2545 -1.0137  0.9061
    9SAPS  H10Y 1172   2.333   2.888   7.968  0.9358  1.1580 -0.7286
    9SAPS  C311 1173   2.441   2.864   8.147 -0.4390  0.5375 -0.1628
    9SAPS  H11X 1174   2.343   2.846   8.198 -0.2473 -1.6837 -0.4783
    9SAPS  H11Y 1175   2.476   2.967   8.171  2.2667 -0.1423 -0.8884
    9SAPS  C312 1176   2.546   2.770   8.201 -0.6843  0.5659  0.2942
    9SAPS  H12X 1177   2.647   2.798   8.163 -0.3456  0.0260  0.7836
    9SAPS  H12Y 1178   2.532   2.668   8.160  0.0880  0.2751  0.7348
    9SAPS  C313 1179   2.551   2.768   8.355 -0.4635  0.1951  0.8497
    9SAPS  H13X 1180   2.447   2.794   8.385 -1.1987 -1.9720  0.3629
    9SAPS  H13Y 1181   2.621   2.842   8.399  1.3815 -1.6982  1.2737
    9SAPS  C314 1182   2.597   2.629   8.408  0.6085 -0.4299 -0.4721
    9SAPS  H14X 1183   2.698   2.615   8.365  1.0801  1.3910 -0.0570
    9SAPS  H14Y 1184   2.529   2.547   8.378  0.6452 -0.9595  0.7909
    9SAPS  C315 1185   2.591   2.632   8.563 -0.6250  0.3136 -0.1125
    9SAPS  H15X 1186   2.486   2.630   8.601 -0.8022 -0.1124 -0.6066
    9SAPS  H15Y 1187   2.639   2.725   8.599 -0.1361 -0.8557  2.4954
    9SAPS  C316 1188   2.659   2.510   8.628 -0.3083 -0.3501  0.0706
    9SAPS  H16X 1189   2.770   2.505   8.615 -0.6030 -0.6229 -2.7925
    9SAPS  H16Y 1190   2.614   2.417   8.587  0.6672 -1.4827  1.4550
    9SAPS  C317 1191   2.630   2.488   8.779  0.2229  0.0987  0.6160
    9SAPS  H17X 1192   2.673   2.574   8.834  2.9306  0.4176 -1.7385
    9SAPS  H17Y 1193   2.687   2.397   8.809  0.0743 -0.0404  0.4774
    9SAPS  C318 1194   2.481   2.488   8.823 -0.0854 -0.2221  0.7222
    9SAPS  H18X 1195   2.475   2.479   8.933  1.4345  2.0155  1.0569
    9SAPS  H18Y 1196   2.422   2.401   8.787  0.3403 -0.1392 -0.2156
    9SAPS  H18Z 1197   2.442   2.591   8.809  3.0160  1.0087  0.2223
   10SAPS     N 1198   2.594   1.792   6.323  0.0309  0.2782 -0.2975
   10SAPS   HN1 1199   2.491   1.776   6.314 -0.2240  0.1450  2.1209
   10SAPS   HN2 1200   2.618   1.736   6.408  1.6679  1.9944  0.4284
   10SAPS   HN3 1201   2.598   1.891   6.353 -1.0545  0.1978  0.1930
   10SAPS   C12 1202   2.670   1.747   6.203 -0.2526 -0.3705 -0.4125
   10SAPS  H12A 1203   2.647   1.643   6.182  0.3683 -0.7083  0.4855
   10SAPS   C13 1204   2.648   1.829   6.067 -0.8960  0.4787 -0.4003
   10SAPS  O13A 1205   2.577   1.928   6.072  0.1111 -0.6371  0.3595
   10SAPS  O13B 1206   2.699   1.790   5.962  0.7649  0.7243 -0.1427
   10SAPS   C11 1207   2.818   1.738   6.230 -0.0055 -0.4244 -0.3975
   10SAPS  H11A 1208   2.864   1.837   6.246  0.8502 -1.0702  1.4081
   10SAPS  H11B 1209   2.868   1.708   6.135 -1.5641 -2.8632 -0.5503
   10SAPS     P 1210   2.875   1.693   6.479  0.0830 -0.2581  0.1436
   10SAPS   O13 1211   2.742   1.729   6.540 -0.1153  0.3938  0.2696
   10SAPS   O14 1212   2.951   1.592   6.553 -0.2141  0.2494  0.2828
   10SAPS   O12 1213   2.857   1.646   6.334 -0.1669 -0.2137  0.5341
   10SAPS   O11 1214   2.961   1.828   6.461  0.1884  0.2828  0.1515
   10SAPS    C1 1215   3.084   1.849   6.536  0.4476  0.0269  0.2009
   10SAPS    HA 1216   3.146   1.757   6.544 -0.9141 -0.8695  0.9231
   10SAPS    HB 1217   3.135   1.935   6.489 -1.3041  2.3785  2.2976
   10SAPS    C2 1218   3.056   1.907   6.682 -0.0968  0.4167  0.2115
   10SAPS    HS 1219   3.157   1.915   6.727 -1.2945 -1.1160  3.5644
   10SAPS   O21 1220   2.983   1.813   6.763 -0.0630 -0.2533  0.0781
   10SAPS   C21 1221   3.053   1.708   6.807 -0.1054 -0.3569  0.7337
   10SAPS   O22 1222   3.172   1.701   6.802 -0.0279  0.5496  1.0832
   10SAPS   C22 1223   2.958   1.604   6.871 -0.4691  0.6982  0.3768
   10SAPS   H2R 1224   2.893   1.568   6.788 -0.2434  2.2349 -0.5125
   10SAPS   H2S 1225   3.024   1.529   6.919  0.6589  0.0344 -2.0468
   10SAPS    C3 1226   2.996   2.053   6.677 -0.4509  0.4801 -0.0438
   10SAPS    HX 1227   2.893   2.052   6.635 -0.7506  0.3743  0.6728
   10SAPS    HY 1228   3.076   2.103   6.618  1.5065 -0.3153  1.8085
   10SAPS   O31 1229   3.001   2.114   6.807  0.8533  0.4184 -0.0219
   10SAPS   C31 1230   2.900   2.091   6.890  0.8406  0.4291 -1.6089
   10SAPS   O32 1231   2.806   2.015   6.863 -0.1414 -0.3536 -0.1260
   10SAPS   C32 1232   2.911   2.175   7.016  0.1496 -0.3723  0.1676
   10SAPS   H2X 1233   2.849   2.266   7.004  0.1320 -0.6075 -1.8496
   10SAPS   H2Y 1234   3.012   2.222   7.020 -0.7670  1.7380 -0.3703
   10SAPS   C23 1235   2.868   1.668   6.980 -0.2904  0.6210  0.2122
   10SAPS   H3R 1236   2.801   1.588   7.020 -0.1651  0.7348  0.6486
   10SAPS   H3S 1237   2.809   1.730   6.909 -0.5671 -1.0470 -1.1004
   10SAPS   C24 1238   2.930   1.748   7.096 -0.6652 -0.9946  0.8816
   10SAPS   H4R 1239   2.853   1.791   7.163 -1.6281 -1.2098 -0.0527
   10SAPS   H4S 1240   2.986   1.829   7.044  0.0016 -2.5799 -1.0058
   10SAPS   C25 1241   3.038   1.681   7.172 -0.0436 -0.4317  0.6636
   10SAPS   H5R 1242   3.108   1.621   7.111  3.2805  2.4714  1.3126
   10SAPS   C26 1243   3.057   1.695   7.306 -0.0576  0.3388  0.2444
   10SAPS   H6R 1244   3.135   1.641   7.361 -0.9260 -1.3764 -0.1479
   10SAPS   C27 1245   2.960   1.774   7.392  0.0651 -0.2863 -0.3384
   10SAPS   H7R 1246   2.855   1.737   7.389 -1.0059  2.5578 -0.5877
   10SAPS   H7S 1247   2.963   1.878   7.354 -0.5009  0.0770  0.5883
   10SAPS   C28 1248   3.003   1.776   7.540  0.3808  0.8234  0.6346
   10SAPS   H8R 1249   3.042   1.871   7.580  0.4694  0.7391  0.7502
   10SAPS   C29 1250   2.982   1.672   7.626  0.2330  0.8944 -1.2232
   10SAPS   H9R 1251   3.012   1.682   7.731  0.6864  0.8893 -1.3502
   10SAPS  C210 1252   2.933   1.540   7.587 -0.3269  0.5818  0.0038
   10SAPS  H10R 1253   3.007   1.458   7.597 -1.0986 -0.1049  0.2105
   10SAPS  H10S 1254   2.911   1.527   7.479  0.1708 -3.7283  0.2620
   10SAPS  C211 1255   2.812   1.524   7.664  0.4570  0.9212 -0.5571
   10SAPS  H11R 1256   2.734   1.589   7.623 -0.3920 -1.1665 -2.4391
   10SAPS  C212 1257   2.786   1.442   7.775  0.5531 -0.5380 -0.2042
   10SAPS  H12R 1258   2.687   1.440   7.822 -0.5134  2.9008 -1.9605
   10SAPS  C213 1259   2.877   1.345   7.838  0.0667  0.2771 -0.3362
   10SAPS  H13R 1260   2.959   1.302   7.777  1.7378  1.5672  0.8861
   10SAPS  H13S 1261   2.809   1.260   7.859  0.0055  0.7957  1.8071
   10SAPS  C214 1262   2.948   1.386   7.965  0.0904 -1.1196 -1.1044
   10SAPS  H14R 1263   3.008   1.476   7.947 -1.9451  0.6959  0.7713
   10SAPS  C215 1264   2.959   1.318   8.078 -1.0713  0.6179 -0.2775
   10SAPS  H15R 1265   3.027   1.351   8.158 -1.4804  1.1475 -0.1449
   10SAPS  C216 1266   2.902   1.184   8.108 -0.2788 -0.0555 -0.4703
   10SAPS  H16R 1267   2.949   1.106   8.043 -2.2326 -2.0217  0.3449
   10SAPS  H16S 1268   2.792   1.186   8.088 -0.7074  0.0019  1.6930
   10SAPS  C217 1269   2.927   1.140   8.258 -0.2679 -1.1536  0.5773
   10SAPS  H17R 1270   2.906   1.229   8.321  1.4360 -0.9206  0.8490
   10SAPS  H17S 1271   3.034   1.119   8.280  0.3887  2.4478  1.4953
   10SAPS  C218 1272   2.852   1.014   8.293  0.1211 -0.1003  0.6451
   10SAPS  H18R 1273   2.866   0.948   8.205 -0.2104 -0.0296  0.5394
   10SAPS  H18S 1274   2.742   1.023   8.295  0.1980  1.0402  0.1021
   10SAPS  C219 1275   2.885   0.947   8.427 -0.6573 -0.3482 -0.3561
   10SAPS  H19R 1276   2.994   0.928   8.426 -0.1355  2.3057 -0.5857
   10SAPS  H19S 1277   2.828   0.852   8.437  0.2204 -0.7765  0.7108
   10SAPS  C220 1278   2.847   1.036   8.548 -0.2694 -0.3020 -0.0746
   10SAPS  H20R 1279   2.888   1.139   8.535 -0.5122 -0.2061 -0.0829
   10SAPS  H20S 1280   2.891   0.998   8.642 -0.2306 -1.3136 -0.4903
   10SAPS  H20T 1281   2.737   1.050   8.552 -0.4836 -0.1516 -3.5563
   10SAPS   C33 1282   2.873   2.112   7.150  0.5972  0.3970 -0.8283
   10SAPS   H3X 1283   2.945   2.037   7.190 -2.1319 -0.6911  2.5861
   10SAPS   H3Y 1284   2.773   2.062   7.152  0.7457 -0.2233 -4.0841
   10SAPS   C34 1285   2.882   2.218   7.262 -0.2239 -0.4686 -0.5709
   10SAPS   H4X 1286   2.798   2.288   7.247  0.7799  0.3881 -2.5257
   10SAPS   H4Y 1287   2.970   2.283   7.245 -0.4893 -0.0604 -0.3956
   10SAPS   C35 1288   2.887   2.162   7.405 -0.1157 -0.6979  0.2027
   10SAPS   H5X 1289   2.938   2.063   7.405 -0.0634 -0.6717 -0.1720
   10SAPS   H5Y 1290   2.782   2.143   7.436 -0.0649  0.6892  1.3364
   10SAPS   C36 1291   2.952   2.251   7.514  0.5537  0.3795  0.2092
   10SAPS   H6X 1292   2.887   2.340   7.531 -0.0187  0.3814 -1.7514
   10SAPS   H6Y 1293   3.049   2.287   7.474  1.2920 -0.2540  1.3748
   10SAPS   C37 1294   2.981   2.178   7.648 -0.4170 -0.6667  0.5476
   10SAPS   H7X 1295   3.025   2.244   7.726  1.5422 -0.3309 -0.7678
   10SAPS   H7Y 1296   3.067   2.110   7.633  0.6200 -0.6157  4.8100
   10SAPS   C38 1297   2.864   2.092   7.704 -0.4938 -0.0760 -0.3628
   10SAPS   H8X 1298   2.827   2.022   7.626 -0.1569  0.2004 -0.7819
   10SAPS   H8Y 1299   2.778   2.158   7.727 -0.2624  0.7723 -1.7457
   10SAPS   C39 1300   2.908   2.003   7.822 -0.7963 -0.6059  0.3093
   10SAPS   H9X 1301   2.934   2.078   7.900  1.9793 -0.0527 -1.0413
   10SAPS   H9Y 1302   2.999   1.950   7.790 -1.8673 -2.8927  0.8319
   10SAPS  C310 1303   2.799   1.898   7.861  1.2352  0.3293  0.6440
   10SAPS  H10X 1304   2.786   1.825   7.778 -0.7584  0.1791  1.0351
   10SAPS  H10Y 1305   2.699   1.947   7.868  0.9796  0.0435 -0.6584
   10SAPS  C311 1306   2.820   1.829   7.990 -0.1289  0.3431  0.2913
   10SAPS  H11X 1307   2.847   1.906   8.066  0.6461 -0.1095  0.4837
   10SAPS  H11Y 1308   2.913   1.773   7.967  0.0171  1.5302 -2.3842
   10SAPS  C312 1309   2.709   1.743   8.046  0.3219  0.2240  0.1378
   10SAPS  H12X 1310   2.670   1.680   7.963  1.0395  2.1959 -1.8307
   10SAPS  H12Y 1311   2.630   1.816   8.077  2.1614  1.6377  1.7277
   10SAPS  C313 1312   2.746   1.658   8.165  0.2208 -0.1485 -0.2686
   10SAPS  H13X 1313   2.789   1.566   8.120  1.3350 -0.3688  1.1610
   10SAPS  H13Y 1314   2.647   1.621   8.202 -0.5175  1.2244 -0.7954
   10SAPS  C314 1315   2.821   1.730   8.275  0.6530 -0.1447  0.4221
   10SAPS  H14X 1316   2.757   1.808   8.320  0.9476 -0.5812  1.6356
   10SAPS  H14Y 1317   2.909   1.783   8.233  1.0005 -0.3362  0.9070
   10SAPS  C315 1318   2.861   1.637   8.391 -0.0778 -0.0360  0.1857
   10SAPS  H15X 1319   2.951   1.584   8.353 -0.2682 -0.6004  0.5021
   10SAPS  H15Y 1320   2.773   1.569   8.394 -1.6512  1.8734 -0.2146
   10SAPS  C316 1321   2.883   1.710   8.523 -0.4435  0.3894 -0.0285
   10SAPS  H16X 1322   2.807   1.782   8.560  1.3339  1.1430  2.4340
   10SAPS  H16Y 1323   2.980   1.760   8.502  0.0178 -0.4458  0.0444
   10SAPS  C317 1324   2.920   1.617   8.638  0.1006  0.7595  0.6855
   10SAPS  H17X 1325   3.005   1.560   8.595  1.4831  3.8324 -1.0501
   10SAPS  H17Y 1326   2.836   1.551   8.667  0.4475 -0.1933 -0.4362
   10SAPS  C318 1327   2.959   1.699   8.765  0.1279  0.2003  0.7929
   10SAPS  H18X 1328   3.054   1.752   8.743 -0.4315 -0.1038 -3.1968
   10SAPS  H18Y 1329   2.983   1.631   8.849 -0.5131 -0.6595  0.3050
   10SAPS  H18Z 1330   2.875   1.770   8.783  0.1932  0.3464  0.5318
   11SAPS     N 1331   4.354   5.234   5.770 -0.7515 -0.1693 -0.1898
   11SAPS   HN1 1332   4.301   5.149   5.798 -0.9366  0.6861  2.3381
   11SAPS   HN2 1333   4.292   5.292   5.709 -0.6272  2.2217  1.8074
   11SAPS   HN3 1334   4.431   5.211   5.704  2.8949 -0.0411  3.6110
   11SAPS   C12 1335   4.384   5.311   5.893 -0.8221  0.0732 -0.4159
   11SAPS  H12A 1336   4.416   5.411   5.867  1.0277  0.0807  1.6501
   11SAPS   C13 1337   4.263   5.335   5.987  0.8353 -0.2465 -0.1738
   11SAPS  O13A 1338   4.145   5.314   5.950  0.0785 -0.2026  0.1422
   11SAPS  O13B 1339   4.275   5.422   6.078 -0.4549  0.2936  0.2279
   11SAPS   C11 1340   4.509   5.251   5.963 -0.2256  0.6805 -0.0326
   11SAPS  H11A 1341   4.473   5.178   6.038 -0.0746  1.3253  0.6734
   11SAPS  H11B 1342   4.559   5.328   6.025  1.2562  0.3379 -0.7461
   11SAPS     P 1343   4.761   5.233   5.860 -0.1095  0.2812  0.0293
   11SAPS   O13 1344   4.855   5.114   5.860  0.0896 -0.0082 -0.1919
   11SAPS   O14 1345   4.758   5.316   5.739 -0.0288 -0.0717 -0.4294
   11SAPS   O12 1346   4.607   5.194   5.870  0.0767  0.1331 -0.1681
   11SAPS   O11 1347   4.798   5.322   5.985  0.4768 -0.0836 -0.3996
   11SAPS    C1 1348   4.884   5.272   6.088 -0.8862 -0.0120 -0.4338
   11SAPS    HA 1349   4.983   5.238   6.050 -0.5440  1.9687 -1.4055
   11SAPS    HB 1350   4.909   5.363   6.145  0.8192  0.3895 -1.7309
   11SAPS    C2 1351   4.808   5.183   6.187 -0.1881  0.3666 -0.1117
   11SAPS    HS 1352   4.776   5.091   6.135 -0.9416 -0.2701  1.4163
   11SAPS   O21 1353   4.697   5.260   6.234 -0.2091  0.3050 -0.5038
   11SAPS   C21 1354   4.609   5.180   6.293  0.4562  0.2020  0.0335
   11SAPS   O22 1355   4.616   5.059   6.311 -0.2335  0.1608  0.0886
   11SAPS   C22 1356   4.508   5.270   6.356  0.0520 -0.7023 -0.0099
   11SAPS   H2R 1357   4.555   5.366   6.387  0.9038 -1.0856 -0.1024
   11SAPS   H2S 1358   4.430   5.309   6.286  1.7419  1.2697 -0.8991
   11SAPS    C3 1359   4.912   5.133   6.301  0.3522  0.0821  0.9909
   11SAPS    HX 1360   5.014   5.102   6.268  0.5308  0.6423  0.9966
   11SAPS    HY 1361   4.882   5.037   6.347  1.6662  0.6751  3.2288
   11SAPS   O31 1362   4.924   5.239   6.396  0.4044 -0.1404  0.1914
   11SAPS   C31 1363   4.947   5.211   6.520 -0.4468 -0.2360 -0.2387
   11SAPS   O32 1364   4.983   5.104   6.567 -0.2641 -0.3162  0.1394
   11SAPS   C32 1365   4.911   5.344   6.593 -0.2765 -0.6306  0.8390
   11SAPS   H2X 1366   4.801   5.355   6.589 -0.2546 -0.2916  1.1336
   11SAPS   H2Y 1367   4.962   5.421   6.531  0.6222 -2.7065 -1.1741
   11SAPS   C23 1368   4.436   5.229   6.484 -0.1235  0.3357  0.4991
   11SAPS   H3R 1369   4.372   5.141   6.461 -0.8457  1.2261 -1.0894
   11SAPS   H3S 1370   4.367   5.310   6.516 -0.9268 -0.3889  0.6020
   11SAPS   C24 1371   4.531   5.210   6.605  0.2384 -0.1422 -0.0265
   11SAPS   H4R 1372   4.466   5.242   6.689  0.2517 -1.2539  0.4268
   11SAPS   H4S 1373   4.610   5.288   6.596  0.4262 -0.3330 -0.0519
   11SAPS   C25 1374   4.580   5.069   6.631 -0.2820 -0.3096 -0.3757
   11SAPS   H5R 1375   4.611   5.015   6.540  1.1970  1.5295 -1.0272
   11SAPS   C26 1376   4.581   5.016   6.757  0.2440  0.0532 -0.3191
   11SAPS   H6R 1377   4.613   4.913   6.773 -0.6458 -0.1335  0.3781
   11SAPS   C27 1378   4.542   5.082   6.888  0.3396  0.3104  0.1963
   11SAPS   H7R 1379   4.549   5.192   6.876 -0.8430  0.4506  0.6679
   11SAPS   H7S 1380   4.605   5.056   6.975 -0.2115  2.3020  1.2605
   11SAPS   C28 1381   4.399   5.048   6.925 -0.0279  0.1156 -0.5172
   11SAPS   H8R 1382   4.334   5.042   6.836 -0.2486 -0.9932 -0.2917
   11SAPS   C29 1383   4.341   5.054   7.051  0.7137  0.3067 -0.1499
   11SAPS   H9R 1384   4.234   5.031   7.043  0.8026  0.0949 -0.8290
   11SAPS  C210 1385   4.417   5.070   7.176  0.2015 -0.5166 -0.2601
   11SAPS  H10R 1386   4.508   5.005   7.177  0.2252 -0.5354  2.2074
   11SAPS  H10S 1387   4.344   5.031   7.250 -2.6004 -0.3914 -2.7746
   11SAPS  C211 1388   4.454   5.212   7.199 -0.8804 -0.1652  0.0056
   11SAPS  H11R 1389   4.465   5.272   7.108 -0.9721 -1.0671 -0.6122
   11SAPS  C212 1390   4.486   5.272   7.309  0.4934  0.1732  0.0876
   11SAPS  H12R 1391   4.496   5.382   7.309 -1.9133  0.5824 -3.7521
   11SAPS  C213 1392   4.488   5.207   7.446 -0.3842  0.2229 -0.7928
   11SAPS  H13R 1393   4.573   5.242   7.508  0.8909 -0.4817 -2.0789
   11SAPS  H13S 1394   4.516   5.102   7.424 -0.6829  0.3653 -1.9538
   11SAPS  C214 1395   4.357   5.198   7.519 -0.3116 -0.0725  0.0762
   11SAPS  H14R 1396   4.268   5.165   7.464  0.2402 -0.3028 -0.6917
   11SAPS  C215 1397   4.336   5.214   7.653  0.4697  0.7612  0.9784
   11SAPS  H15R 1398   4.234   5.210   7.694 -0.0122 -1.4736 -0.2783
   11SAPS  C216 1399   4.436   5.249   7.762 -0.1349 -0.8361 -0.2151
   11SAPS  H16R 1400   4.403   5.337   7.822  1.1865  0.3505 -1.1584
   11SAPS  H16S 1401   4.531   5.274   7.711  0.2623 -3.0800 -0.6706
   11SAPS  C217 1402   4.492   5.147   7.862  0.1209  0.3546  0.2501
   11SAPS  H17R 1403   4.553   5.204   7.935  1.9577 -0.5596 -0.5159
   11SAPS  H17S 1404   4.560   5.080   7.805 -0.1555  1.1090 -0.9920
   11SAPS  C218 1405   4.390   5.074   7.953  0.0870 -0.5079  0.7549
   11SAPS  H18R 1406   4.315   5.018   7.893 -0.7681  1.2902  0.0937
   11SAPS  H18S 1407   4.325   5.147   8.005  0.5621 -1.3215  2.6149
   11SAPS  C219 1408   4.451   4.984   8.062 -0.4876 -0.9160  0.1386
   11SAPS  H19R 1409   4.561   4.990   8.049 -0.6444  1.3316 -0.5485
   11SAPS  H19S 1410   4.425   4.879   8.035  0.1817 -0.7086 -1.4179
   11SAPS  C220 1411   4.410   5.021   8.206  0.7625 -0.3207 -0.1523
   11SAPS  H20R 1412   4.448   4.955   8.287  0.0824  0.6047  0.9431
   11SAPS  H20S 1413   4.300   5.021   8.215  0.6726  0.2662 -1.1216
   11SAPS  H20T 1414   4.430   5.127   8.231 -0.3176 -0.4545  1.3796
   11SAPS   C33 1415   4.958   5.352   6.743  0.4743 -0.6133 -0.0979
   11SAPS   H3X 1416   4.929   5.455   6.775  1.3340 -0.0953 -0.9506
   11SAPS   H3Y 1417   5.068   5.351   6.733  0.2904  0.6060 -3.6627
   11SAPS   C34 1418   4.896   5.255   6.847 -0.4949  0.6749 -0.7011
   11SAPS   H4X 1419   4.921   5.159   6.798 -0.1198  1.7672 -2.7694
   11SAPS   H4Y 1420   4.788   5.276   6.863 -0.5886 -1.4777  2.4680
   11SAPS   C35 1421   4.960   5.265   6.993  0.3142 -0.1484  0.4653
   11SAPS   H5X 1422   4.927   5.356   7.047  2.7168  1.8503 -1.2156
   11SAPS   H5Y 1423   5.070   5.272   6.981  0.4335  0.3758  1.7501
   11SAPS   C36 1424   4.920   5.147   7.085 -0.4884  0.1606 -0.5436
   11SAPS   H6X 1425   4.961   5.049   7.053  0.2615  0.0494  0.6880
   11SAPS   H6Y 1426   4.809   5.137   7.083 -0.7038  1.6619  0.8041
   11SAPS   C37 1427   4.973   5.154   7.226  0.1724  0.7061 -0.0667
   11SAPS   H7X 1428   5.080   5.183   7.234  0.0831  0.7026  1.2623
   11SAPS   H7Y 1429   4.959   5.051   7.264 -1.0972  1.2086  0.8880
   11SAPS   C38 1430   4.892   5.248   7.318 -0.0898 -0.4038  0.1564
   11SAPS   H8X 1431   4.784   5.227   7.307  0.3446 -2.6904 -0.4112
   11SAPS   H8Y 1432   4.897   5.356   7.292 -1.9991 -0.5055 -0.8120
   11SAPS   C39 1433   4.923   5.215   7.463 -0.2027  0.1023 -0.3177
   11SAPS   H9X 1434   5.033   5.202   7.473 -0.2718 -0.9542 -0.8037
   11SAPS   H9Y 1435   4.878   5.118   7.492  2.2891 -0.9199  0.3753
   11SAPS  C310 1436   4.875   5.321   7.566  0.1390 -0.3611 -0.9338
   11SAPS  H10X 1437   4.768   5.345   7.557 -0.5064 -3.2123 -2.0488
   11SAPS  H10Y 1438   4.927   5.419   7.557  1.3361 -0.9603 -0.8485
   11SAPS  C311 1439   4.898   5.269   7.710  0.4350 -0.4287 -0.8979
   11SAPS  H11X 1440   5.004   5.234   7.713  0.5716  0.0082  1.2568
   11SAPS  H11Y 1441   4.830   5.186   7.739  1.1835 -0.8031 -0.1682
   11SAPS  C312 1442   4.894   5.388   7.807 -0.3087  0.3090 -0.2043
   11SAPS  H12X 1443   4.801   5.448   7.803 -0.1795  0.5276  0.0416
   11SAPS  H12Y 1444   4.965   5.460   7.763  0.8778  0.1346  1.3363
   11SAPS  C313 1445   4.935   5.344   7.948  0.4080 -0.0883  0.7477
   11SAPS  H13X 1446   4.931   5.429   8.020  0.3110 -1.0230  1.8839
   11SAPS  H13Y 1447   5.037   5.300   7.950 -0.0379 -1.1419  1.2579
   11SAPS  C314 1448   4.840   5.249   8.016  0.3212  0.1633 -0.0863
   11SAPS  H14X 1449   4.828   5.154   7.960  0.1148 -0.7228  1.4057
   11SAPS  H14Y 1450   4.737   5.291   8.018  0.4108  0.5807 -2.2880
   11SAPS  C315 1451   4.883   5.220   8.157  0.1053  0.4009  0.7601
   11SAPS  H15X 1452   4.935   5.302   8.210  0.6013 -0.0018  0.9042
   11SAPS  H15Y 1453   4.952   5.133   8.154 -0.6340 -0.1789 -1.0421
   11SAPS  C316 1454   4.759   5.183   8.242 -0.0611  0.1819  0.3306
   11SAPS  H16X 1455   4.700   5.111   8.181 -3.2107  1.6593  1.4315
   11SAPS  H16Y 1456   4.711   5.279   8.269 -0.7131 -0.2046  0.5871
   11SAPS  C317 1457   4.790   5.101   8.369  0.2088  0.0002  0.6175
   11SAPS  H17X 1458   4.864   5.158   8.430  1.3484  0.7211 -1.3659
   11SAPS  H17Y 1459   4.843   5.006   8.349 -1.0461 -0.9158  1.4766
   11SAPS  C318 1460   4.672   5.060   8.450  0.3040 -0.4261 -0.3838
   11SAPS  H18X 1461   4.607   4.977   8.414 -2.8051  0.6014  2.3803
   11SAPS  H18Y 1462   4.599   5.141   8.467  0.4909  0.2446 -2.4324
   11SAPS  H18Z 1463   4.713   5.033   8.549 -2.1934 -3.3256 -0.0099
   12SAPS     N 1464   4.395   5.831   5.968  0.0218  0.2487 -0.2129
   12SAPS   HN1 1465   4.354   5.792   5.881  0.7009 -2.2206  0.4924
   12SAPS   HN2 1466   4.425   5.749   6.023 -1.9953 -0.3742  0.0152
   12SAPS   HN3 1467   4.310   5.873   6.011 -1.8880 -1.3461 -2.1818
   12SAPS   C12 1468   4.490   5.941   5.935  0.2006 -1.2160  0.2010
   12SAPS  H12A 1469   4.593   5.915   5.918  1.0667  2.3425 -0.8722
   12SAPS   C13 1470   4.454   6.032   5.817  0.1212  0.4525 -0.0131
   12SAPS  O13A 1471   4.371   6.001   5.726  0.2659  0.6273  0.3662
   12SAPS  O13B 1472   4.544   6.113   5.791 -0.6993 -0.0629  0.3777
   12SAPS   C11 1473   4.489   6.036   6.060 -0.5963 -0.0215  0.2322
   12SAPS  H11A 1474   4.572   6.099   6.022  0.7958 -2.1245 -0.3962
   12SAPS  H11B 1475   4.528   5.984   6.150  1.1199  2.0250  0.7556
   12SAPS     P 1476   4.245   6.092   6.148 -0.0322 -0.3176 -0.1341
   12SAPS   O13 1477   4.148   6.196   6.109 -0.1182  1.0827  0.8816
   12SAPS   O14 1478   4.206   5.951   6.117 -0.0775  0.2832 -0.6071
   12SAPS   O12 1479   4.383   6.117   6.081 -0.1156 -0.5940 -0.4219
   12SAPS   O11 1480   4.264   6.111   6.300  0.4025 -0.4833 -0.3079
   12SAPS    C1 1481   4.261   6.244   6.367 -0.1298  0.7310  0.0897
   12SAPS    HA 1482   4.189   6.311   6.317  0.7909  2.7833  1.4004
   12SAPS    HB 1483   4.219   6.238   6.470 -0.0125 -2.6410  0.0690
   12SAPS    C2 1484   4.398   6.306   6.367  0.0017  0.0512 -0.3207
   12SAPS    HS 1485   4.434   6.315   6.262 -0.4192 -1.6865 -0.6560
   12SAPS   O21 1486   4.492   6.219   6.429 -0.2151 -0.0175 -0.0070
   12SAPS   C21 1487   4.616   6.250   6.430  0.0923 -0.3653 -0.0400
   12SAPS   O22 1488   4.675   6.345   6.383 -0.3702  0.3974 -0.3455
   12SAPS   C22 1489   4.680   6.144   6.522 -0.3518  0.0504  0.5604
   12SAPS   H2R 1490   4.599   6.115   6.592 -0.6893  0.8425  0.5060
   12SAPS   H2S 1491   4.709   6.055   6.462 -2.8206 -1.6321  1.6995
   12SAPS    C3 1492   4.397   6.453   6.433  0.2955 -0.0829  0.5390
   12SAPS    HX 1493   4.316   6.508   6.383  0.3489  1.2928  1.9036
   12SAPS    HY 1494   4.496   6.500   6.413  0.3653 -0.0094  1.0370
   12SAPS   O31 1495   4.359   6.447   6.570 -0.2964  0.0673  0.2490
   12SAPS   C31 1496   4.450   6.468   6.656 -0.1779 -0.2107  0.0340
   12SAPS   O32 1497   4.571   6.478   6.636 -0.0741  0.2440 -0.5606
   12SAPS   C32 1498   4.385   6.483   6.792  0.4184 -0.3460 -0.2474
   12SAPS   H2X 1499   4.349   6.382   6.823 -2.0553  0.4342 -0.3684
   12SAPS   H2Y 1500   4.297   6.551   6.786  1.4492  1.0635  0.2572
   12SAPS   C23 1501   4.800   6.192   6.613 -0.4067  0.0171 -0.2690
   12SAPS   H3R 1502   4.774   6.286   6.665  0.1653 -0.6305  1.2344
   12SAPS   H3S 1503   4.883   6.221   6.545  0.3841 -1.9973 -0.2461
   12SAPS   C24 1504   4.824   6.077   6.713  0.4332  0.1620  0.0047
   12SAPS   H4R 1505   4.836   5.988   6.647  1.4053  0.7497 -0.6397
   12SAPS   H4S 1506   4.731   6.050   6.767  0.5446 -1.0603 -0.3767
   12SAPS   C25 1507   4.937   6.101   6.810  0.2632  0.3412 -0.4077
   12SAPS   H5R 1508   5.035   6.075   6.768  0.1590  1.6937 -1.5592
   12SAPS   C26 1509   4.922   6.124   6.938  0.0496  0.1054 -0.1660
   12SAPS   H6R 1510   5.015   6.125   6.998  1.9718  1.1309 -2.9240
   12SAPS   C27 1511   4.789   6.152   6.998 -0.4521  0.2755  0.0654
   12SAPS   H7R 1512   4.707   6.175   6.926  1.5380  2.0981 -1.7554
   12SAPS   H7S 1513   4.800   6.246   7.056  0.0020 -0.2634  0.8742
   12SAPS   C28 1514   4.723   6.040   7.072 -0.2308 -0.1346  0.5991
   12SAPS   H8R 1515   4.647   5.992   7.009  0.4630  1.4487 -1.5903
   12SAPS   C29 1516   4.747   6.004   7.194  0.4272  0.3349 -0.3317
   12SAPS   H9R 1517   4.675   5.931   7.234  2.4496 -1.7841 -0.3470
   12SAPS  C210 1518   4.847   6.056   7.292  0.0432  0.1640 -0.5065
   12SAPS  H10R 1519   4.791   6.122   7.362  0.3460 -1.0380  0.9298
   12SAPS  H10S 1520   4.934   6.104   7.242  0.1663  0.8749  0.3729
   12SAPS  C211 1521   4.888   5.939   7.380 -0.2632  0.5195  0.0068
   12SAPS  H11R 1522   4.895   5.844   7.326  3.0466  0.6365  0.0177
   12SAPS  C212 1523   4.926   5.924   7.503 -0.1125  0.0561 -0.3227
   12SAPS  H12R 1524   4.942   5.821   7.538 -1.0334 -0.8262 -2.3199
   12SAPS  C213 1525   4.918   6.040   7.604 -0.6219 -0.5320  0.4273
   12SAPS  H13R 1526   4.861   6.012   7.695 -1.0165 -0.5726  0.1735
   12SAPS  H13S 1527   4.866   6.130   7.563  1.9479  0.1220 -1.6879
   12SAPS  C214 1528   5.056   6.066   7.645 -0.2340  0.8228 -0.0563
   12SAPS  H14R 1529   5.111   6.149   7.598 -1.1926  2.2952  1.3304
   12SAPS  C215 1530   5.129   5.985   7.724  0.0450 -0.2665  0.3024
   12SAPS  H15R 1531   5.229   6.022   7.754 -0.1830  1.1232 -0.5334
   12SAPS  C216 1532   5.078   5.863   7.790 -0.5994 -0.4539 -0.1997
   12SAPS  H16R 1533   4.984   5.832   7.738  0.8343 -0.1348 -3.2220
   12SAPS  H16S 1534   5.050   5.899   7.891 -1.2270  1.8223 -1.1186
   12SAPS  C217 1535   5.178   5.746   7.782 -0.5767  0.3095 -0.4552
   12SAPS  H17R 1536   5.188   5.698   7.682 -0.4626  0.1882 -0.3858
   12SAPS  H17S 1537   5.128   5.666   7.841 -1.1960  2.3938  2.0185
   12SAPS  C218 1538   5.312   5.779   7.858  0.3932 -0.5143  1.2553
   12SAPS  H18R 1539   5.301   5.811   7.963  0.0612 -0.7885  1.3056
   12SAPS  H18S 1540   5.372   5.847   7.794 -2.6994  0.5712 -0.7450
   12SAPS  C219 1541   5.399   5.655   7.902  0.2663 -0.6337  0.6183
   12SAPS  H19R 1542   5.336   5.573   7.942 -1.7761  0.4526 -0.2137
   12SAPS  H19S 1543   5.476   5.691   7.974 -0.0851 -0.3097  0.8363
   12SAPS  C220 1544   5.478   5.584   7.786 -0.0164 -0.2934  0.6513
   12SAPS  H20R 1545   5.399   5.568   7.709  0.1668 -2.4510  0.8705
   12SAPS  H20S 1546   5.520   5.485   7.814  4.4586  0.6280 -1.8404
   12SAPS  H20T 1547   5.562   5.648   7.752 -0.0898 -1.2176 -1.4500
   12SAPS   C33 1548   4.487   6.533   6.905  0.2426  0.9834 -0.2640
   12SAPS   H3X 1549   4.528   6.634   6.881  0.2563  1.1689  0.4953
   12SAPS   H3Y 1550   4.575   6.466   6.907 -0.7933 -0.4104 -0.0700
   12SAPS   C34 1551   4.409   6.547   7.044  0.1055  0.0411 -0.2650
   12SAPS   H4X 1552   4.354   6.450   7.052 -0.6510  0.5846  1.6826
   12SAPS   H4Y 1553   4.337   6.629   7.026  1.0287  0.7843 -0.6371
   12SAPS   C35 1554   4.506   6.579   7.155  0.2463 -0.1930 -0.0927
   12SAPS   H5X 1555   4.443   6.592   7.246  0.6282  0.9414  0.0290
   12SAPS   H5Y 1556   4.557   6.673   7.125  0.8597 -0.1126  1.1448
   12SAPS   C36 1557   4.606   6.467   7.191 -0.4014 -0.6064  0.2922
   12SAPS   H6X 1558   4.686   6.465   7.113  0.5696  0.7853  1.2069
   12SAPS   H6Y 1559   4.536   6.381   7.188 -1.5565  0.3327 -0.8498
   12SAPS   C37 1560   4.665   6.470   7.332 -0.1861  0.7239  0.2935
   12SAPS   H7X 1561   4.708   6.569   7.359  3.8885 -1.2530  1.9501
   12SAPS   H7Y 1562   4.756   6.406   7.325 -1.3369 -1.2120  1.9683
   12SAPS   C38 1563   4.571   6.408   7.439  0.2620 -0.5861 -0.0602
   12SAPS   H8X 1564   4.525   6.309   7.416 -2.1455 -0.2194  2.6919
   12SAPS   H8Y 1565   4.489   6.479   7.462  1.8069  0.7026  1.8263
   12SAPS   C39 1566   4.636   6.388   7.566  0.9405  0.9881 -0.5739
   12SAPS   H9X 1567   4.718   6.463   7.575  2.0337  0.0192 -1.9103
   12SAPS   H9Y 1568   4.701   6.299   7.557  2.1974  1.7798  0.2874
   12SAPS  C310 1569   4.528   6.381   7.675  0.3000  0.3500  0.4348
   12SAPS  H10X 1570   4.438   6.321   7.653 -1.2921  1.7603  2.7664
   12SAPS  H10Y 1571   4.491   6.485   7.684  1.1771  0.8392 -1.1269
   12SAPS  C311 1572   4.592   6.337   7.810 -1.0581 -0.4821  0.1572
   12SAPS  H11X 1573   4.520   6.349   7.893 -0.6894 -0.3682  0.4637
   12SAPS  H11Y 1574   4.680   6.401   7.831 -2.3362  1.5376 -0.3370
   12SAPS  C312 1575   4.633   6.190   7.811 -0.7545 -0.2645 -0.3055
   12SAPS  H12X 1576   4.707   6.172   7.730 -1.3896  0.5683 -1.0869
   12SAPS  H12Y 1577   4.549   6.117   7.804  0.7984 -2.1840  0.0250
   12SAPS  C313 1578   4.709   6.151   7.937 -0.1038  0.5398 -0.2707
   12SAPS  H13X 1579   4.732   6.042   7.935  0.3032  0.4439  3.1661
   12SAPS  H13Y 1580   4.651   6.179   8.028 -2.5487 -1.4834 -1.0827
   12SAPS  C314 1581   4.848   6.211   7.953  0.4657 -0.3795  0.2541
   12SAPS  H14X 1582   4.833   6.313   7.996  1.2451  0.7550 -2.0029
   12SAPS  H14Y 1583   4.901   6.224   7.856  2.8711  0.9441  1.6251
   12SAPS  C315 1584   4.934   6.140   8.057 -0.3623  0.0450 -0.3484
   12SAPS  H15X 1585   4.955   6.037   8.019 -1.2473 -0.9111  1.6254
   12SAPS  H15Y 1586   4.897   6.127   8.160  0.3819 -0.2833 -0.1121
   12SAPS  C316 1587   5.078   6.193   8.055  0.7086  1.0414 -0.4427
   12SAPS  H16X 1588   5.094   6.294   8.100 -0.5388  1.7326 -1.4673
   12SAPS  H16Y 1589   5.109   6.206   7.949  0.4264 -0.3559 -0.7059
   12SAPS  C317 1590   5.180   6.089   8.117  0.3050 -0.8609 -0.5168
   12SAPS  H17X 1591   5.166   5.989   8.071 -2.4623 -0.3259 -1.0385
   12SAPS  H17Y 1592   5.166   6.097   8.227 -0.9682  1.0180 -0.7512
   12SAPS  C318 1593   5.325   6.132   8.097  0.4190  0.2034  0.1956
   12SAPS  H18X 1594   5.349   6.101   7.993 -0.3138 -2.0352  0.6356
   12SAPS  H18Y 1595   5.397   6.085   8.168 -0.0550 -1.0702 -0.1558
   12SAPS  H18Z 1596   5.327   6.242   8.112  0.4966  0.2604 -0.2120
   13SAPS     N 1597   4.809   3.082   6.231  0.3655 -0.4871  0.2787
   13SAPS   HN1 1598   4.740   3.160   6.236  0.9394 -0.0513  3.0340
   13SAPS   HN2 1599   4.764   2.990   6.214  1.5029 -1.0774  0.3071
   13SAPS   HN3 1600   4.860   3.076   6.321  0.5553 -1.6294  0.1037
   13SAPS   C12 1601   4.910   3.102   6.120 -0.8404 -0.1546  0.5189
   13SAPS  H12A 1602   4.951   3.004   6.103 -0.2916  0.5256 -2.7630
   13SAPS   C13 1603   4.866   3.152   5.983  0.8600 -0.1004 -0.4993
   13SAPS  O13A 1604   4.744   3.183   5.968  0.2227  0.1647  0.3615
   13SAPS  O13B 1605   4.946   3.163   5.887 -0.6206 -0.0436 -0.2143
   13SAPS   C11 1606   5.026   3.196   6.168  0.1415 -0.4206 -0.1767
   13SAPS  H11A 1607   5.088   3.230   6.082  0.1511  2.7365  0.9159
   13SAPS  H11B 1608   5.095   3.146   6.240  0.0088 -0.5449 -0.1368
   13SAPS     P 1609   5.009   3.451   6.231 -0.2164  0.5615  0.4262
   13SAPS   O13 1610   5.160   3.451   6.222  0.0349  0.1221  0.3078
   13SAPS   O14 1611   4.931   3.525   6.130  0.2087 -0.4971  0.0782
   13SAPS   O12 1612   4.966   3.304   6.240 -0.3977 -0.1539  0.5521
   13SAPS   O11 1613   4.967   3.514   6.373 -0.1265 -0.0764  0.6773
   13SAPS    C1 1614   4.940   3.429   6.492 -0.1192 -0.3611  0.2406
   13SAPS    HA 1615   4.985   3.329   6.475  1.3247  0.1275  1.0113
   13SAPS    HB 1616   4.997   3.470   6.578 -0.7399 -2.5252  1.7461
   13SAPS    C2 1617   4.788   3.409   6.523  0.4362 -0.1470  0.1431
   13SAPS    HS 1618   4.746   3.360   6.432 -1.6850  1.9769 -0.1421
   13SAPS   O21 1619   4.731   3.537   6.535  0.3500 -0.3187  0.0470
   13SAPS   C21 1620   4.599   3.548   6.551 -1.2164  0.5259 -0.1719
   13SAPS   O22 1621   4.523   3.457   6.523 -0.0999 -0.6790 -0.3525
   13SAPS   C22 1622   4.561   3.688   6.589 -0.0382  0.4143  0.0983
   13SAPS   H2R 1623   4.640   3.759   6.556  0.1603 -1.4826 -4.2816
   13SAPS   H2S 1624   4.482   3.714   6.516  0.1737 -0.6395 -0.5246
   13SAPS    C3 1625   4.763   3.318   6.646  0.0945  0.1868  0.1715
   13SAPS    HX 1626   4.782   3.215   6.607 -0.2794  0.5933 -1.1298
   13SAPS    HY 1627   4.658   3.309   6.681  0.5428 -0.2926  1.4691
   13SAPS   O31 1628   4.841   3.358   6.761 -0.6926 -0.1359 -0.4052
   13SAPS   C31 1629   4.950   3.289   6.779  0.8285 -0.0471 -0.4945
   13SAPS   O32 1630   4.977   3.187   6.722 -0.4095  0.1220  0.3371
   13SAPS   C32 1631   5.038   3.340   6.892 -0.1532 -0.1219 -0.3314
   13SAPS   H2X 1632   5.143   3.342   6.856 -0.0935 -2.4929 -0.4287
   13SAPS   H2Y 1633   5.027   3.274   6.980 -1.0043  1.1657  0.5619
   13SAPS   C23 1634   4.525   3.701   6.734  0.0258  0.0146 -0.4266
   13SAPS   H3R 1635   4.444   3.627   6.754 -0.8591  1.3625  1.2967
   13SAPS   H3S 1636   4.480   3.797   6.766 -0.1519 -0.5388  1.0681
   13SAPS   C24 1637   4.644   3.673   6.833 -0.3468 -0.1174 -0.2180
   13SAPS   H4R 1638   4.685   3.578   6.792  1.2434  0.8759 -1.0504
   13SAPS   H4S 1639   4.602   3.656   6.934 -2.0976 -0.8410 -1.0208
   13SAPS   C25 1640   4.759   3.767   6.833  0.8982 -0.4875 -0.4533
   13SAPS   H5R 1641   4.814   3.739   6.742 -1.1292  0.2634 -1.9902
   13SAPS   C26 1642   4.795   3.853   6.933 -0.4060  0.3438 -0.5325
   13SAPS   H6R 1643   4.881   3.919   6.914 -1.0004  1.3291  0.1451
   13SAPS   C27 1644   4.725   3.859   7.062  0.3485  0.2703 -0.2765
   13SAPS   H7R 1645   4.767   3.774   7.119 -0.8498 -0.2165 -0.0987
   13SAPS   H7S 1646   4.616   3.840   7.046  0.2065 -0.8960  1.8041
   13SAPS   C28 1647   4.753   3.990   7.138 -0.4551 -0.3573  0.8385
   13SAPS   H8R 1648   4.769   4.080   7.077  1.6109 -0.5520  1.0315
   13SAPS   C29 1649   4.767   4.002   7.270 -0.1925  0.2449  0.3488
   13SAPS   H9R 1650   4.772   4.105   7.308  0.9114  0.5639 -0.6123
   13SAPS  C210 1651   4.747   3.899   7.377 -0.3659  0.0601  0.1488
   13SAPS  H10R 1652   4.839   3.882   7.437  0.1926  0.2925 -0.6259
   13SAPS  H10S 1653   4.724   3.797   7.339 -1.3853  0.2127  0.3395
   13SAPS  C211 1654   4.640   3.937   7.471  0.9351 -0.6090 -1.0170
   13SAPS  H11R 1655   4.553   3.995   7.438 -0.5361 -1.8569  0.4360
   13SAPS  C212 1656   4.644   3.911   7.604 -0.7833  0.1068  0.2417
   13SAPS  H12R 1657   4.570   3.940   7.679 -0.2315  0.7392  0.5616
   13SAPS  C213 1658   4.753   3.838   7.674  0.3414  0.4140  0.2712
   13SAPS  H13R 1659   4.751   3.881   7.776 -2.4471  1.7892 -0.2554
   13SAPS  H13S 1660   4.853   3.863   7.632  0.2893  0.1446 -0.0180
   13SAPS  C214 1661   4.748   3.690   7.674 -0.1755  0.4236 -0.5574
   13SAPS  H14R 1662   4.838   3.650   7.624  0.7999  0.8841  0.7528
   13SAPS  C215 1663   4.656   3.613   7.739 -0.5861  0.1787 -0.5021
   13SAPS  H15R 1664   4.649   3.505   7.718 -5.1409  0.9066 -4.4208
   13SAPS  C216 1665   4.551   3.660   7.837 -1.4714 -0.3030  0.5101
   13SAPS  H16R 1666   4.459   3.665   7.774 -1.4852  0.0586  0.5563
   13SAPS  H16S 1667   4.566   3.767   7.865  0.1249 -0.8319  1.8212
   13SAPS  C217 1668   4.532   3.566   7.951 -0.2637 -0.2376  0.4836
   13SAPS  H17R 1669   4.605   3.594   8.030  0.4973 -2.1291  0.5183
   13SAPS  H17S 1670   4.567   3.462   7.930  0.4474 -0.0362  0.6483
   13SAPS  C218 1671   4.399   3.568   8.022  0.3724 -0.4001  0.4255
   13SAPS  H18R 1672   4.354   3.669   8.027 -1.2933 -1.1569  1.6962
   13SAPS  H18S 1673   4.415   3.531   8.125 -0.2619  1.7489  1.3601
   13SAPS  C219 1674   4.296   3.480   7.950  0.0178 -0.3072  0.7182
   13SAPS  H19R 1675   4.344   3.380   7.937 -1.4951 -0.8494 -1.3533
   13SAPS  H19S 1676   4.287   3.505   7.842 -0.1487  1.7780  1.1792
   13SAPS  C220 1677   4.159   3.460   8.019  0.4225 -0.1111 -0.6173
   13SAPS  H20R 1678   4.094   3.419   7.939  0.2567  1.3684 -1.2762
   13SAPS  H20S 1679   4.115   3.554   8.059 -0.9079 -1.7483  2.0464
   13SAPS  H20T 1680   4.172   3.386   8.101  0.9370 -0.5573 -1.0948
   13SAPS   C33 1681   4.996   3.475   6.959 -0.3141 -0.2448  0.1156
   13SAPS   H3X 1682   4.893   3.467   7.000  0.4813 -0.4941  2.1595
   13SAPS   H3Y 1683   5.003   3.542   6.871  0.1398 -1.3175 -0.6906
   13SAPS   C34 1684   5.102   3.520   7.060  0.3568  0.6779  0.5028
   13SAPS   H4X 1685   5.099   3.621   7.106  1.6525  0.2449  1.6335
   13SAPS   H4Y 1686   5.202   3.492   7.021 -1.2548 -2.0630 -2.0521
   13SAPS   C35 1687   5.075   3.436   7.184  0.0420  0.4909 -0.3753
   13SAPS   H5X 1688   5.157   3.463   7.254 -1.9403  0.4448  2.0795
   13SAPS   H5Y 1689   5.062   3.327   7.171 -2.6776  0.4337  1.8691
   13SAPS   C36 1690   4.949   3.475   7.271  0.3048 -0.6953  0.3664
   13SAPS   H6X 1691   4.860   3.415   7.242 -0.3412 -0.2691  1.3956
   13SAPS   H6Y 1692   4.922   3.580   7.244 -0.0769 -1.4112 -2.2461
   13SAPS   C37 1693   4.975   3.464   7.422  0.3564  0.0167 -0.2966
   13SAPS   H7X 1694   4.880   3.475   7.479 -0.2106  0.9002 -1.3935
   13SAPS   H7Y 1695   5.034   3.555   7.450 -0.6641  1.0130 -1.2937
   13SAPS   C38 1696   5.040   3.329   7.471 -0.6327 -0.2221  0.2249
   13SAPS   H8X 1697   5.133   3.313   7.412  0.3579  1.9223  1.0971
   13SAPS   H8Y 1698   4.980   3.237   7.456  0.5911 -1.3923  2.0140
   13SAPS   C39 1699   5.099   3.332   7.614 -0.6778  0.1675  0.6784
   13SAPS   H9X 1700   5.174   3.412   7.628 -0.6576  0.2650  0.0781
   13SAPS   H9Y 1701   5.155   3.236   7.617 -0.5995  0.1997  0.3415
   13SAPS  C310 1702   4.980   3.331   7.714  0.3706 -0.5064 -0.0945
   13SAPS  H10X 1703   4.917   3.243   7.692 -2.1135  0.6232  2.0196
   13SAPS  H10Y 1704   4.922   3.424   7.695 -0.4857 -1.1484 -0.7096
   13SAPS  C311 1705   5.025   3.307   7.861  0.0220 -0.3658  0.0238
   13SAPS  H11X 1706   5.125   3.353   7.877 -0.0764  0.2368 -1.0070
   13SAPS  H11Y 1707   5.031   3.197   7.878  0.7451 -0.2723  0.4251
   13SAPS  C312 1708   4.929   3.358   7.968  0.7194 -0.4095  0.1883
   13SAPS  H12X 1709   4.826   3.321   7.950  0.3213  1.3585 -1.5886
   13SAPS  H12Y 1710   4.917   3.467   7.950 -2.9995 -0.9804 -1.7803
   13SAPS  C313 1711   4.977   3.333   8.110 -0.0905 -0.1338 -0.1249
   13SAPS  H13X 1712   5.075   3.384   8.123  0.0196 -0.4935  0.4845
   13SAPS  H13Y 1713   5.000   3.227   8.132  1.9338  0.7826  2.7694
   13SAPS  C314 1714   4.873   3.373   8.223 -0.8733 -0.0612  0.0257
   13SAPS  H14X 1715   4.805   3.293   8.258 -1.4124  0.6704  0.6746
   13SAPS  H14Y 1716   4.807   3.449   8.177 -1.2371 -1.0070 -1.0519
   13SAPS  C315 1717   4.950   3.418   8.344 -0.9521  0.0804  0.5852
   13SAPS  H15X 1718   4.873   3.466   8.408  0.2121  1.0613  1.2933
   13SAPS  H15Y 1719   5.033   3.488   8.320 -2.3218  1.4433 -0.4007
   13SAPS  C316 1720   5.020   3.304   8.428 -0.2496 -0.4696 -0.5926
   13SAPS  H16X 1721   5.114   3.268   8.382 -0.2045 -3.1742  1.3500
   13SAPS  H16Y 1722   4.961   3.210   8.430  1.0773 -1.3861 -2.1682
   13SAPS  C317 1723   5.054   3.351   8.574 -0.3427  0.0590  0.1890
   13SAPS  H17X 1724   5.037   3.258   8.633 -0.6896  0.0461  0.0689
   13SAPS  H17Y 1725   4.971   3.415   8.609  0.4265  3.3475 -3.3895
   13SAPS  C318 1726   5.192   3.415   8.589 -0.7638  0.0288 -0.3220
   13SAPS  H18X 1727   5.280   3.348   8.577  1.2719  2.4496  0.1077
   13SAPS  H18Y 1728   5.211   3.455   8.691 -0.6470  0.3099 -0.4502
   13SAPS  H18Z 1729   5.208   3.488   8.507  0.2775  0.4386  0.2186
   14SAPS     N 1730   4.765   5.511   5.561 -0.4052 -0.2368  0.1636
   14SAPS   HN1 1731   4.852   5.565   5.580  0.7431 -1.5587 -1.0014
   14SAPS   HN2 1732   4.774   5.438   5.634 -0.1925 -0.4257 -0.0479
   14SAPS   HN3 1733   4.766   5.460   5.470  0.1769 -1.4168  0.8003
   14SAPS   C12 1734   4.647   5.596   5.591 -0.4203  1.5073  0.4125
   14SAPS  H12A 1735   4.648   5.678   5.521 -1.6450  0.3203 -1.0617
   14SAPS   C13 1736   4.516   5.522   5.568  0.9129  0.2159  0.4783
   14SAPS  O13A 1737   4.500   5.412   5.522  0.0602  0.6607  0.9314
   14SAPS  O13B 1738   4.414   5.593   5.593  0.4944  1.1085 -0.1431
   14SAPS   C11 1739   4.656   5.662   5.722 -0.1488  0.1054  0.2667
   14SAPS  H11A 1740   4.681   5.584   5.797  2.7790 -0.5844 -1.2467
   14SAPS  H11B 1741   4.562   5.710   5.754  0.8953 -0.0420  3.9726
   14SAPS     P 1742   4.872   5.757   5.830  0.3535 -0.3006  0.0420
   14SAPS   O13 1743   4.954   5.642   5.803 -0.0314  0.2219 -0.0686
   14SAPS   O14 1744   4.944   5.885   5.836 -0.3321  0.2123 -0.3082
   14SAPS   O12 1745   4.759   5.762   5.721  0.3828 -0.1291  0.2189
   14SAPS   O11 1746   4.789   5.735   5.960  0.4942 -0.4129 -0.5670
   14SAPS    C1 1747   4.840   5.648   6.058  0.5276  0.3385 -0.4533
   14SAPS    HA 1748   4.795   5.547   6.050  0.5066  0.3701 -0.7374
   14SAPS    HB 1749   4.950   5.633   6.059  0.7960  1.9264  2.1406
   14SAPS    C2 1750   4.815   5.704   6.202  0.6471 -0.4664  0.0198
   14SAPS    HS 1751   4.718   5.758   6.202  0.1543 -1.3261  0.4109
   14SAPS   O21 1752   4.922   5.790   6.232 -0.3726 -0.1687  0.0740
   14SAPS   C21 1753   4.903   5.921   6.231 -0.7618 -0.5661 -0.0191
   14SAPS   O22 1754   4.802   5.969   6.192  0.7978 -0.0152 -0.3479
   14SAPS   C22 1755   5.025   5.998   6.269 -0.0815 -0.0962 -0.4297
   14SAPS   H2R 1756   5.087   6.026   6.181 -0.5428  1.5513 -0.2652
   14SAPS   H2S 1757   4.997   6.086   6.330  0.6585 -1.0246  1.3309
   14SAPS    C3 1758   4.812   5.589   6.307  0.4374  0.1677 -0.3296
   14SAPS    HX 1759   4.912   5.541   6.305  0.1526 -0.4787  0.2613
   14SAPS    HY 1760   4.748   5.505   6.271 -0.6862  0.6946  0.3586
   14SAPS   O31 1761   4.788   5.635   6.449 -0.5988  0.0140  0.1448
   14SAPS   C31 1762   4.662   5.635   6.482 -0.0184  0.2341  0.8312
   14SAPS   O32 1763   4.568   5.594   6.410 -0.1744 -0.4051 -0.1990
   14SAPS   C32 1764   4.648   5.692   6.622  0.5053  0.0699 -0.3523
   14SAPS   H2X 1765   4.557   5.755   6.610  0.6546  0.2451 -0.5551
   14SAPS   H2Y 1766   4.732   5.760   6.647 -1.0287  2.4775 -1.3096
   14SAPS   C23 1767   5.127   5.920   6.366  0.8399  0.1534  0.2022
   14SAPS   H3R 1768   5.196   5.873   6.293  0.2777  1.6729 -1.3673
   14SAPS   H3S 1769   5.075   5.850   6.435  0.9491 -0.5165 -0.3856
   14SAPS   C24 1770   5.199   6.022   6.459 -0.5239  0.2884 -0.0731
   14SAPS   H4R 1771   5.268   5.961   6.520 -1.1193  1.1470  1.5293
   14SAPS   H4S 1772   5.123   6.065   6.527 -1.3943 -3.0175  1.2243
   14SAPS   C25 1773   5.268   6.142   6.396 -0.0616 -0.3152 -0.3137
   14SAPS   H5R 1774   5.321   6.118   6.304  1.2080 -4.5846  1.2852
   14SAPS   C26 1775   5.268   6.265   6.456  0.4298  0.4668  0.3694
   14SAPS   H6R 1776   5.349   6.328   6.418  0.6620  0.8440  1.4406
   14SAPS   C27 1777   5.190   6.321   6.573 -0.3652 -0.8434  0.1873
   14SAPS   H7R 1778   5.252   6.313   6.665  0.0469  2.5772  0.3432
   14SAPS   H7S 1779   5.104   6.252   6.586 -1.6286  0.1290 -2.3324
   14SAPS   C28 1780   5.154   6.469   6.561  0.0261  0.3495 -0.1186
   14SAPS   H8R 1781   5.140   6.514   6.461 -0.0740  0.1292 -0.2062
   14SAPS   C29 1782   5.135   6.562   6.658 -0.1197  0.5615  0.3378
   14SAPS   H9R 1783   5.084   6.654   6.626 -2.6803 -1.3288 -1.5186
   14SAPS  C210 1784   5.151   6.529   6.809  0.9870 -0.3809  0.8182
   14SAPS  H10R 1785   5.200   6.620   6.850 -0.8490  0.8217  0.4587
   14SAPS  H10S 1786   5.224   6.446   6.822  1.6354 -0.4761 -2.5517
   14SAPS  C211 1787   5.020   6.496   6.882 -0.0683  0.6306  1.1935
   14SAPS  H11R 1788   4.948   6.477   6.801  1.0702  2.6755 -0.3933
   14SAPS  C212 1789   5.009   6.457   7.013  0.2389 -0.3426  0.9334
   14SAPS  H12R 1790   4.908   6.422   7.042 -0.7242  0.0183 -1.7312
   14SAPS  C213 1791   5.118   6.461   7.117 -0.2104  0.4658 -0.0487
   14SAPS  H13R 1792   5.127   6.569   7.141 -2.3237  1.3364 -2.6204
   14SAPS  H13S 1793   5.218   6.430   7.079  1.1945  3.0579  1.2710
   14SAPS  C214 1794   5.092   6.382   7.244  0.0957  0.2175  0.1199
   14SAPS  H14R 1795   5.004   6.315   7.241  0.7663 -0.6677 -2.5639
   14SAPS  C215 1796   5.154   6.405   7.358  0.4760  0.4862 -0.0169
   14SAPS  H15R 1797   5.118   6.362   7.452 -0.0710  1.3901  0.1963
   14SAPS  C216 1798   5.277   6.489   7.371 -0.5586 -0.2756 -0.8523
   14SAPS  H16R 1799   5.234   6.591   7.365 -4.8074 -1.7707  0.5975
   14SAPS  H16S 1800   5.346   6.481   7.284  1.6325  0.4738  0.7307
   14SAPS  C217 1801   5.341   6.461   7.502  0.1166  0.5024  0.4940
   14SAPS  H17R 1802   5.269   6.490   7.581  0.3566 -1.1882  1.3774
   14SAPS  H17S 1803   5.431   6.525   7.518  1.1544 -0.6778 -0.3593
   14SAPS  C218 1804   5.397   6.317   7.509 -0.5422  0.5564 -0.0077
   14SAPS  H18R 1805   5.479   6.306   7.434  0.1102 -0.6498  0.8343
   14SAPS  H18S 1806   5.323   6.239   7.483 -1.6640  1.2000  1.1203
   14SAPS  C219 1807   5.475   6.269   7.643 -0.0346 -0.1948 -0.0675
   14SAPS  H19R 1808   5.394   6.233   7.710  1.0030 -0.0790  1.2996
   14SAPS  H19S 1809   5.525   6.363   7.675  0.9545 -0.2506 -1.3720
   14SAPS  C220 1810   5.577   6.159   7.608 -0.3638 -0.4882 -1.0511
   14SAPS  H20R 1811   5.606   6.175   7.503  1.0849  0.8297 -0.4771
   14SAPS  H20S 1812   5.513   6.068   7.609  1.9854 -2.3255  2.2024
   14SAPS  H20T 1813   5.668   6.137   7.668 -1.1432 -4.2853 -0.9546
   14SAPS   C33 1814   4.622   5.573   6.721  0.0577 -0.4694  0.5440
   14SAPS   H3X 1815   4.711   5.506   6.726  1.4235  1.2777  0.7621
   14SAPS   H3Y 1816   4.535   5.513   6.686  1.2565 -1.0534 -1.6606
   14SAPS   C34 1817   4.606   5.621   6.863  0.7053  0.2344  0.4534
   14SAPS   H4X 1818   4.550   5.546   6.924 -1.5022  1.1238 -0.3767
   14SAPS   H4Y 1819   4.539   5.710   6.872 -1.0311 -1.1654  2.6104
   14SAPS   C35 1820   4.729   5.665   6.931  0.0103 -0.6848 -0.4552
   14SAPS   H5X 1821   4.773   5.754   6.882  3.6141 -1.4794  1.0021
   14SAPS   H5Y 1822   4.812   5.592   6.914  0.3005 -0.1529 -1.3645
   14SAPS   C36 1823   4.710   5.684   7.083  0.2394 -0.6783  0.2388
   14SAPS   H6X 1824   4.629   5.758   7.097 -0.0613 -0.5949 -1.7116
   14SAPS   H6Y 1825   4.791   5.742   7.134 -0.7579  1.3975 -0.4395
   14SAPS   C37 1826   4.697   5.550   7.154  0.0005 -0.6250 -0.2594
   14SAPS   H7X 1827   4.782   5.486   7.122  0.4648 -2.0352  3.3531
   14SAPS   H7Y 1828   4.606   5.491   7.130 -2.0022  1.6499  1.1923
   14SAPS   C38 1829   4.703   5.579   7.302 -0.0331 -0.3842  0.9422
   14SAPS   H8X 1830   4.789   5.641   7.335  0.4253 -0.7015  0.3516
   14SAPS   H8Y 1831   4.725   5.484   7.355 -0.2082 -1.0529 -0.1394
   14SAPS   C39 1832   4.577   5.643   7.356 -0.1388  0.5484  0.6844
   14SAPS   H9X 1833   4.490   5.605   7.298  1.0062 -2.3425  0.6850
   14SAPS   H9Y 1834   4.570   5.751   7.330  1.0455  0.2419 -1.0315
   14SAPS  C310 1835   4.545   5.623   7.503 -0.1071 -0.1095  0.1776
   14SAPS  H10X 1836   4.533   5.515   7.528  0.2883 -0.0708  0.5498
   14SAPS  H10Y 1837   4.455   5.685   7.526  1.4131  1.3247  2.7882
   14SAPS  C311 1838   4.657   5.693   7.585  0.3361  0.2207  0.8439
   14SAPS  H11X 1839   4.672   5.795   7.545  0.5352 -0.2259 -0.2785
   14SAPS  H11Y 1840   4.744   5.624   7.577  0.6594  0.7179 -0.0841
   14SAPS  C312 1841   4.619   5.696   7.730 -0.4249 -0.1638  0.3076
   14SAPS  H12X 1842   4.584   5.597   7.767 -1.4275  0.0032 -0.1664
   14SAPS  H12Y 1843   4.541   5.774   7.745  1.4472  1.7647  0.5077
   14SAPS  C313 1844   4.749   5.720   7.809  0.1026 -0.3825  0.0924
   14SAPS  H13X 1845   4.779   5.827   7.797  0.5625 -0.2279  2.2317
   14SAPS  H13Y 1846   4.833   5.660   7.767 -0.1009 -1.3040  0.9632
   14SAPS  C314 1847   4.730   5.713   7.961  0.2320  0.3251  0.1616
   14SAPS  H14X 1848   4.689   5.612   7.984 -0.8078  0.4573 -1.0318
   14SAPS  H14Y 1849   4.667   5.796   7.998  1.7702  0.5293  2.6093
   14SAPS  C315 1850   4.862   5.733   8.044  0.6510  0.4952  0.5493
   14SAPS  H15X 1851   4.922   5.813   7.995  0.0037  0.1039 -0.9366
   14SAPS  H15Y 1852   4.912   5.635   8.026 -1.4638 -0.7752  1.2143
   14SAPS  C316 1853   4.838   5.765   8.192 -0.6159 -0.0843  0.1627
   14SAPS  H16X 1854   4.794   5.866   8.198  1.8914  1.1500 -0.8500
   14SAPS  H16Y 1855   4.942   5.759   8.229  1.6404 -1.3687 -5.3560
   14SAPS  C317 1856   4.755   5.661   8.256  0.7256  0.7443  0.0217
   14SAPS  H17X 1857   4.779   5.567   8.203 -0.3766  0.4467  0.0092
   14SAPS  H17Y 1858   4.644   5.669   8.251  0.5105  1.2723  3.3251
   14SAPS  C318 1859   4.779   5.647   8.405 -0.2707  0.2413 -1.3479
   14SAPS  H18X 1860   4.808   5.743   8.452 -0.2805 -0.1730 -0.4805
   14SAPS  H18Y 1861   4.861   5.578   8.435 -0.5295  0.8115  0.8099
   14SAPS  H18Z 1862   4.686   5.616   8.456 -1.0208  1.0138 -2.2177
   15SAPS     N 1863   5.151   5.468   5.786 -0.1320  0.2743 -0.5681
   15SAPS   HN1 1864   5.219   5.518   5.725 -0.1172  0.0013 -0.7758
   15SAPS   HN2 1865   5.067   5.529   5.783  0.0721  0.5338 -1.9724
   15SAPS   HN3 1866   5.180   5.463   5.885 -1.6080  2.4931  0.0501
   15SAPS   C12 1867   5.134   5.321   5.739  0.0934  0.5719 -0.8851
   15SAPS  H12A 1868   5.061   5.277   5.806  2.1112 -0.2587  0.8846
   15SAPS   C13 1869   5.085   5.303   5.592 -0.0354  1.2861  0.1731
   15SAPS  O13A 1870   5.090   5.403   5.517  0.4064 -0.5298  0.1897
   15SAPS  O13B 1871   5.089   5.183   5.545 -0.1354  0.1522 -0.1453
   15SAPS   C11 1872   5.268   5.247   5.770 -0.4791 -0.0512  0.4776
   15SAPS  H11A 1873   5.348   5.309   5.724  0.3590  1.6647  3.8777
   15SAPS  H11B 1874   5.267   5.148   5.719 -0.8643  1.1713 -2.0340
   15SAPS     P 1875   5.439   5.215   5.954 -0.0393  0.4200 -0.3838
   15SAPS   O13 1876   5.474   5.084   5.897  0.3851 -0.1498  0.2851
   15SAPS   O14 1877   5.526   5.334   5.924  0.2562 -0.5858  0.3490
   15SAPS   O12 1878   5.288   5.242   5.909 -0.4633  0.0139 -0.5054
   15SAPS   O11 1879   5.438   5.201   6.107  0.2911  0.4060 -0.2337
   15SAPS    C1 1880   5.311   5.188   6.168 -0.3326 -0.6912  0.0955
   15SAPS    HA 1881   5.247   5.275   6.141  1.3911  1.9436  3.5578
   15SAPS    HB 1882   5.250   5.103   6.130 -0.6624 -0.3379 -0.1751
   15SAPS    C2 1883   5.307   5.172   6.325  0.6374 -0.6474  0.0442
   15SAPS    HS 1884   5.202   5.191   6.355 -0.0100 -0.9310 -1.9132
   15SAPS   O21 1885   5.391   5.272   6.384  0.6676 -0.5819  0.6651
   15SAPS   C21 1886   5.351   5.396   6.376  0.0000 -0.6390  0.9303
   15SAPS   O22 1887   5.242   5.435   6.335  0.5547  0.1726  0.1712
   15SAPS   C22 1888   5.461   5.498   6.408  0.0741  0.1632 -0.2334
   15SAPS   H2R 1889   5.556   5.464   6.359  0.2665 -1.5606  1.2548
   15SAPS   H2S 1890   5.443   5.596   6.358 -0.9105  0.2760  0.3210
   15SAPS    C3 1891   5.357   5.029   6.359 -0.8835  0.0320 -0.0490
   15SAPS    HX 1892   5.465   5.013   6.342 -0.8267  1.6963 -1.5491
   15SAPS    HY 1893   5.313   4.956   6.287  1.6783 -0.0542 -1.6383
   15SAPS   O31 1894   5.322   4.999   6.497  0.4134 -0.6114 -0.0924
   15SAPS   C31 1895   5.400   5.041   6.590  0.1107  0.3317 -0.3669
   15SAPS   O32 1896   5.506   5.105   6.575 -0.2857  0.3285  0.4298
   15SAPS   C32 1897   5.345   5.004   6.725 -0.3193  0.6372  0.0991
   15SAPS   H2X 1898   5.428   4.964   6.788 -0.8951  2.5915  2.2427
   15SAPS   H2Y 1899   5.271   4.921   6.721  1.6321 -1.2148  0.8468
   15SAPS   C23 1900   5.499   5.517   6.556 -0.1795 -0.2083 -0.4927
   15SAPS   H3R 1901   5.573   5.601   6.560  0.4138 -0.7394 -0.0245
   15SAPS   H3S 1902   5.549   5.421   6.582  0.6472  0.3746  0.1367
   15SAPS   C24 1903   5.381   5.524   6.657 -0.4622 -0.0970  0.0439
   15SAPS   H4R 1904   5.421   5.532   6.760  1.4117 -1.0726 -0.5492
   15SAPS   H4S 1905   5.314   5.436   6.644 -0.2685 -0.5607  1.9482
   15SAPS   C25 1906   5.301   5.643   6.611  0.7214  0.2219  0.6681
   15SAPS   H5R 1907   5.303   5.676   6.506 -1.0203 -0.0921  0.4959
   15SAPS   C26 1908   5.213   5.709   6.688  0.9623 -0.4527 -0.4245
   15SAPS   H6R 1909   5.166   5.801   6.651  1.1499  0.0212  0.4649
   15SAPS   C27 1910   5.189   5.673   6.832  1.2903  0.3849  0.5125
   15SAPS   H7R 1911   5.281   5.632   6.880  0.2050 -2.3290  0.4453
   15SAPS   H7S 1912   5.131   5.579   6.827  2.1711 -0.1180 -1.2794
   15SAPS   C28 1913   5.128   5.782   6.916 -0.4354  0.6609  0.1590
   15SAPS   H8R 1914   5.020   5.772   6.936 -0.2228  0.3584  1.1981
   15SAPS   C29 1915   5.200   5.872   6.986 -0.3586 -0.4141  0.3236
   15SAPS   H9R 1916   5.139   5.943   7.042 -0.0483  1.1346 -1.2166
   15SAPS  C210 1917   5.348   5.893   6.982 -0.2960 -0.4313 -0.1630
   15SAPS  H10R 1918   5.399   5.833   6.904  1.2137  0.1856  0.2962
   15SAPS  H10S 1919   5.394   5.861   7.078 -0.8802  3.0426  1.4333
   15SAPS  C211 1920   5.384   6.032   6.951 -0.4842 -0.0444 -0.4659
   15SAPS  H11R 1921   5.363   6.065   6.849 -0.3211 -1.1334 -0.8623
   15SAPS  C212 1922   5.441   6.115   7.036 -1.1098 -0.6327 -0.7797
   15SAPS  H12R 1923   5.455   6.219   7.003  0.3085 -0.5130  0.1311
   15SAPS  C213 1924   5.481   6.073   7.178  0.4351 -0.2971 -0.3152
   15SAPS  H13R 1925   5.553   6.147   7.221 -0.1175  1.0935 -1.6819
   15SAPS  H13S 1926   5.533   5.975   7.188  1.0343 -0.0043 -0.5289
   15SAPS  C214 1927   5.359   6.072   7.274 -0.0399  0.0068 -0.0971
   15SAPS  H14R 1928   5.283   6.150   7.259 -2.0461 -2.0866 -1.4173
   15SAPS  C215 1929   5.332   5.987   7.371 -0.7002  0.1821  0.1896
   15SAPS  H15R 1930   5.244   6.009   7.432  0.7048  1.1351  1.9767
   15SAPS  C216 1931   5.417   5.863   7.403  0.2945  0.0354  1.1316
   15SAPS  H16R 1932   5.420   5.842   7.512 -0.1878  1.1770  1.3917
   15SAPS  H16S 1933   5.522   5.883   7.372 -0.3443  0.6233 -0.8483
   15SAPS  C217 1934   5.379   5.724   7.354  0.3166 -0.1867  1.3568
   15SAPS  H17R 1935   5.433   5.637   7.396  1.0230 -1.6684 -2.2308
   15SAPS  H17S 1936   5.397   5.729   7.244  0.8883 -0.7971  1.4190
   15SAPS  C218 1937   5.225   5.684   7.365 -0.0896  0.6472 -0.3911
   15SAPS  H18R 1938   5.164   5.759   7.310  1.4624  3.1070  1.0359
   15SAPS  H18S 1939   5.198   5.700   7.472 -1.6396 -0.1528 -0.6355
   15SAPS  C219 1940   5.201   5.539   7.327  0.3580 -0.8471  0.2569
   15SAPS  H19R 1941   5.097   5.511   7.353 -0.3476  0.0755 -1.4148
   15SAPS  H19S 1942   5.277   5.470   7.371  1.6760  1.7647  2.3972
   15SAPS  C220 1943   5.196   5.523   7.173 -0.1647 -0.2377  0.4673
   15SAPS  H20R 1944   5.101   5.568   7.137  0.3732 -0.9066 -1.9226
   15SAPS  H20S 1945   5.193   5.414   7.151 -2.3900 -0.6094  2.3115
   15SAPS  H20T 1946   5.280   5.576   7.123 -2.0171  0.6952 -1.8067
   15SAPS   C33 1947   5.266   5.112   6.802 -0.4656  0.3119 -0.0656
   15SAPS   H3X 1948   5.217   5.071   6.893 -0.9060 -0.5890 -0.6936
   15SAPS   H3Y 1949   5.198   5.165   6.731  0.9463  0.3048 -1.4667
   15SAPS   C34 1950   5.356   5.225   6.851 -0.1373 -0.2796  0.0398
   15SAPS   H4X 1951   5.287   5.308   6.878 -0.0662 -0.4268  0.6968
   15SAPS   H4Y 1952   5.415   5.273   6.770 -0.3613  1.1943  0.7019
   15SAPS   C35 1953   5.452   5.201   6.969  0.1647  0.6462  0.4225
   15SAPS   H5X 1954   5.532   5.125   6.958 -0.1398  0.3807 -0.0068
   15SAPS   H5Y 1955   5.393   5.163   7.055  1.3659 -1.8712  0.2112
   15SAPS   C36 1956   5.509   5.336   7.015 -0.0205  0.3931 -0.7606
   15SAPS   H6X 1957   5.435   5.417   7.031 -0.2471 -0.1305  1.0944
   15SAPS   H6Y 1958   5.573   5.368   6.930  0.3774 -0.7063 -0.8898
   15SAPS   C37 1959   5.587   5.333   7.141  0.8516 -0.2214  0.1013
   15SAPS   H7X 1960   5.662   5.415   7.147  0.9256 -0.1128 -1.8238
   15SAPS   H7Y 1961   5.643   5.237   7.144 -1.9512 -2.0404 -1.3329
   15SAPS   C38 1962   5.498   5.341   7.261  0.0415 -0.5467 -0.3684
   15SAPS   H8X 1963   5.403   5.290   7.236  0.0265 -0.0642 -1.3194
   15SAPS   H8Y 1964   5.476   5.450   7.271  1.0652 -0.2996 -0.6209
   15SAPS   C39 1965   5.544   5.268   7.387 -0.5639  0.2391  0.8151
   15SAPS   H9X 1966   5.641   5.306   7.426  1.2754 -2.4601 -0.8260
   15SAPS   H9Y 1967   5.565   5.167   7.348  1.0551  1.3193 -1.3082
   15SAPS  C310 1968   5.438   5.253   7.501 -0.3839 -0.2327  0.1691
   15SAPS  H10X 1969   5.357   5.180   7.478 -1.0440  0.7639 -0.7842
   15SAPS  H10Y 1970   5.388   5.352   7.511  0.4428  0.3610 -1.3415
   15SAPS  C311 1971   5.491   5.229   7.642  0.3589 -0.4045 -0.0406
   15SAPS  H11X 1972   5.542   5.323   7.673  2.0708 -1.3006 -0.0104
   15SAPS  H11Y 1973   5.556   5.142   7.617 -2.1912 -2.5443  0.2675
   15SAPS  C312 1974   5.386   5.178   7.742  0.0262  0.3710 -0.2748
   15SAPS  H12X 1975   5.336   5.085   7.710 -1.1541  0.5818  0.8331
   15SAPS  H12Y 1976   5.301   5.249   7.753 -0.5193 -0.4129  0.8279
   15SAPS  C313 1977   5.451   5.180   7.878 -0.4108  0.2831 -0.0975
   15SAPS  H13X 1978   5.503   5.277   7.894  2.7950 -1.1791 -0.7912
   15SAPS  H13Y 1979   5.533   5.105   7.883  0.4286  1.2337  1.6245
   15SAPS  C314 1980   5.350   5.163   7.998  0.0640 -0.0324  0.2080
   15SAPS  H14X 1981   5.281   5.080   7.971  1.4998 -1.4072  0.5652
   15SAPS  H14Y 1982   5.289   5.253   8.020  2.3241  1.7685 -0.4731
   15SAPS  C315 1983   5.427   5.124   8.127  0.0150  1.1483 -0.6413
   15SAPS  H15X 1984   5.512   5.193   8.146  3.3617 -2.7246 -0.1149
   15SAPS  H15Y 1985   5.477   5.027   8.108 -0.5577  1.2332 -2.8526
   15SAPS  C316 1986   5.336   5.121   8.249  0.7641  0.9782 -0.3664
   15SAPS  H16X 1987   5.284   5.219   8.258 -1.6020 -0.1067 -1.3958
   15SAPS  H16Y 1988   5.409   5.102   8.331  2.1830  0.8042 -1.6205
   15SAPS  C317 1989   5.231   5.006   8.246  0.7884  0.0971 -0.4564
   15SAPS  H17X 1990   5.272   4.903   8.241 -3.2809 -1.7411 -0.1750
   15SAPS  H17Y 1991   5.167   5.021   8.156 -1.4033  2.5381  1.3795
   15SAPS  C318 1992   5.128   5.018   8.365  0.4454  0.3267 -0.6718
   15SAPS  H18X 1993   5.041   4.951   8.353 -0.6346  1.8647 -1.8589
   15SAPS  H18Y 1994   5.095   5.124   8.371 -1.1097 -0.1813  0.0495
   15SAPS  H18Z 1995   5.179   4.993   8.460  0.6101  1.2936 -0.4866
   16SAPS     N 1996   6.788   0.298   6.506 -0.4354  0.1089 -0.3383
   16SAPS   HN1 1997   6.826   0.270   6.599 -1.6313  0.5101  0.2966
   16SAPS   HN2 1998   6.710   0.364   6.524 -0.8525 -0.6096  0.5756
   16SAPS   HN3 1999   6.751   0.210   6.465 -0.0906 -0.1332 -0.1392
   16SAPS   C12 2000   6.897   0.356   6.425  0.3593 -0.4395  0.6573
   16SAPS  H12A 2001   6.956   0.275   6.384  2.2530  0.9746  0.4471
   16SAPS   C13 2002   6.835   0.447   6.314 -0.9690 -0.6745 -0.5385
   16SAPS  O13A 2003   6.717   0.427   6.281  0.3787 -1.1312  0.1244
   16SAPS  O13B 2004   6.902   0.545   6.265 -0.5863 -0.2229  0.1587
   16SAPS   C11 2005   6.984   0.438   6.521  0.4108  0.4668 -0.3011
   16SAPS  H11A 2006   6.923   0.519   6.568  0.4151 -0.4060  1.2558
   16SAPS  H11B 2007   7.065   0.492   6.467  0.9241  1.4568  1.3803
   16SAPS     P 2008   7.188   0.332   6.650 -0.4594  0.4749 -0.0525
   16SAPS   O13 2009   7.210   0.192   6.606 -0.1550  0.0083  0.0633
   16SAPS   O14 2010   7.269   0.438   6.586  0.6382 -0.0756 -0.8010
   16SAPS   O12 2011   7.033   0.356   6.625  0.1123 -0.1385  0.5200
   16SAPS   O11 2012   7.213   0.349   6.802 -0.1092 -0.0764  0.4554
   16SAPS    C1 2013   7.093   0.316   6.874 -0.2217  0.4284  0.2566
   16SAPS    HA 2014   7.013   0.389   6.848 -0.8824 -0.3347  0.0960
   16SAPS    HB 2015   7.062   0.211   6.852  1.0035 -0.7538  3.4775
   16SAPS    C2 2016   7.132   0.338   7.025 -0.2056  0.0596  0.5392
   16SAPS    HS 2017   7.158   0.446   7.028  2.0069 -0.4201  0.4895
   16SAPS   O21 2018   7.237   0.246   7.066 -0.2392  0.6555  0.2948
   16SAPS   C21 2019   7.325   0.296   7.153  0.0502  1.1144  0.3490
   16SAPS   O22 2020   7.318   0.407   7.203  0.3497  0.1598 -0.0684
   16SAPS   C22 2021   7.434   0.195   7.175 -0.8393  0.0545 -0.7345
   16SAPS   H2R 2022   7.382   0.099   7.157 -0.8214  0.0773 -0.9167
   16SAPS   H2S 2023   7.512   0.226   7.102 -0.7426  2.0570  0.1542
   16SAPS    C3 2024   7.005   0.312   7.119 -0.6515  0.6408 -0.1331
   16SAPS    HX 2025   6.997   0.202   7.131  0.4996  0.5340 -0.2654
   16SAPS    HY 2026   6.914   0.340   7.062 -0.8503 -2.1361 -1.3316
   16SAPS   O31 2027   7.023   0.364   7.253 -0.6124  0.8729 -0.5846
   16SAPS   C31 2028   7.006   0.497   7.266 -0.5903 -0.1486  0.6450
   16SAPS   O32 2029   6.970   0.577   7.186  0.6895 -0.6496  0.7535
   16SAPS   C32 2030   7.027   0.525   7.417 -0.7697 -0.4736  0.2634
   16SAPS   H2X 2031   7.034   0.635   7.430 -1.5172 -0.6235  2.2468
   16SAPS   H2Y 2032   7.129   0.487   7.435 -1.2883 -2.6196 -1.0055
   16SAPS   C23 2033   7.502   0.202   7.314  0.1754 -0.1863  0.3854
   16SAPS   H3R 2034   7.503   0.307   7.350 -0.7862  0.1772 -0.5740
   16SAPS   H3S 2035   7.607   0.171   7.296 -0.6877 -1.4562 -3.4467
   16SAPS   C24 2036   7.436   0.120   7.419 -0.6913  0.2148 -0.7513
   16SAPS   H4R 2037   7.456   0.012   7.401  1.3840  0.4255 -0.0118
   16SAPS   H4S 2038   7.327   0.136   7.406 -0.2381  1.5961 -3.4298
   16SAPS   C25 2039   7.489   0.139   7.561 -0.4571  0.4531 -0.0234
   16SAPS   H5R 2040   7.597   0.123   7.571 -0.6958 -1.3150  0.1687
   16SAPS   C26 2041   7.420   0.146   7.674 -0.4167  0.1376  0.1937
   16SAPS   H6R 2042   7.478   0.145   7.767  1.7106 -0.5571 -1.0715
   16SAPS   C27 2043   7.273   0.160   7.689 -0.0994 -0.7241  0.2337
   16SAPS   H7R 2044   7.236   0.105   7.778 -2.7916  3.3406  1.9116
   16SAPS   H7S 2045   7.217   0.101   7.612 -1.4673 -1.8446  2.0057
   16SAPS   C28 2046   7.234   0.299   7.691  0.6591 -0.2145 -0.2546
   16SAPS   H8R 2047   7.265   0.354   7.602 -0.3195 -0.1578 -0.5717
   16SAPS   C29 2048   7.170   0.371   7.787  0.3451  0.1080 -0.5520
   16SAPS   H9R 2049   7.138   0.475   7.768  2.6402  1.0619  0.3598
   16SAPS  C210 2050   7.131   0.322   7.923 -0.3272 -0.0505 -0.0874
   16SAPS  H10R 2051   7.120   0.211   7.923  2.2881 -0.4182  1.7462
   16SAPS  H10S 2052   7.027   0.354   7.941 -0.5038 -0.4498 -0.3882
   16SAPS  C211 2053   7.237   0.349   8.032 -0.6612  0.1971  0.1289
   16SAPS  H11R 2054   7.332   0.394   7.997  0.8403 -0.6087  2.9002
   16SAPS  C212 2055   7.230   0.318   8.163 -0.1805  0.2336  0.1934
   16SAPS  H12R 2056   7.313   0.333   8.234  0.2938 -1.5061  0.0530
   16SAPS  C213 2057   7.102   0.258   8.220  0.5250 -0.0387  0.2613
   16SAPS  H13R 2058   7.134   0.223   8.321  0.4844 -0.5461  0.1024
   16SAPS  H13S 2059   7.060   0.171   8.165 -1.3650  0.6592  0.5188
   16SAPS  C214 2060   6.994   0.367   8.236 -0.0643  0.0551 -0.0552
   16SAPS  H14R 2061   6.996   0.438   8.152 -1.8442 -0.1826 -0.3440
   16SAPS  C215 2062   6.919   0.389   8.343  0.6928  0.2327  0.2946
   16SAPS  H15R 2063   6.849   0.472   8.328  0.1680  0.0521  1.6186
   16SAPS  C216 2064   6.922   0.322   8.481  0.1899 -0.5955  0.4324
   16SAPS  H16R 2065   6.922   0.400   8.560  0.3902 -0.9122  0.7475
   16SAPS  H16S 2066   7.017   0.265   8.488  0.0630 -0.9161 -0.3489
   16SAPS  C217 2067   6.811   0.216   8.507 -0.2219 -0.4318 -0.1135
   16SAPS  H17R 2068   6.845   0.126   8.452  1.6932 -0.5955  1.2320
   16SAPS  H17S 2069   6.715   0.256   8.467  0.0365  0.9560  0.5862
   16SAPS  C218 2070   6.802   0.179   8.656  1.1697 -0.1434  0.6201
   16SAPS  H18R 2071   6.796   0.277   8.708  1.0599  2.3039 -3.5508
   16SAPS  H18S 2072   6.897   0.133   8.693  1.8989  1.2652  0.5725
   16SAPS  C219 2073   6.686   0.096   8.693  0.4783 -0.7020  1.1005
   16SAPS  H19R 2074   6.699   0.000   8.638  0.9662 -0.7880  1.3626
   16SAPS  H19S 2075   6.588   0.136   8.659  1.1330 -1.0115 -1.3258
   16SAPS  C220 2076   6.667   0.065   8.843  0.0870 -0.4328 -0.3410
   16SAPS  H20R 2077   6.563   0.032   8.866  0.1514 -2.7380 -2.8817
   16SAPS  H20S 2078   6.698   0.155   8.900  0.9859 -1.2496  0.5016
   16SAPS  H20T 2079   6.740  -0.014   8.872 -0.4696 -1.0331 -0.5497
   16SAPS   C33 2080   6.923   0.467   7.509 -0.2623  0.5556  0.2500
   16SAPS   H3X 2081   6.957   0.465   7.614  1.3493 -0.2833 -0.2501
   16SAPS   H3Y 2082   6.895   0.364   7.478 -1.0778  1.3537 -1.8355
   16SAPS   C34 2083   6.794   0.549   7.512  0.2116 -0.1672 -0.4859
   16SAPS   H4X 2084   6.756   0.531   7.409  0.3689 -1.1550 -0.3799
   16SAPS   H4Y 2085   6.831   0.654   7.523  2.1314 -0.9828  1.6856
   16SAPS   C35 2086   6.688   0.496   7.615  0.7288 -0.1179  0.2272
   16SAPS   H5X 2087   6.674   0.387   7.598  1.6191 -0.1707 -0.2049
   16SAPS   H5Y 2088   6.588   0.541   7.596  0.5843 -0.2728  0.6180
   16SAPS   C36 2089   6.740   0.519   7.761 -0.4309  0.4780 -0.1770
   16SAPS   H6X 2090   6.745   0.629   7.779 -2.5184  1.2523 -3.4880
   16SAPS   H6Y 2091   6.834   0.464   7.779 -0.8556 -0.7968 -1.6194
   16SAPS   C37 2092   6.642   0.485   7.881  0.8258  0.4201  0.9832
   16SAPS   H7X 2093   6.586   0.395   7.848  0.2264  1.5517 -1.3093
   16SAPS   H7Y 2094   6.565   0.565   7.879 -1.4868 -1.6991 -0.0754
   16SAPS   C38 2095   6.704   0.449   8.016 -0.7719 -0.8781  0.5593
   16SAPS   H8X 2096   6.778   0.529   8.038 -1.4746 -0.0678  0.0360
   16SAPS   H8Y 2097   6.770   0.360   8.008 -1.9990 -1.6502 -1.6952
   16SAPS   C39 2098   6.612   0.457   8.137  0.0252 -0.0660 -0.2827
   16SAPS   H9X 2099   6.651   0.398   8.222  2.4512 -0.5710 -1.6515
   16SAPS   H9Y 2100   6.511   0.417   8.112  0.4068 -0.4741 -1.2405
   16SAPS  C310 2101   6.601   0.596   8.191 -0.1306 -0.0300  0.1339
   16SAPS  H10X 2102   6.558   0.652   8.105  0.1802 -0.1206 -0.0800
   16SAPS  H10Y 2103   6.691   0.655   8.219 -0.6519  0.4454  0.8748
   16SAPS  C311 2104   6.494   0.596   8.302 -0.1247 -0.2110  0.0234
   16SAPS  H11X 2105   6.527   0.510   8.365 -0.4925 -2.2124 -2.3298
   16SAPS  H11Y 2106   6.393   0.575   8.259  0.4135  0.3008 -1.5916
   16SAPS  C312 2107   6.499   0.717   8.403 -0.2310  0.4371  0.3817
   16SAPS  H12X 2108   6.469   0.816   8.364 -1.1985  0.4035  1.0109
   16SAPS  H12Y 2109   6.605   0.730   8.433 -0.0245 -0.7075  0.2123
   16SAPS  C313 2110   6.425   0.691   8.535  0.0380 -0.1301  0.0523
   16SAPS  H13X 2111   6.469   0.601   8.583  2.3521  0.9261  0.0571
   16SAPS  H13Y 2112   6.318   0.672   8.513 -0.5644 -0.0286  2.5628
   16SAPS  C314 2113   6.411   0.797   8.654 -0.0841 -0.3494  0.6312
   16SAPS  H14X 2114   6.334   0.866   8.614  2.7873  2.4335 -0.5203
   16SAPS  H14Y 2115   6.503   0.856   8.675  0.3933 -0.5072 -0.8379
   16SAPS  C315 2116   6.368   0.731   8.785  0.2672 -0.2868  0.3553
   16SAPS  H15X 2117   6.463   0.691   8.826  0.7308  0.1376 -0.2953
   16SAPS  H15Y 2118   6.295   0.652   8.757 -0.1859  1.2744 -3.4253
   16SAPS  C316 2119   6.286   0.816   8.888 -0.1379  0.9196 -0.4527
   16SAPS  H16X 2120   6.363   0.881   8.936 -0.6233  1.1162  0.0672
   16SAPS  H16Y 2121   6.229   0.755   8.961  1.0916 -0.4144 -0.5536
   16SAPS  C317 2122   6.175   0.899   8.818 -0.6843 -0.1018  0.4942
   16SAPS  H17X 2123   6.125   0.840   8.738 -1.7882  1.2890  0.1295
   16SAPS  H17Y 2124   6.229   0.982   8.767 -1.3117  1.0580  1.6714
   16SAPS  C318 2125   6.075   0.964   8.908 -0.7285  0.1193  0.1615
   16SAPS  H18X 2126   6.034   0.878   8.966  1.9068 -0.1524  1.7478
   16SAPS  H18Y 2127   5.990   1.009   8.852  1.2580  3.4668 -0.4252
   16SAPS  H18Z 2128   6.114   1.038   8.980  0.2451  2.0115 -2.1698
   17SAPC     N 2129   3.738   3.534  10.314  0.8257  0.3468 -0.7582
   17SAPC   C12 2130   3.822   3.414  10.355  0.0445  0.0600 -0.0478
   17SAPC  H12A 2131   3.763   3.341  10.407 -0.5320  1.7058  1.7331
   17SAPC  H12B 2132   3.894   3.436  10.433  1.1795 -1.5428 -0.5811
   17SAPC   C13 2133   3.805   3.642  10.243  0.4250 -0.5830  0.4036
   17SAPC  H13A 2134   3.722   3.703  10.210  0.9443 -1.1693 -2.2756
   17SAPC  H13B 2135   3.878   3.698  10.299  0.7987 -1.0717  0.4079
   17SAPC  H13C 2136   3.840   3.601  10.149 -1.2904  1.2069 -1.1265
   17SAPC   C14 2137   3.643   3.480  10.208  0.3421 -0.5752 -0.3670
   17SAPC  H14A 2138   3.562   3.550  10.190 -0.8517 -1.8189 -0.0409
   17SAPC  H14B 2139   3.688   3.466  10.111 -0.3876  1.2379 -1.0162
   17SAPC  H14C 2140   3.604   3.384  10.237  0.2971 -0.3191  0.4642
   17SAPC   C15 2141   3.648   3.579  10.423 -0.3721 -0.4705 -0.3088
   17SAPC  H15A 2142   3.704   3.619  10.506  0.1474  0.3899 -1.0590
   17SAPC  H15B 2143   3.586   3.660  10.388 -0.8328 -1.4603 -1.8556
   17SAPC  H15C 2144   3.572   3.505  10.445  1.1893 -1.4775  2.1217
   17SAPC   C11 2145   3.906   3.350  10.237 -0.0938  0.3831  0.9587
   17SAPC  H11A 2146   3.968   3.427  10.186  1.0123 -0.1902  1.4025
   17SAPC  H11B 2147   3.832   3.306  10.167  0.1813  0.1099  0.8393
   17SAPC     P 2148   4.139   3.276  10.325  0.0120 -0.2662 -0.0578
   17SAPC   O13 2149   4.144   3.403  10.401 -0.1879  0.6405  0.1417
   17SAPC   O14 2150   4.192   3.155  10.388 -0.0551  0.3760  0.0163
   17SAPC   O12 2151   3.985   3.249  10.294  0.2558 -0.0928 -0.6943
   17SAPC   O11 2152   4.224   3.305  10.193 -0.2939 -0.0091 -0.9456
   17SAPC    C1 2153   4.321   3.213  10.139 -0.6186 -0.7440 -0.5405
   17SAPC    HA 2154   4.416   3.268  10.121 -1.1304 -0.3500 -2.2368
   17SAPC    HB 2155   4.332   3.129  10.210 -1.2152  0.2186  0.7149
   17SAPC    C2 2156   4.281   3.158   9.999  0.9805 -0.4570 -0.6441
   17SAPC    HS 2157   4.217   3.069  10.017 -1.2331  1.4276  1.5665
   17SAPC   O21 2158   4.393   3.126   9.924 -0.4677  0.4257 -0.1834
   17SAPC   C21 2159   4.463   3.024   9.976  0.3699 -0.2588 -0.1853
   17SAPC   O22 2160   4.431   2.962  10.079 -0.8191 -0.4673  0.1575
   17SAPC   C22 2161   4.599   3.023   9.912 -0.5867 -0.1615  0.0219
   17SAPC   H2R 2162   4.598   2.985   9.808  0.7532  0.8374 -0.3862
   17SAPC   H2S 2163   4.639   3.126   9.897 -1.5430  0.1701 -0.3429
   17SAPC    C3 2164   4.194   3.266   9.926  0.2242 -0.2133 -0.2726
   17SAPC    HX 2165   4.268   3.348   9.913 -0.8070  0.5352 -1.6085
   17SAPC    HY 2166   4.113   3.287   9.998 -0.1300 -2.3938  0.0565
   17SAPC   O31 2167   4.152   3.242   9.793  0.3813 -0.4382 -0.0158
   17SAPC   C31 2168   4.046   3.166   9.782  0.4463 -0.5934 -0.4699
   17SAPC   O32 2169   3.978   3.116   9.869 -0.5498  1.0485  0.3355
   17SAPC   C32 2170   4.016   3.133   9.636 -0.5287  0.4861 -0.8465
   17SAPC   H2X 2171   3.913   3.169   9.612 -2.4330 -2.4952  2.0626
   17SAPC   H2Y 2172   4.011   3.023   9.633  1.2806  0.3577 -0.2930
   17SAPC   C23 2173   4.699   2.946   9.993 -0.4334 -0.6599 -0.4223
   17SAPC   H3R 2174   4.677   2.837   9.997  2.4111 -1.3324 -0.4693
   17SAPC   H3S 2175   4.702   2.987  10.096 -1.0173 -0.4958 -0.4675
   17SAPC   C24 2176   4.837   2.948   9.933  0.1714 -0.6029 -0.2956
   17SAPC   H4R 2177   4.813   2.934   9.826  2.1330 -1.7841 -0.6320
   17SAPC   H4S 2178   4.896   2.863   9.972 -0.8961  0.6950  4.9500
   17SAPC   C25 2179   4.914   3.074   9.962  0.6286 -0.1157 -0.6651
   17SAPC   H5R 2180   4.912   3.117  10.063 -0.7870 -0.2419 -0.6204
   17SAPC   C26 2181   4.997   3.142   9.882 -0.2548 -0.0153 -0.0545
   17SAPC   H6R 2182   5.064   3.210   9.936 -0.6128  0.0710  0.2814
   17SAPC   C27 2183   5.037   3.106   9.742  0.4351  0.1419 -0.3095
   17SAPC   H7R 2184   4.963   3.031   9.708 -0.5436  0.6355  0.6651
   17SAPC   H7S 2185   5.134   3.052   9.734  0.3023  0.0230 -1.1537
   17SAPC   C28 2186   5.018   3.219   9.649  0.2340 -0.4092  0.1580
   17SAPC   H8R 2187   5.078   3.308   9.673 -0.6487  0.6923 -1.4768
   17SAPC   C29 2188   4.957   3.226   9.529 -0.6731 -0.2514 -0.1966
   17SAPC   H9R 2189   4.943   3.325   9.483 -1.4166 -0.3852 -0.2698
   17SAPC  C210 2190   4.906   3.110   9.451  0.5776 -0.0843 -0.0970
   17SAPC  H10R 2191   4.854   3.032   9.511 -1.9650  0.5312 -1.3884
   17SAPC  H10S 2192   4.990   3.049   9.410  1.9279  1.5842  0.0757
   17SAPC  C211 2193   4.822   3.155   9.333 -0.8205  0.1147  0.0569
   17SAPC  H11R 2194   4.859   3.239   9.272 -1.7991  0.4305 -0.1232
   17SAPC  C212 2195   4.702   3.104   9.305  0.2274  0.3334 -0.5132
   17SAPC  H12R 2196   4.648   3.140   9.217 -0.6826 -2.9999 -1.4535
   17SAPC  C213 2197   4.634   2.993   9.376  0.2099  0.6678 -0.2980
   17SAPC  H13R 2198   4.700   2.911   9.409  0.6796  0.5191 -1.5640
   17SAPC  H13S 2199   4.569   2.948   9.298  0.7234  1.1482 -1.0164
   17SAPC  C214 2200   4.547   3.043   9.494  0.0256 -0.4824  0.7486
   17SAPC  H14R 2201   4.569   3.146   9.527  0.2341  0.3518 -1.7470
   17SAPC  C215 2202   4.465   2.968   9.566  0.3360  0.1400 -0.0728
   17SAPC  H15R 2203   4.403   3.008   9.647  0.6012 -1.2408  0.8379
   17SAPC  C216 2204   4.444   2.824   9.550 -0.1417 -0.5122  0.6224
   17SAPC  H16R 2205   4.523   2.781   9.485  1.1371  2.1083  0.2984
   17SAPC  H16S 2206   4.346   2.807   9.499  1.1361 -0.5032 -2.0246
   17SAPC  C217 2207   4.437   2.745   9.675 -0.2159  0.1073 -0.2646
   17SAPC  H17R 2208   4.514   2.766   9.753 -0.3527 -1.5756  0.3650
   17SAPC  H17S 2209   4.455   2.641   9.641  0.5476 -0.0133  0.4720
   17SAPC  C218 2210   4.301   2.760   9.739 -0.1931  0.4373  0.1679
   17SAPC  H18R 2211   4.216   2.757   9.668 -0.1153 -5.6111 -0.1740
   17SAPC  H18S 2212   4.300   2.858   9.791  0.7901 -0.1038  1.2428
   17SAPC  C219 2213   4.286   2.654   9.843  0.7377 -0.7555  0.1790
   17SAPC  H19R 2214   4.361   2.678   9.921 -0.0427 -0.4426  0.8382
   17SAPC  H19S 2215   4.312   2.554   9.801 -1.1438 -0.9020 -0.7487
   17SAPC  C220 2216   4.146   2.658   9.911  0.0910  0.4385 -0.0920
   17SAPC  H20R 2217   4.068   2.639   9.834 -0.0240 -3.6049  0.8046
   17SAPC  H20S 2218   4.127   2.761   9.949 -0.9399 -0.3984  1.7997
   17SAPC  H20T 2219   4.148   2.586   9.995  0.9166  1.2095  0.5666
   17SAPC   C33 2220   4.120   3.174   9.529  0.3488  0.3948 -0.4302
   17SAPC   H3X 2221   4.207   3.106   9.541  1.1263  0.5306 -4.1600
   17SAPC   H3Y 2222   4.155   3.278   9.543 -0.8935  0.8319 -0.3888
   17SAPC   C34 2223   4.057   3.173   9.393 -0.3779  0.2550  0.0439
   17SAPC   H4X 2224   3.958   3.221   9.396 -1.5035 -1.9440  0.4933
   17SAPC   H4Y 2225   4.040   3.070   9.354  4.7304 -0.3854 -1.2618
   17SAPC   C35 2226   4.151   3.241   9.281  0.5249  0.2151 -0.5039
   17SAPC   H5X 2227   4.228   3.165   9.256  0.6800  1.0774 -2.8346
   17SAPC   H5Y 2228   4.202   3.334   9.312 -1.1633  1.7844 -2.2296
   17SAPC   C36 2229   4.056   3.247   9.163 -0.3673 -0.2596  0.2511
   17SAPC   H6X 2230   3.968   3.309   9.188  0.6004  0.5688  1.7878
   17SAPC   H6Y 2231   4.015   3.147   9.137 -0.5583 -0.1664  0.1906
   17SAPC   C37 2232   4.129   3.301   9.042  0.1712 -1.1596  0.2263
   17SAPC   H7X 2233   4.239   3.311   9.055  0.7279 -0.2767 -3.8282
   17SAPC   H7Y 2234   4.094   3.404   9.021  2.0589 -0.9211 -2.0757
   17SAPC   C38 2235   4.116   3.233   8.903 -0.1134  0.2804  0.4509
   17SAPC   H8X 2236   4.162   3.308   8.835  1.0254 -0.2638  0.5883
   17SAPC   H8Y 2237   4.009   3.221   8.876  0.1939 -1.3644 -0.1397
   17SAPC   C39 2238   4.193   3.101   8.891  0.3654 -0.9566  0.0259
   17SAPC   H9X 2239   4.145   3.024   8.955 -1.0143  1.1018  1.5936
   17SAPC   H9Y 2240   4.290   3.117   8.944  0.4970  2.6757 -1.0509
   17SAPC  C310 2241   4.194   3.061   8.741 -0.4840 -0.3433  0.2741
   17SAPC  H10X 2242   4.260   3.140   8.700  1.2832 -2.3155 -0.8590
   17SAPC  H10Y 2243   4.095   3.063   8.690 -1.1207 -1.1968  1.4207
   17SAPC  C311 2244   4.268   2.928   8.723 -0.1203  0.4450 -0.4936
   17SAPC  H11X 2245   4.210   2.849   8.773 -1.0567  2.4193  1.7483
   17SAPC  H11Y 2246   4.363   2.922   8.781 -0.8819 -0.9583  0.6599
   17SAPC  C312 2247   4.306   2.911   8.577 -0.6889  0.4856  0.4150
   17SAPC  H12X 2248   4.396   2.851   8.555  0.2175  1.9903 -0.1802
   17SAPC  H12Y 2249   4.337   3.007   8.530  0.4241 -0.6787 -1.3623
   17SAPC  C313 2250   4.196   2.853   8.482  0.7116 -0.1463  0.4188
   17SAPC  H13X 2251   4.103   2.907   8.511  2.1433  3.1759 -0.7252
   17SAPC  H13Y 2252   4.168   2.749   8.508 -0.1103  0.3391  1.5445
   17SAPC  C314 2253   4.209   2.876   8.332  0.7708 -0.6588  0.7071
   17SAPC  H14X 2254   4.294   2.942   8.303 -0.2098  0.3805  0.1150
   17SAPC  H14Y 2255   4.122   2.902   8.268  2.5378  3.0224 -0.4855
   17SAPC  C315 2256   4.247   2.743   8.267  0.0280  0.9638 -0.2993
   17SAPC  H15X 2257   4.166   2.668   8.277  0.3941  0.3181 -1.8921
   17SAPC  H15Y 2258   4.330   2.696   8.325  0.1874 -1.2557 -2.1643
   17SAPC  C316 2259   4.281   2.759   8.121  0.3870 -0.2086  0.1696
   17SAPC  H16X 2260   4.355   2.842   8.117  1.3740 -0.9174  2.0084
   17SAPC  H16Y 2261   4.188   2.793   8.072  0.5070  2.4457  1.5893
   17SAPC  C317 2262   4.328   2.637   8.040 -0.4720  0.0850 -0.7935
   17SAPC  H17X 2263   4.435   2.623   8.066 -0.5267 -1.3226 -1.2747
   17SAPC  H17Y 2264   4.317   2.661   7.932 -0.0690  0.5631 -0.7334
   17SAPC  C318 2265   4.255   2.508   8.073 -0.3877 -0.0969  0.4240
   17SAPC  H18X 2266   4.256   2.428   7.996 -0.2696  0.0341  0.2886
   17SAPC  H18Y 2267   4.285   2.473   8.174 -0.9032 -0.4799  0.4469
   17SAPC  H18Z 2268   4.150   2.541   8.089 -0.0115  1.0357  0.6467
   18SAPC     N 2269   5.493   3.173  10.662  0.1092  0.7665 -0.2317
   18SAPC   C12 2270   5.405   3.093  10.564 -0.4516 -0.1781 -0.4577
   18SAPC  H12A 2271   5.339   3.169  10.522  1.0319  2.5925  1.8447
   18SAPC  H12B 2272   5.335   3.024  10.607  0.3959 -0.0101  1.2423
   18SAPC   C13 2273   5.562   3.282  10.585  0.1921  0.6095  0.3562
   18SAPC  H13A 2274   5.620   3.237  10.505  1.0924  3.0002 -0.4199
   18SAPC  H13B 2275   5.492   3.354  10.547  0.4033  0.7440  0.2189
   18SAPC  H13C 2276   5.626   3.340  10.650  0.4511 -0.3739  0.9995
   18SAPC   C14 2277   5.406   3.228  10.769  0.3991  0.2566 -0.1402
   18SAPC  H14A 2278   5.316   3.265  10.722 -0.9908 -0.0480  2.1394
   18SAPC  H14B 2279   5.372   3.156  10.842  1.3346  0.3407  0.4016
   18SAPC  H14C 2280   5.445   3.318  10.816  0.2360 -0.0348  0.5675
   18SAPC   C15 2281   5.588   3.083  10.731 -0.0487  0.3241  0.1635
   18SAPC  H15A 2282   5.536   3.008  10.788 -1.2322 -0.2174 -1.5244
   18SAPC  H15B 2283   5.640   3.024  10.657 -2.0330 -1.7731  0.3270
   18SAPC  H15C 2284   5.660   3.126  10.799 -0.0393 -0.4714  0.6679
   18SAPC   C11 2285   5.473   3.010  10.450  0.2487  0.1973  0.4420
   18SAPC  H11A 2286   5.555   3.069  10.404 -0.8845 -0.4385 -2.6432
   18SAPC  H11B 2287   5.401   3.000  10.365  0.7028 -1.6963  0.2283
   18SAPC     P 2288   5.407   2.775  10.518 -0.0591 -0.0315  0.1077
   18SAPC   O13 2289   5.460   2.660  10.591  0.1133  0.0781 -0.0085
   18SAPC   O14 2290   5.279   2.826  10.573  0.2698 -0.2928 -0.3424
   18SAPC   O12 2291   5.514   2.885  10.503 -0.2795  0.0781 -0.8864
   18SAPC   O11 2292   5.375   2.723  10.366 -0.7674 -0.0716  0.1378
   18SAPC    C1 2293   5.475   2.726  10.264 -0.4389  0.3468 -0.1705
   18SAPC    HA 2294   5.449   2.812  10.199  1.9388  0.5173 -0.9655
   18SAPC    HB 2295   5.575   2.750  10.306 -1.2322 -1.4405  3.1357
   18SAPC    C2 2296   5.480   2.587  10.185  0.0794 -0.0918 -0.4945
   18SAPC    HS 2297   5.570   2.598  10.122 -0.6213 -3.7864 -2.4571
   18SAPC   O21 2298   5.371   2.567  10.096  0.4508 -0.1516 -0.4913
   18SAPC   C21 2299   5.352   2.651  10.001  0.2055 -0.0916 -0.2765
   18SAPC   O22 2300   5.431   2.733   9.960 -0.2176  0.2778 -0.0021
   18SAPC   C22 2301   5.210   2.619   9.939  0.1545 -0.1673  0.7086
   18SAPC   H2R 2302   5.200   2.509   9.937 -1.0202 -0.0621  0.2471
   18SAPC   H2S 2303   5.123   2.667   9.989 -1.2075 -0.5837 -1.1324
   18SAPC    C3 2304   5.490   2.466  10.288 -0.3183  0.6110 -0.2196
   18SAPC    HX 2305   5.403   2.474  10.356  0.5528  2.4647  0.7541
   18SAPC    HY 2306   5.575   2.490  10.355 -0.0568 -0.0884 -0.2913
   18SAPC   O31 2307   5.513   2.335  10.231 -0.0980  0.2385 -0.4051
   18SAPC   C31 2308   5.403   2.259  10.212 -0.6312 -0.3062  0.1996
   18SAPC   O32 2309   5.293   2.302  10.238 -0.1828  0.4201  0.2420
   18SAPC   C32 2310   5.440   2.125  10.133  0.5201 -0.2799 -0.2137
   18SAPC   H2X 2311   5.427   2.036  10.198  0.9426 -0.1649  0.0372
   18SAPC   H2Y 2312   5.547   2.139  10.107 -0.3417  4.2507 -2.3297
   18SAPC   C23 2313   5.202   2.658   9.792 -0.5129 -0.1004  0.5994
   18SAPC   H3R 2314   5.286   2.614   9.734 -0.0411 -0.7624  1.7615
   18SAPC   H3S 2315   5.218   2.766   9.772 -1.2672 -0.0907 -0.0267
   18SAPC   C24 2316   5.069   2.619   9.724  0.1642 -0.6636 -0.7538
   18SAPC   H4R 2317   4.996   2.684   9.777  0.6317 -2.5193  2.4376
   18SAPC   H4S 2318   5.042   2.516   9.757  0.1493 -0.9381 -1.5934
   18SAPC   C25 2319   5.063   2.622   9.571 -0.3080  1.3212  0.0992
   18SAPC   H5R 2320   5.132   2.693   9.523  1.4470  0.1947  0.8308
   18SAPC   C26 2321   5.005   2.530   9.490  0.4137 -0.1777  0.4813
   18SAPC   H6R 2322   5.027   2.530   9.382  0.1516 -0.9141  0.4207
   18SAPC   C27 2323   4.931   2.411   9.539 -0.3478  0.1658 -0.8652
   18SAPC   H7R 2324   4.860   2.456   9.611  0.9167  1.9302 -0.6516
   18SAPC   H7S 2325   4.998   2.346   9.599 -1.3821  0.6521  0.8783
   18SAPC   C28 2326   4.864   2.319   9.442 -0.0767 -0.6665  0.0702
   18SAPC   H8R 2327   4.897   2.215   9.450 -0.7208 -0.7441  2.5824
   18SAPC   C29 2328   4.769   2.353   9.361 -0.0763 -0.2453 -0.3707
   18SAPC   H9R 2329   4.732   2.271   9.297 -1.5965 -0.6469  0.9532
   18SAPC  C210 2330   4.691   2.478   9.358 -0.6209  0.4872  0.5721
   18SAPC  H10R 2331   4.653   2.500   9.255  0.0208  0.0719  0.2392
   18SAPC  H10S 2332   4.760   2.554   9.399  3.0165 -2.8642  1.3254
   18SAPC  C211 2333   4.570   2.461   9.441  0.1614  0.9947 -0.1965
   18SAPC  H11R 2334   4.600   2.482   9.544 -2.0587  1.0539  0.4990
   18SAPC  C212 2335   4.450   2.401   9.414 -0.5259 -0.2911  0.4716
   18SAPC  H12R 2336   4.372   2.417   9.490 -2.2564 -0.8189 -1.0955
   18SAPC  C213 2337   4.401   2.346   9.274  0.3760  0.3949 -0.4595
   18SAPC  H13R 2338   4.487   2.339   9.205  1.0428 -1.8564  0.5096
   18SAPC  H13S 2339   4.321   2.411   9.234 -1.3489 -0.0095  2.1057
   18SAPC  C214 2340   4.336   2.209   9.272  0.2552 -0.5378  0.1699
   18SAPC  H14R 2341   4.303   2.165   9.367  0.7666  0.3754  0.7910
   18SAPC  C215 2342   4.359   2.115   9.181 -0.7379 -0.0162 -0.1015
   18SAPC  H15R 2343   4.314   2.014   9.187  0.8604 -1.0957 -3.5255
   18SAPC  C216 2344   4.440   2.127   9.050 -0.0265 -0.4225 -0.3083
   18SAPC  H16R 2345   4.544   2.096   9.070 -0.2963 -1.4416 -0.4507
   18SAPC  H16S 2346   4.430   2.222   8.992  1.0267  1.0155  1.7448
   18SAPC  C217 2347   4.390   2.024   8.946  0.1518  0.3030 -0.1121
   18SAPC  H17R 2348   4.284   2.043   8.919 -0.4940 -0.0263  1.9865
   18SAPC  H17S 2349   4.378   1.923   8.990  0.5127  1.2916  2.4536
   18SAPC  C218 2350   4.470   2.002   8.818  0.0585 -0.6558  0.1101
   18SAPC  H18R 2351   4.579   1.982   8.831  0.1323 -0.0943  0.4087
   18SAPC  H18S 2352   4.464   2.098   8.763  0.0434 -0.5149  0.3546
   18SAPC  C219 2353   4.409   1.898   8.731  0.2741 -0.1818  0.8473
   18SAPC  H19R 2354   4.320   1.938   8.679 -0.3206 -0.9986  1.1971
   18SAPC  H19S 2355   4.375   1.806   8.785 -1.7678 -0.1838 -0.3366
   18SAPC  C220 2356   4.490   1.853   8.608 -0.0502 -0.2558 -0.2851
   18SAPC  H20R 2357   4.536   1.940   8.558 -0.7871  1.3092  1.6360
   18SAPC  H20S 2358   4.422   1.800   8.538  1.0023  1.4838 -2.7673
   18SAPC  H20T 2359   4.582   1.798   8.641  1.4254  1.3802 -1.4985
   18SAPC   C33 2360   5.352   2.116  10.009  0.4521 -0.0423 -0.1371
   18SAPC   H3X 2361   5.247   2.123  10.042  0.4463 -0.8020  0.0271
   18SAPC   H3Y 2362   5.362   2.014   9.966 -0.7967 -1.0021  1.7660
   18SAPC   C34 2363   5.379   2.228   9.905 -0.4347 -0.0716  1.0552
   18SAPC   H4X 2364   5.478   2.216   9.856 -0.5846  0.3127  0.6470
   18SAPC   H4Y 2365   5.368   2.331   9.943  1.6157  0.6404 -0.1181
   18SAPC   C35 2366   5.271   2.234   9.791  0.3735 -0.4603 -0.6031
   18SAPC   H5X 2367   5.302   2.322   9.729 -1.1380 -0.3443 -1.2370
   18SAPC   H5Y 2368   5.175   2.256   9.842  0.0539 -0.1463 -1.3197
   18SAPC   C36 2369   5.258   2.110   9.696 -0.3299  0.3649 -0.2892
   18SAPC   H6X 2370   5.201   2.029   9.746 -1.5288  0.7994 -0.9230
   18SAPC   H6Y 2371   5.365   2.083   9.684 -0.5842 -0.9331  0.2247
   18SAPC   C37 2372   5.190   2.143   9.563 -0.5466  0.0272 -0.1302
   18SAPC   H7X 2373   5.207   2.247   9.529 -1.3211  0.0793 -0.3970
   18SAPC   H7Y 2374   5.081   2.130   9.584 -1.0818  1.8609 -1.5046
   18SAPC   C38 2375   5.240   2.040   9.453  0.3000 -0.3494 -0.1615
   18SAPC   H8X 2376   5.153   1.974   9.435  0.4401 -0.8838  1.0576
   18SAPC   H8Y 2377   5.309   1.961   9.490  0.6759 -0.8582 -1.8580
   18SAPC   C39 2378   5.300   2.104   9.325  0.2344  0.4621  0.7623
   18SAPC   H9X 2379   5.352   2.034   9.256 -1.7450 -1.0776  0.7596
   18SAPC   H9Y 2380   5.374   2.181   9.356  2.0078  0.3907 -2.8439
   18SAPC  C310 2381   5.189   2.166   9.237  0.2082  0.2325 -0.2673
   18SAPC  H10X 2382   5.235   2.237   9.166  1.3758  1.2421  1.4098
   18SAPC  H10Y 2383   5.133   2.226   9.313 -0.0124 -2.5746  1.9757
   18SAPC  C311 2384   5.095   2.065   9.166  0.6676 -0.3217  0.3848
   18SAPC  H11X 2385   5.057   1.996   9.244 -3.0717  2.3661  1.2083
   18SAPC  H11Y 2386   5.138   2.016   9.076  1.0900  0.8071 -0.0485
   18SAPC  C312 2387   4.968   2.131   9.107  0.1607  0.4705 -0.9607
   18SAPC  H12X 2388   4.944   2.224   9.165  0.8159  0.2293 -0.2878
   18SAPC  H12Y 2389   4.883   2.065   9.134  2.3925 -0.9129  3.7559
   18SAPC  C313 2390   4.967   2.156   8.956  0.4193  0.8153 -0.2642
   18SAPC  H13X 2391   4.970   2.059   8.901 -1.2904  1.1706 -1.0460
   18SAPC  H13Y 2392   5.065   2.199   8.927  1.4928 -1.7634 -0.7359
   18SAPC  C314 2393   4.844   2.235   8.906 -0.3614  0.2979  0.9734
   18SAPC  H14X 2394   4.750   2.177   8.898  0.2726 -0.7153  0.7360
   18SAPC  H14Y 2395   4.888   2.276   8.813  1.4009  0.6864  1.9167
   18SAPC  C315 2396   4.802   2.355   8.986  0.2870  0.1143 -0.6347
   18SAPC  H15X 2397   4.899   2.402   9.014 -0.0948  0.5141  0.0248
   18SAPC  H15Y 2398   4.742   2.332   9.076  1.5443 -1.5228 -0.1478
   18SAPC  C316 2399   4.729   2.463   8.897  0.6758  0.1158  0.6770
   18SAPC  H16X 2400   4.633   2.421   8.861 -0.1001  1.4990  1.0547
   18SAPC  H16Y 2401   4.779   2.484   8.800 -0.4492  0.0223  0.0638
   18SAPC  C317 2402   4.724   2.591   8.965  0.4537 -0.6260  0.4750
   18SAPC  H17X 2403   4.826   2.630   8.985  1.0336 -1.1943 -1.1756
   18SAPC  H17Y 2404   4.675   2.572   9.062  1.1121 -2.7640  0.4578
   18SAPC  C318 2405   4.646   2.691   8.891 -0.1338 -0.1372  1.0471
   18SAPC  H18X 2406   4.648   2.786   8.949  2.0684 -0.5213  1.6902
   18SAPC  H18Y 2407   4.541   2.658   8.880  0.3943 -1.1866 -1.9414
   18SAPC  H18Z 2408   4.686   2.700   8.787  1.2013 -1.2142  1.4296
   19SAPC     N 2409   4.373   4.019  10.631 -0.6860 -0.1163 -0.0041
   19SAPC   C12 2410   4.254   4.113  10.659 -0.0582 -0.1252 -0.4596
   19SAPC  H12A 2411   4.266   4.187  10.581 -1.3627 -0.9412 -1.4700
   19SAPC  H12B 2412   4.262   4.157  10.757 -1.5207  1.2160 -0.9106
   19SAPC   C13 2413   4.499   4.088  10.669 -0.3776 -0.1214 -0.3461
   19SAPC  H13A 2414   4.570   4.024  10.619  0.6652 -1.6189  2.7457
   19SAPC  H13B 2415   4.505   4.184  10.620  1.2016  0.5701  1.0893
   19SAPC  H13C 2416   4.525   4.089  10.774  1.9680  1.0138 -0.8637
   19SAPC   C14 2417   4.355   3.885  10.698  0.7365  0.6491 -0.1968
   19SAPC  H14A 2418   4.338   3.904  10.803  0.2510  0.6072 -0.2679
   19SAPC  H14B 2419   4.267   3.846  10.650  0.2751 -0.7056  1.6200
   19SAPC  H14C 2420   4.430   3.808  10.693 -1.6576 -1.8712  0.2261
   19SAPC   C15 2421   4.374   3.996  10.483  0.0611  0.4836  0.1506
   19SAPC  H15A 2422   4.419   4.078  10.427  0.7493 -0.4708 -0.7356
   19SAPC  H15B 2423   4.420   3.900  10.465 -0.6317  0.0674  0.5788
   19SAPC  H15C 2424   4.271   3.995  10.450  0.1212  1.3006 -0.0827
   19SAPC   C11 2425   4.113   4.054  10.651  0.3490 -0.4502  0.9257
   19SAPC  H11A 2426   4.043   4.137  10.675 -0.3234 -1.3632  2.2316
   19SAPC  H11B 2427   4.104   3.975  10.728 -2.9685 -0.1323  1.0064
   19SAPC     P 2428   3.953   3.938  10.481 -0.2184  0.1280  0.3480
   19SAPC   O13 2429   3.992   3.819  10.396  0.2051 -0.0869 -0.1041
   19SAPC   O14 2430   3.872   3.916  10.599  0.7902 -0.2845 -0.8342
   19SAPC   O12 2431   4.091   4.001  10.520  0.2202 -0.4248 -0.2084
   19SAPC   O11 2432   3.878   4.042  10.390 -1.1254 -0.5303  0.6594
   19SAPC    C1 2433   3.854   4.181  10.427 -0.3314 -0.4460 -0.1446
   19SAPC    HA 2434   3.743   4.194  10.427 -0.4119 -0.9959 -1.5703
   19SAPC    HB 2435   3.897   4.213  10.524 -1.1815 -0.8904  0.3925
   19SAPC    C2 2436   3.920   4.274  10.320  0.3863  0.2615 -1.0131
   19SAPC    HS 2437   3.882   4.374  10.350 -0.3969 -0.9201  2.3344
   19SAPC   O21 2438   3.878   4.235  10.184  0.8622 -0.8873 -0.1933
   19SAPC   C21 2439   3.756   4.299  10.155 -1.2223 -0.6162  0.9421
   19SAPC   O22 2440   3.699   4.379  10.227 -0.6968 -0.1832 -0.2921
   19SAPC   C22 2441   3.712   4.256  10.013 -0.2727  0.0744 -0.3565
   19SAPC   H2R 2442   3.725   4.147  10.000  2.0238  0.3090 -0.4594
   19SAPC   H2S 2443   3.604   4.282  10.005 -0.2192  0.3505 -0.1965
   19SAPC    C3 2444   4.075   4.282  10.336  0.7088  0.4857 -0.4850
   19SAPC    HX 2445   4.121   4.181  10.331  2.4609  1.3058 -2.4873
   19SAPC    HY 2446   4.108   4.319  10.435  0.3881 -1.3979  0.3658
   19SAPC   O31 2447   4.120   4.369  10.236  0.6844 -0.3250 -0.2767
   19SAPC   C31 2448   4.244   4.356  10.196 -0.4468 -0.8109  0.5489
   19SAPC   O32 2449   4.322   4.272  10.236 -0.1863  0.4834  0.6353
   19SAPC   C32 2450   4.278   4.451  10.080 -0.2557  0.4259  0.4902
   19SAPC   H2X 2451   4.371   4.409  10.036  0.1161 -0.8188  2.3443
   19SAPC   H2Y 2452   4.312   4.544  10.131  3.3874 -0.4489 -0.0492
   19SAPC   C23 2453   3.782   4.345   9.906  0.0096 -0.0603  0.3479
   19SAPC   H3R 2454   3.891   4.323   9.917  0.2621 -0.1648 -1.7900
   19SAPC   H3S 2455   3.769   4.454   9.919 -2.2170 -0.4133  1.4201
   19SAPC   C24 2456   3.747   4.303   9.763  0.7895 -0.1269 -0.5240
   19SAPC   H4R 2457   3.786   4.199   9.758 -0.9127 -0.8156 -0.3392
   19SAPC   H4S 2458   3.806   4.361   9.689  2.2833 -1.0580 -0.0931
   19SAPC   C25 2459   3.603   4.314   9.721 -0.1501  0.1728  0.2284
   19SAPC   H5R 2460   3.534   4.360   9.794  1.3886  1.7542  0.7395
   19SAPC   C26 2461   3.557   4.269   9.602 -0.5267 -0.0532  0.2467
   19SAPC   H6R 2462   3.450   4.281   9.580 -0.7820 -0.9603  0.9232
   19SAPC   C27 2463   3.645   4.199   9.499 -0.2691 -0.4242  0.0157
   19SAPC   H7R 2464   3.670   4.094   9.526  2.9392  0.1107 -0.4983
   19SAPC   H7S 2465   3.743   4.250   9.496  1.1404 -2.9251  0.8388
   19SAPC   C28 2466   3.577   4.213   9.360 -0.6617  0.1235  0.1217
   19SAPC   H8R 2467   3.485   4.154   9.350 -0.4529 -0.3470  0.8782
   19SAPC   C29 2468   3.620   4.266   9.247  0.1264  0.3925 -0.2875
   19SAPC   H9R 2469   3.558   4.242   9.160 -0.0155 -3.2162  0.6583
   19SAPC  C210 2470   3.745   4.351   9.226  0.3547  0.2484 -0.4132
   19SAPC  H10R 2471   3.791   4.350   9.327 -1.1724 -1.4638  0.3127
   19SAPC  H10S 2472   3.715   4.456   9.202  1.0068 -0.1241 -3.2159
   19SAPC  C211 2473   3.835   4.294   9.122 -0.5003 -0.0375 -1.0300
   19SAPC  H11R 2474   3.873   4.192   9.140 -0.7593  0.4237  3.1371
   19SAPC  C212 2475   3.882   4.368   9.018  0.2271  0.0279 -0.3107
   19SAPC  H12R 2476   3.944   4.307   8.952 -0.1209  0.1191 -0.7271
   19SAPC  C213 2477   3.851   4.512   8.979  0.0243  0.2960 -0.0801
   19SAPC  H13R 2478   3.881   4.573   9.067  3.5048 -0.0715 -0.8799
   19SAPC  H13S 2479   3.740   4.523   8.971  0.1754  0.9356 -1.4765
   19SAPC  C214 2480   3.924   4.563   8.859 -0.7666  0.8919 -0.1077
   19SAPC  H14R 2481   4.033   4.552   8.861 -0.5605  2.6908  1.5971
   19SAPC  C215 2482   3.872   4.628   8.755  0.6883  0.6776 -0.4596
   19SAPC  H15R 2483   3.938   4.641   8.668  2.0995  1.2815  0.6514
   19SAPC  C216 2484   3.730   4.664   8.722  0.3995  0.1527 -0.1745
   19SAPC  H16R 2485   3.716   4.771   8.746 -1.5444 -0.5065  2.0046
   19SAPC  H16S 2486   3.655   4.606   8.780  0.5117 -1.8950 -1.9659
   19SAPC  C217 2487   3.690   4.654   8.569 -0.2078  0.6393 -0.3793
   19SAPC  H17R 2488   3.725   4.555   8.533  0.2124  0.1210  1.3673
   19SAPC  H17S 2489   3.755   4.731   8.521  1.2229 -0.6667 -0.5925
   19SAPC  C218 2490   3.541   4.659   8.545 -0.0061  0.4216  0.5923
   19SAPC  H18R 2491   3.485   4.748   8.580  0.1530  0.6746  0.2141
   19SAPC  H18S 2492   3.499   4.577   8.606  0.4673  0.3659  0.8499
   19SAPC  C219 2493   3.495   4.639   8.404 -0.6452  0.0678  0.0126
   19SAPC  H19R 2494   3.405   4.576   8.402 -1.0920  0.1389  4.9129
   19SAPC  H19S 2495   3.577   4.587   8.350 -0.8655  0.6283 -0.8805
   19SAPC  C220 2496   3.478   4.766   8.325  0.1320  0.3239 -0.8399
   19SAPC  H20R 2497   3.422   4.746   8.231 -0.9393  2.9523 -0.8421
   19SAPC  H20S 2498   3.576   4.817   8.316  0.5104  0.2874  1.9733
   19SAPC  H20T 2499   3.406   4.837   8.372  0.1293 -0.6316  0.6833
   19SAPC   C33 2500   4.161   4.469   9.984 -0.6093  0.0810 -0.1174
   19SAPC   H3X 2501   4.078   4.510  10.045  0.0658  0.6071  0.4743
   19SAPC   H3Y 2502   4.126   4.371   9.947  0.4607 -0.3052 -0.1453
   19SAPC   C34 2503   4.189   4.568   9.861 -0.1876  0.4793 -0.2987
   19SAPC   H4X 2504   4.255   4.515   9.789 -1.0187  0.5634 -1.1388
   19SAPC   H4Y 2505   4.253   4.653   9.892  1.5846 -0.8354 -0.1870
   19SAPC   C35 2506   4.065   4.604   9.777  0.3600 -0.1823 -0.1750
   19SAPC   H5X 2507   3.992   4.673   9.825  0.3427 -1.2696  1.4219
   19SAPC   H5Y 2508   4.004   4.513   9.763  1.1339 -0.5229 -1.4916
   19SAPC   C36 2509   4.112   4.667   9.645  0.0956  0.3141 -0.0980
   19SAPC   H6X 2510   4.157   4.590   9.580  1.4648  1.3026 -0.3598
   19SAPC   H6Y 2511   4.199   4.734   9.657  1.8810 -2.0661  0.9516
   19SAPC   C37 2512   3.996   4.737   9.568 -1.0778  0.5231 -0.0355
   19SAPC   H7X 2513   3.952   4.816   9.632 -0.4142 -0.5488  1.8018
   19SAPC   H7Y 2514   3.916   4.661   9.552  0.2014 -0.2575 -3.8370
   19SAPC   C38 2515   4.042   4.787   9.435  0.2607 -0.0419  0.4218
   19SAPC   H8X 2516   4.123   4.863   9.434  0.9516 -0.7666  0.2826
   19SAPC   H8Y 2517   3.957   4.851   9.404  1.2992  1.7798  1.2216
   19SAPC   C39 2518   4.079   4.683   9.332  0.2927 -1.0251 -0.4126
   19SAPC   H9X 2519   4.000   4.605   9.324 -0.8069 -0.4957  3.5212
   19SAPC   H9Y 2520   4.175   4.630   9.350  1.6193  1.2279 -0.6204
   19SAPC  C310 2521   4.074   4.750   9.194  0.2610 -1.0941  0.6709
   19SAPC  H10X 2522   3.977   4.804   9.186  0.6122 -0.6357 -0.8270
   19SAPC  H10Y 2523   4.069   4.675   9.112 -1.7896 -0.5284  0.2328
   19SAPC  C311 2524   4.189   4.841   9.166  0.4712  0.0209 -0.8055
   19SAPC  H11X 2525   4.281   4.785   9.194 -0.7438 -1.0848  1.2189
   19SAPC  H11Y 2526   4.180   4.918   9.245  0.0657 -1.1930  0.3640
   19SAPC  C312 2527   4.191   4.880   9.020 -0.4746  0.5300 -0.2953
   19SAPC  H12X 2528   4.227   4.982   8.994  0.9522  0.0522 -0.2978
   19SAPC  H12Y 2529   4.086   4.880   8.984 -0.5200 -1.5893 -0.2678
   19SAPC  C313 2530   4.266   4.777   8.933  0.4636 -0.3375  0.0668
   19SAPC  H13X 2531   4.232   4.672   8.946 -0.2369 -0.3918 -1.9027
   19SAPC  H13Y 2532   4.372   4.771   8.966  0.3342 -2.4531  0.2526
   19SAPC  C314 2533   4.272   4.823   8.786 -0.2409 -0.0604 -0.2337
   19SAPC  H14X 2534   4.331   4.917   8.786 -1.0559  0.5644  2.6660
   19SAPC  H14Y 2535   4.165   4.839   8.760 -0.9108  0.7272  2.6536
   19SAPC  C315 2536   4.368   4.738   8.694  0.3620  0.6235 -0.0958
   19SAPC  H15X 2537   4.342   4.630   8.699 -0.6840  0.8123 -1.0670
   19SAPC  H15Y 2538   4.475   4.757   8.718  1.1644  1.0195 -3.4047
   19SAPC  C316 2539   4.364   4.782   8.542  0.2115 -0.3744 -0.4824
   19SAPC  H16X 2540   4.390   4.890   8.545 -0.3238 -0.1466 -2.4814
   19SAPC  H16Y 2541   4.263   4.769   8.498  0.0101 -0.5918  0.0436
   19SAPC  C317 2542   4.464   4.702   8.456 -0.4797  0.0452 -0.4668
   19SAPC  H17X 2543   4.563   4.738   8.494  0.0382 -0.0796 -1.6443
   19SAPC  H17Y 2544   4.457   4.730   8.349 -1.1718 -2.6954 -1.2166
   19SAPC  C318 2545   4.446   4.551   8.468  0.3997 -0.4198 -0.3243
   19SAPC  H18X 2546   4.470   4.531   8.574 -0.2392  3.2164  0.6452
   19SAPC  H18Y 2547   4.504   4.484   8.400  1.5157 -0.0580  0.2402
   19SAPC  H18Z 2548   4.338   4.531   8.455 -0.2511  1.6710  1.3428
   20SAPC     N 2549   4.616   0.838  11.092 -0.5129 -0.2158 -0.3571
   20SAPC   C12 2550   4.554   0.801  10.957 -0.3649  0.0169 -0.1749
   20SAPC  H12A 2551   4.469   0.740  10.982 -0.3722  0.5422  1.1658
   20SAPC  H12B 2552   4.623   0.732  10.909 -1.5864 -1.4648  0.1363
   20SAPC   C13 2553   4.639   0.720  11.182  0.1562  0.8801  0.0233
   20SAPC  H13A 2554   4.671   0.749  11.282  2.8285 -1.0774 -0.1580
   20SAPC  H13B 2555   4.553   0.656  11.192  0.6101  0.1436 -0.6598
   20SAPC  H13C 2556   4.711   0.653  11.139 -0.9396  0.3333 -0.9896
   20SAPC   C14 2557   4.732   0.933  11.074  0.4320  0.1875  0.0575
   20SAPC  H14A 2558   4.809   0.883  11.016  1.6284 -1.5754  2.9543
   20SAPC  H14B 2559   4.710   1.020  11.014  4.0068  0.1963 -1.5003
   20SAPC  H14C 2560   4.765   0.962  11.172  1.8868  0.0878 -0.3735
   20SAPC   C15 2561   4.513   0.908  11.174  0.3873  0.0877  0.2280
   20SAPC  H15A 2562   4.469   0.988  11.116  0.6854 -2.1903 -3.4363
   20SAPC  H15B 2563   4.433   0.844  11.208  1.2332 -0.5851  0.9922
   20SAPC  H15C 2564   4.556   0.946  11.265  2.0984  1.7938 -1.2002
   20SAPC   C11 2565   4.508   0.916  10.862 -0.6600 -0.8794 -0.2408
   20SAPC  H11A 2566   4.461   0.876  10.769  1.8305  1.3522 -2.6271
   20SAPC  H11B 2567   4.593   0.970  10.814 -1.1656 -1.7496 -2.2478
   20SAPC     P 2568   4.272   1.010  10.925 -0.5031 -0.1087 -0.1408
   20SAPC   O13 2569   4.232   0.874  10.931  0.3205  0.1160 -0.4550
   20SAPC   O14 2570   4.237   1.086  11.050  0.5303 -0.4034  0.7750
   20SAPC   O12 2571   4.431   1.017  10.919 -0.1802  0.0164  0.5060
   20SAPC   O11 2572   4.220   1.077  10.792 -0.2195  0.2215  0.2980
   20SAPC    C1 2573   4.310   1.142  10.705  0.1182  0.1085 -0.5042
   20SAPC    HA 2574   4.318   1.248  10.737 -0.7599  0.3641 -1.1144
   20SAPC    HB 2575   4.407   1.088  10.696  0.2271  0.1050  0.5267
   20SAPC    C2 2576   4.267   1.146  10.557  0.3275 -0.3621 -0.1083
   20SAPC    HS 2577   4.336   1.211  10.499  1.9150 -2.6918 -0.9893
   20SAPC   O21 2578   4.133   1.189  10.533 -0.2310  0.0322  0.0346
   20SAPC   C21 2579   4.113   1.325  10.538 -0.2782  0.1232 -0.2936
   20SAPC   O22 2580   4.201   1.407  10.532 -0.5473  0.1664  0.0443
   20SAPC   C22 2581   3.968   1.359  10.546  0.1229  0.6800  0.0731
   20SAPC   H2R 2582   3.930   1.315  10.641  2.1740  1.1881  1.1895
   20SAPC   H2S 2583   3.962   1.470  10.554  1.9662  1.0551 -2.5383
   20SAPC    C3 2584   4.279   1.006  10.483 -0.1831 -0.5371 -0.0709
   20SAPC    HX 2585   4.202   0.952  10.543  2.1611 -2.1355  1.6867
   20SAPC    HY 2586   4.375   0.955  10.505 -0.1321  0.0992  1.2150
   20SAPC   O31 2587   4.264   1.014  10.340 -0.0663  0.3147  0.2654
   20SAPC   C31 2588   4.145   0.977  10.289 -0.3706 -0.2984  0.3362
   20SAPC   O32 2589   4.050   0.939  10.352 -0.5483 -0.8047 -0.2088
   20SAPC   C32 2590   4.159   0.986  10.140  0.2063 -0.2107 -0.2413
   20SAPC   H2X 2591   4.246   0.926  10.107  0.3150 -0.8150  1.0783
   20SAPC   H2Y 2592   4.178   1.091  10.109  0.9974 -0.4487 -0.6044
   20SAPC   C23 2593   3.870   1.305  10.434 -0.0026  0.1419  0.1628
   20SAPC   H3R 2594   3.880   1.194  10.442 -0.5870  0.2014  2.1537
   20SAPC   H3S 2595   3.909   1.335  10.334 -1.1464  0.6186 -0.1524
   20SAPC   C24 2596   3.726   1.345  10.454 -0.0757 -0.6768  0.4294
   20SAPC   H4R 2597   3.702   1.340  10.562  1.8672 -2.8710  0.8506
   20SAPC   H4S 2598   3.663   1.263  10.414 -0.1227  0.2474 -1.5327
   20SAPC   C25 2599   3.700   1.477  10.389  0.2393  0.0670 -0.0593
   20SAPC   H5R 2600   3.705   1.560  10.462  0.4379 -0.0523  0.0657
   20SAPC   C26 2601   3.681   1.503  10.257  0.1385  0.7713 -0.7430
   20SAPC   H6R 2602   3.660   1.607  10.228 -1.0981  0.7876  0.1391
   20SAPC   C27 2603   3.690   1.408  10.141  0.2827 -0.5523  0.3760
   20SAPC   H7R 2604   3.605   1.436  10.075  0.3403  2.6917  1.5095
   20SAPC   H7S 2605   3.676   1.304  10.178  0.2341 -0.8880 -0.5550
   20SAPC   C28 2606   3.816   1.415  10.055  0.0551  0.5295 -0.8411
   20SAPC   H8R 2607   3.906   1.435  10.115 -1.2325  1.0376  1.0345
   20SAPC   C29 2608   3.816   1.400   9.922 -0.2811  0.5240 -0.3754
   20SAPC   H9R 2609   3.913   1.393   9.871  1.5046  0.4081  2.7932
   20SAPC  C210 2610   3.699   1.356   9.841  0.4462 -0.2267 -0.3260
   20SAPC  H10R 2611   3.606   1.338   9.900  1.3839 -0.2562  1.1876
   20SAPC  H10S 2612   3.725   1.253   9.809  2.2568 -0.0302  0.4005
   20SAPC  C211 2613   3.674   1.452   9.729 -0.5421  0.5659 -0.3828
   20SAPC  H11R 2614   3.643   1.554   9.757 -1.6633 -0.0807  0.8329
   20SAPC  C212 2615   3.693   1.433   9.598  0.0401  0.4187  1.2659
   20SAPC  H12R 2616   3.685   1.522   9.533 -0.8387 -0.8581 -0.4655
   20SAPC  C213 2617   3.767   1.318   9.524 -0.8236  1.1150  0.3517
   20SAPC  H13R 2618   3.707   1.270   9.444 -1.1675  3.3040 -0.7812
   20SAPC  H13S 2619   3.776   1.236   9.598  1.5361  0.7473 -0.2813
   20SAPC  C214 2620   3.903   1.371   9.484  0.0461 -0.2010  0.0749
   20SAPC  H14R 2621   3.942   1.419   9.575 -0.9827 -2.3054  1.7215
   20SAPC  C215 2622   3.963   1.370   9.365 -0.5530  0.6640  0.7851
   20SAPC  H15R 2623   4.055   1.420   9.333 -1.0945 -0.8818 -4.0681
   20SAPC  C216 2624   3.916   1.297   9.244  1.0693  0.0482  0.1268
   20SAPC  H16R 2625   3.860   1.204   9.271 -1.1624  0.3957 -2.8269
   20SAPC  H16S 2626   4.007   1.252   9.200  1.0181 -2.6875  2.4900
   20SAPC  C217 2627   3.840   1.388   9.143  0.1567 -0.4026  0.4560
   20SAPC  H17R 2628   3.893   1.484   9.124 -0.5931  0.0611  0.6798
   20SAPC  H17S 2629   3.748   1.426   9.192 -0.3195  0.6543 -1.1688
   20SAPC  C218 2630   3.806   1.322   9.015  0.0871  0.3893  0.2705
   20SAPC  H18R 2631   3.773   1.216   9.019  2.5520 -0.6693 -2.8507
   20SAPC  H18S 2632   3.899   1.314   8.954 -1.0864 -0.2148 -1.5049
   20SAPC  C219 2633   3.691   1.389   8.935  0.5947  0.3355  0.6857
   20SAPC  H19R 2634   3.605   1.407   9.003  0.0526 -0.2173  0.1658
   20SAPC  H19S 2635   3.662   1.321   8.852  0.1649  0.2769  0.8824
   20SAPC  C220 2636   3.727   1.527   8.879 -0.4284 -0.1094  0.0342
   20SAPC  H20R 2637   3.778   1.510   8.782  2.1566 -0.4860  1.3519
   20SAPC  H20S 2638   3.813   1.575   8.931 -1.9459  2.3991  0.3805
   20SAPC  H20T 2639   3.634   1.586   8.865 -0.1174  0.3132 -0.2729
   20SAPC   C33 2640   4.029   0.932  10.072 -0.6478  0.0078  0.5531
   20SAPC   H3X 2641   3.939   0.993  10.096 -1.3312 -0.4936 -0.6838
   20SAPC   H3Y 2642   4.009   0.828  10.102  1.0526 -1.0224 -1.5904
   20SAPC   C34 2643   4.044   0.942   9.928  0.2288  0.3764  0.4665
   20SAPC   H4X 2644   3.959   0.888   9.882 -1.3786  1.8198  1.6052
   20SAPC   H4Y 2645   4.132   0.883   9.896 -1.7217 -0.2240 -4.8103
   20SAPC   C35 2646   4.053   1.082   9.872 -0.0808 -0.6109 -0.7148
   20SAPC   H5X 2647   4.148   1.133   9.901  0.9856 -2.7143 -0.3228
   20SAPC   H5Y 2648   3.973   1.139   9.924 -0.1882 -2.2166  0.9919
   20SAPC   C36 2649   4.032   1.117   9.725 -0.3712  0.1619  0.6816
   20SAPC   H6X 2650   4.055   1.223   9.702 -0.3528  0.2288  1.0048
   20SAPC   H6Y 2651   3.927   1.085   9.704 -0.4382  0.7636  0.0725
   20SAPC   C37 2652   4.124   1.043   9.629  0.2689  0.0169 -0.2611
   20SAPC   H7X 2653   4.076   1.063   9.531 -1.5903 -2.8245 -0.0485
   20SAPC   H7Y 2654   4.107   0.935   9.652  0.4945  0.2531  1.1074
   20SAPC   C38 2655   4.274   1.088   9.636 -0.0600 -0.3476  0.4690
   20SAPC   H8X 2656   4.319   1.032   9.721  1.1169  0.0298  0.1080
   20SAPC   H8Y 2657   4.294   1.197   9.647  2.4240 -0.7346  0.4429
   20SAPC   C39 2658   4.340   1.043   9.501 -0.4434 -0.2251  0.9055
   20SAPC   H9X 2659   4.294   0.947   9.469 -1.6219  0.1052  1.5512
   20SAPC   H9Y 2660   4.448   1.021   9.516 -0.7594 -1.5343  1.4854
   20SAPC  C310 2661   4.316   1.140   9.380 -0.0896  0.5356 -0.0459
   20SAPC  H10X 2662   4.377   1.231   9.399  1.3733 -0.4546  0.1920
   20SAPC  H10Y 2663   4.210   1.170   9.368 -0.0836  0.5399 -0.0878
   20SAPC  C311 2664   4.362   1.081   9.253  0.8194 -0.1548  0.3712
   20SAPC  H11X 2665   4.314   0.982   9.243  2.5948 -1.1143  0.8901
   20SAPC  H11Y 2666   4.471   1.059   9.243  0.9312  1.1502 -2.4922
   20SAPC  C312 2667   4.332   1.173   9.134 -0.7168  0.3068  0.4662
   20SAPC  H12X 2668   4.375   1.270   9.166 -0.6342 -0.0144  1.3324
   20SAPC  H12Y 2669   4.222   1.186   9.135 -0.4619  3.0802  1.8380
   20SAPC  C313 2670   4.380   1.140   8.993  0.1061  0.4810 -0.1981
   20SAPC  H13X 2671   4.491   1.137   8.986  0.0877  0.1339 -0.3593
   20SAPC  H13Y 2672   4.369   1.216   8.912  1.8070 -0.5476 -1.4841
   20SAPC  C314 2673   4.319   1.012   8.922  0.2409 -0.2597  0.4220
   20SAPC  H14X 2674   4.210   1.031   8.917 -0.4339 -3.4270  1.2955
   20SAPC  H14Y 2675   4.343   0.920   8.980 -1.2913 -1.6174 -1.0135
   20SAPC  C315 2676   4.354   0.991   8.776  0.3182 -0.2218  0.2225
   20SAPC  H15X 2677   4.462   0.968   8.773 -0.0218 -1.9299 -2.3269
   20SAPC  H15Y 2678   4.334   1.084   8.719  0.6742  0.5408  1.3192
   20SAPC  C316 2679   4.288   0.872   8.710 -0.2828 -0.2778  0.1068
   20SAPC  H16X 2680   4.180   0.876   8.734  0.1847 -2.6142  3.1591
   20SAPC  H16Y 2681   4.327   0.778   8.754 -0.9263 -0.9194 -0.6529
   20SAPC  C317 2682   4.320   0.867   8.560  0.0991 -0.2711  0.3354
   20SAPC  H17X 2683   4.424   0.903   8.548  0.1634 -0.6433 -0.2243
   20SAPC  H17Y 2684   4.252   0.942   8.513 -0.6447 -0.2870  1.3451
   20SAPC  C318 2685   4.316   0.732   8.488  0.5136 -0.4870 -0.2020
   20SAPC  H18X 2686   4.321   0.757   8.379 -0.8566  1.2069  0.0763
   20SAPC  H18Y 2687   4.226   0.672   8.510 -0.5259  1.2730  0.5825
   20SAPC  H18Z 2688   4.399   0.666   8.519  0.5401  0.2526  1.3952
   21SAPC     N 2689   3.659   0.338  10.797 -0.8458  0.3340 -0.4197
   21SAPC   C12 2690   3.791   0.268  10.823  1.2756 -0.2349  0.1909
   21SAPC  H12A 2691   3.844   0.257  10.729  1.3536  0.5447  0.1326
   21SAPC  H12B 2692   3.766   0.168  10.854 -0.2090  0.3480  0.9690
   21SAPC   C13 2693   3.698   0.471  10.744  0.0410  0.0804 -0.2761
   21SAPC  H13A 2694   3.773   0.516  10.807  1.5761 -1.1012 -1.1844
   21SAPC  H13B 2695   3.749   0.459  10.650  2.0755  0.1510  0.7484
   21SAPC  H13C 2696   3.622   0.546  10.731  0.1923  0.3479  0.3174
   21SAPC   C14 2697   3.581   0.250  10.707  1.0093  0.0426 -0.6763
   21SAPC  H14A 2698   3.580   0.150  10.748  3.9114  0.3642  0.3933
   21SAPC  H14B 2699   3.485   0.295  10.690  1.8164  1.5194 -1.5098
   21SAPC  H14C 2700   3.625   0.242  10.609  0.9404  1.5285 -0.8551
   21SAPC   C15 2701   3.584   0.349  10.920 -0.0495  0.0941  0.2108
   21SAPC  H15A 2702   3.579   0.248  10.958  0.0702 -0.4310 -1.0966
   21SAPC  H15B 2703   3.633   0.410  10.994 -2.4245  1.1120  1.0234
   21SAPC  H15C 2704   3.483   0.385  10.914  0.1822  0.5365 -2.2454
   21SAPC   C11 2705   3.889   0.325  10.925 -0.0651 -0.2253  0.0965
   21SAPC  H11A 2706   3.962   0.245  10.950 -0.7196 -0.7699  0.2880
   21SAPC  H11B 2707   3.843   0.347  11.024 -0.0519 -1.5043  0.4055
   21SAPC     P 2708   4.055   0.438  10.765 -0.5476  0.3995  0.0313
   21SAPC   O13 2709   4.034   0.560  10.690 -0.5462 -0.0432  0.2852
   21SAPC   O14 2710   4.189   0.427  10.827 -0.4342 -0.4512 -0.5577
   21SAPC   O12 2711   3.950   0.444  10.885 -0.3400 -0.2321 -0.1876
   21SAPC   O11 2712   4.026   0.310  10.680 -0.0322  0.5672  0.5865
   21SAPC    C1 2713   4.132   0.267  10.587 -0.4626 -0.7854 -0.3854
   21SAPC    HA 2714   4.237   0.293  10.615 -0.8831  0.9228 -0.2582
   21SAPC    HB 2715   4.130   0.157  10.572  0.6459 -0.7292 -1.0705
   21SAPC    C2 2716   4.099   0.335  10.450 -0.5572  0.3087 -0.1413
   21SAPC    HS 2717   4.050   0.432  10.471 -2.5371 -0.8327  0.8049
   21SAPC   O21 2718   4.017   0.244  10.370  0.0603  0.0216  0.4922
   21SAPC   C21 2719   3.892   0.237  10.409  0.1587 -0.0287  0.4138
   21SAPC   O22 2720   3.832   0.298  10.493  0.5243 -0.4950  0.1811
   21SAPC   C22 2721   3.839   0.121  10.324 -0.2090  0.6502 -0.3274
   21SAPC   H2R 2722   3.920   0.092  10.254  1.9626  0.0844  2.2674
   21SAPC   H2S 2723   3.820   0.046  10.405 -0.8329 -0.4497 -1.4558
   21SAPC    C3 2724   4.225   0.375  10.371  0.0387  0.3547 -0.3801
   21SAPC    HX 2725   4.282   0.281  10.355 -0.8532 -0.0771 -1.1358
   21SAPC    HY 2726   4.280   0.441  10.442  2.5499 -0.6904 -1.2364
   21SAPC   O31 2727   4.203   0.446  10.247 -0.1728  0.2487  0.4058
   21SAPC   C31 2728   4.191   0.383  10.131  0.2297  0.5946 -0.0947
   21SAPC   O32 2729   4.223   0.268  10.106 -0.7631 -0.0297 -0.5899
   21SAPC   C32 2730   4.132   0.473  10.026  0.5457  0.4592  0.3968
   21SAPC   H2X 2731   4.192   0.561   9.995 -0.8967  1.0949 -0.7109
   21SAPC   H2Y 2732   4.037   0.514  10.065  0.1834 -1.6772  1.9245
   21SAPC   C23 2733   3.714   0.163  10.248  0.3970  0.8921 -0.7757
   21SAPC   H3R 2734   3.731   0.259  10.195  0.8659  1.3521  0.1966
   21SAPC   H3S 2735   3.625   0.178  10.312  0.5776 -1.9273  0.2871
   21SAPC   C24 2736   3.693   0.053  10.140 -0.6822 -0.0566  0.3385
   21SAPC   H4R 2737   3.689  -0.048  10.187 -2.4453 -1.1428 -2.0124
   21SAPC   H4S 2738   3.787   0.061  10.081 -0.3505 -0.9103  0.7342
   21SAPC   C25 2739   3.567   0.069  10.060 -0.2583 -0.3857 -0.3815
   21SAPC   H5R 2740   3.478   0.073  10.125 -0.3911 -4.1079 -0.1700
   21SAPC   C26 2741   3.556   0.087   9.927  0.1945 -0.0432  0.0493
   21SAPC   H6R 2742   3.455   0.105   9.885  0.2000 -0.1688 -0.0196
   21SAPC   C27 2743   3.665   0.081   9.822 -0.6725 -0.2822  0.2827
   21SAPC   H7R 2744   3.619   0.045   9.727  0.6260  2.2324 -1.4319
   21SAPC   H7S 2745   3.747   0.016   9.859 -0.5203  0.5582  1.4757
   21SAPC   C28 2746   3.717   0.219   9.795  0.2592 -0.3020 -0.4380
   21SAPC   H8R 2747   3.747   0.278   9.883 -2.6567  1.2219 -0.3357
   21SAPC   C29 2748   3.746   0.279   9.677 -0.2849  0.1366 -0.3040
   21SAPC   H9R 2749   3.776   0.385   9.674 -2.3740  0.7581 -2.1831
   21SAPC  C210 2750   3.741   0.221   9.542  0.3851 -0.1160  0.1741
   21SAPC  H10R 2751   3.652   0.265   9.493  0.1932 -0.9903 -0.2752
   21SAPC  H10S 2752   3.708   0.116   9.532  0.2373  0.0501 -1.1857
   21SAPC  C211 2753   3.857   0.247   9.447 -0.0185  0.5180  0.0094
   21SAPC  H11R 2754   3.942   0.182   9.471 -0.5303  0.5669  2.1627
   21SAPC  C212 2755   3.853   0.320   9.335  1.0581  0.4777  0.1481
   21SAPC  H12R 2756   3.946   0.328   9.277 -0.7623  1.3534 -2.8607
   21SAPC  C213 2757   3.739   0.408   9.281 -0.6361  0.1780 -0.0894
   21SAPC  H13R 2758   3.785   0.500   9.239 -1.3607  0.1157 -1.0286
   21SAPC  H13S 2759   3.678   0.441   9.368 -0.2708 -2.8530  1.4533
   21SAPC  C214 2760   3.646   0.337   9.190 -0.0535  0.3752  0.0196
   21SAPC  H14R 2761   3.652   0.227   9.192 -0.1732  0.3485 -0.8674
   21SAPC  C215 2762   3.556   0.403   9.108 -0.5002 -0.9813  0.0036
   21SAPC  H15R 2763   3.492   0.344   9.040 -4.3811  1.5831  1.0852
   21SAPC  C216 2764   3.541   0.551   9.072 -0.1639  0.1146 -0.0329
   21SAPC  H16R 2765   3.600   0.622   9.133  1.1450 -2.1927  1.5415
   21SAPC  H16S 2766   3.435   0.570   9.100 -1.0496 -4.7617  0.9393
   21SAPC  C217 2767   3.568   0.585   8.928  0.3311 -0.4093 -0.4565
   21SAPC  H17R 2768   3.520   0.519   8.853 -1.4045  0.3119 -0.0167
   21SAPC  H17S 2769   3.679   0.576   8.925  0.4641  0.5166  0.7348
   21SAPC  C218 2770   3.539   0.730   8.911 -0.1744 -0.5987  0.4931
   21SAPC  H18R 2771   3.593   0.800   8.978  3.3176  0.4124 -2.9739
   21SAPC  H18S 2772   3.429   0.728   8.926 -0.4229 -1.3802 -1.2347
   21SAPC  C219 2773   3.580   0.776   8.765  0.2738  1.2008 -0.0637
   21SAPC  H19R 2774   3.515   0.718   8.695  0.2193  0.8465  0.2755
   21SAPC  H19S 2775   3.683   0.740   8.745 -0.1381  0.2418 -0.5343
   21SAPC  C220 2776   3.574   0.930   8.748  0.2731 -0.1803  0.5072
   21SAPC  H20R 2777   3.630   0.960   8.657  0.8219 -0.3488  0.7856
   21SAPC  H20S 2778   3.625   0.972   8.837  2.4164  0.3240 -0.8705
   21SAPC  H20T 2779   3.466   0.954   8.735 -0.0712 -1.0960  1.5604
   21SAPC   C33 2780   4.100   0.406   9.894  0.1211  0.1858  0.2704
   21SAPC   H3X 2781   3.990   0.398   9.883 -0.0806  1.0010  1.4837
   21SAPC   H3Y 2782   4.130   0.299   9.895  0.8403  0.3796  0.2653
   21SAPC   C34 2783   4.160   0.465   9.765 -0.0922 -0.2090  0.5981
   21SAPC   H4X 2784   4.271   0.472   9.765  0.1655 -2.7494 -0.8417
   21SAPC   H4Y 2785   4.132   0.572   9.760 -0.3757 -0.3312 -2.9386
   21SAPC   C35 2786   4.111   0.390   9.641  1.3690 -0.1776 -0.8666
   21SAPC   H5X 2787   4.009   0.422   9.611  1.4871  1.9110  0.7706
   21SAPC   H5Y 2788   4.094   0.281   9.661  0.4265  0.2335  0.7942
   21SAPC   C36 2789   4.209   0.404   9.526  0.2242  0.0951  0.8351
   21SAPC   H6X 2790   4.222   0.311   9.466  3.7027 -0.7204  2.5908
   21SAPC   H6Y 2791   4.310   0.414   9.572  0.5559  0.4397  0.0553
   21SAPC   C37 2792   4.187   0.534   9.448  0.1184 -0.4769  0.4103
   21SAPC   H7X 2793   4.203   0.618   9.519 -0.3046 -1.0675  1.2316
   21SAPC   H7Y 2794   4.080   0.537   9.417 -0.0281 -0.8485  0.8491
   21SAPC   C38 2795   4.280   0.564   9.330  0.3266 -0.1535  0.4075
   21SAPC   H8X 2796   4.386   0.565   9.366  0.4423 -0.1739  0.0723
   21SAPC   H8Y 2797   4.250   0.661   9.286 -2.3825 -1.2276 -0.2871
   21SAPC   C39 2798   4.261   0.457   9.215  0.2740  1.1761  0.3965
   21SAPC   H9X 2799   4.155   0.447   9.187  0.8137 -1.7524 -0.9029
   21SAPC   H9Y 2800   4.287   0.358   9.257 -0.1763  0.7369 -0.3633
   21SAPC  C310 2801   4.350   0.459   9.088  0.1530 -0.2108  0.9347
   21SAPC  H10X 2802   4.457   0.480   9.111  0.5848 -0.0475 -0.9963
   21SAPC  H10Y 2803   4.326   0.545   9.022 -1.2271 -1.7267 -0.6353
   21SAPC  C311 2804   4.338   0.331   8.995  0.2652  0.3266 -0.4957
   21SAPC  H11X 2805   4.331   0.235   9.050  0.8100  1.1469  1.0661
   21SAPC  H11Y 2806   4.442   0.328   8.956  0.9148  0.7156  1.1345
   21SAPC  C312 2807   4.242   0.345   8.872 -0.8603  0.6797  0.2954
   21SAPC  H12X 2808   4.245   0.446   8.826  0.4315 -0.4379 -2.2874
   21SAPC  H12Y 2809   4.135   0.336   8.901 -1.6820  2.4666 -1.8953
   21SAPC  C313 2810   4.268   0.231   8.765  0.4687 -0.3477 -0.1893
   21SAPC  H13X 2811   4.377   0.239   8.740  1.1405  0.9446  2.7373
   21SAPC  H13Y 2812   4.208   0.251   8.674 -0.1290 -2.9457 -0.4307
   21SAPC  C314 2813   4.218   0.095   8.809 -0.1985  0.9030  0.1088
   21SAPC  H14X 2814   4.108   0.099   8.824 -0.3203  2.5744 -0.9039
   21SAPC  H14Y 2815   4.254   0.068   8.911  1.3150  0.9729 -0.3874
   21SAPC  C315 2816   4.248  -0.020   8.707  0.2717  0.0129  0.4494
   21SAPC  H15X 2817   4.359  -0.024   8.703  0.3847  0.1510  2.3912
   21SAPC  H15Y 2818   4.213   0.034   8.617  1.4423 -1.1762 -0.7611
   21SAPC  C316 2819   4.184  -0.159   8.736 -0.1848 -0.5598 -0.1898
   21SAPC  H16X 2820   4.076  -0.148   8.757  0.0029  0.2863  0.4047
   21SAPC  H16Y 2821   4.232  -0.205   8.826 -1.4819 -2.5535 -0.4645
   21SAPC  C317 2822   4.212  -0.260   8.623 -0.0051 -0.2735  0.3788
   21SAPC  H17X 2823   4.313  -0.255   8.577 -0.4864 -0.5322 -0.7363
   21SAPC  H17Y 2824   4.139  -0.233   8.544  1.1988  1.2409 -0.2453
   21SAPC  C318 2825   4.196  -0.399   8.669  0.0038 -0.1606  0.5363
   21SAPC  H18X 2826   4.198  -0.481   8.593 -1.3359 -1.2927  1.6576
   21SAPC  H18Y 2827   4.099  -0.429   8.715  0.3700  0.1138  1.4932
   21SAPC  H18Z 2828   4.276  -0.438   8.735  0.6253  1.4659  0.7854
   22SAPC     N 2829   3.135   4.827  11.123 -0.5907 -0.0638  0.6178
   22SAPC   C12 2830   3.162   4.709  11.031 -0.6812 -0.1614  0.6923
   22SAPC  H12A 2831   3.087   4.632  11.045  0.5088 -1.3871  0.4710
   22SAPC  H12B 2832   3.254   4.664  11.066 -0.0876  1.1808  0.9309
   22SAPC   C13 2833   3.238   4.932  11.105 -0.2367 -0.5501 -1.1120
   22SAPC  H13A 2834   3.321   4.882  11.058 -2.3805 -3.2380 -2.2799
   22SAPC  H13B 2835   3.209   5.005  11.031  1.4121  1.8860  0.4841
   22SAPC  H13C 2836   3.263   4.981  11.198 -3.3262  0.9432 -0.9333
   22SAPC   C14 2837   2.998   4.890  11.082 -0.4707  0.8243 -1.1048
   22SAPC  H14A 2838   2.933   4.806  11.100  2.0787 -1.4174 -1.7114
   22SAPC  H14B 2839   2.970   4.968  11.151 -0.8564  0.3791 -0.7468
   22SAPC  H14C 2840   2.988   4.915  10.978 -0.3828 -1.3804 -1.7005
   22SAPC   C15 2841   3.124   4.782  11.267 -0.3855  0.1050 -0.2999
   22SAPC  H15A 2842   3.100   4.867  11.329 -0.7777 -0.0148 -0.2814
   22SAPC  H15B 2843   3.031   4.728  11.281 -0.3724 -0.0385 -0.7560
   22SAPC  H15C 2844   3.207   4.724  11.304 -0.2407  0.5337  0.0494
   22SAPC   C11 2845   3.183   4.743  10.881  0.3889 -0.2374 -0.3497
   22SAPC  H11A 2846   3.269   4.813  10.882  1.3115 -1.0664  4.2000
   22SAPC  H11B 2847   3.088   4.797  10.861 -0.5253 -1.5535  0.2107
   22SAPC     P 2848   3.082   4.530  10.772  0.4225 -0.0270 -0.2937
   22SAPC   O13 2849   3.120   4.388  10.782 -0.1540  0.3480 -0.1461
   22SAPC   O14 2850   2.959   4.579  10.846 -0.6968  0.5013  0.5260
   22SAPC   O12 2851   3.204   4.625  10.805  0.3866 -0.0907 -0.9435
   22SAPC   O11 2852   3.072   4.562  10.615 -0.0948 -0.3530  0.1915
   22SAPC    C1 2853   3.028   4.687  10.565  0.5721  0.9194  0.6675
   22SAPC    HA 2854   2.922   4.711  10.588  0.5918  0.5805  1.1211
   22SAPC    HB 2855   3.102   4.758  10.608  2.7159  0.4765 -1.9991
   22SAPC    C2 2856   3.056   4.711  10.414 -0.4792  0.0064  1.4429
   22SAPC    HS 2857   3.038   4.819  10.396 -0.5523  0.0077  1.5230
   22SAPC   O21 2858   2.979   4.622  10.343  0.0208 -0.1359  0.4744
   22SAPC   C21 2859   2.864   4.663  10.293  0.0168 -0.3313 -0.6575
   22SAPC   O22 2860   2.804   4.763  10.330  0.1520 -0.3578  0.2331
   22SAPC   C22 2861   2.805   4.558  10.202 -0.0517  0.2295 -0.1296
   22SAPC   H2R 2862   2.799   4.466  10.264 -1.5726 -0.5627 -1.3676
   22SAPC   H2S 2863   2.699   4.586  10.183  0.2631  0.9664 -0.8497
   22SAPC    C3 2864   3.201   4.686  10.378 -0.1813 -0.3748 -0.3475
   22SAPC    HX 2865   3.211   4.576  10.388 -1.8531 -0.3751  2.1215
   22SAPC    HY 2866   3.265   4.739  10.451  0.3346  0.5770 -1.4463
   22SAPC   O31 2867   3.240   4.729  10.247 -0.2711 -0.4336  0.3060
   22SAPC   C31 2868   3.267   4.631  10.157  0.0386  0.0755  0.8340
   22SAPC   O32 2869   3.239   4.511  10.169 -0.5586 -0.7837  0.4916
   22SAPC   C32 2870   3.309   4.691  10.017 -0.0612 -0.2438 -0.3239
   22SAPC   H2X 2871   3.413   4.729  10.028  0.8018 -1.8787 -2.2442
   22SAPC   H2Y 2872   3.239   4.776   9.998  0.0645  0.2863  1.4176
   22SAPC   C23 2873   2.885   4.519  10.070  0.0601 -0.0196 -0.0093
   22SAPC   H3R 2874   2.827   4.434  10.029 -2.7521  0.6775  2.2333
   22SAPC   H3S 2875   2.983   4.484  10.110 -1.6228  0.6371  5.3431
   22SAPC   C24 2876   2.890   4.641   9.974  0.3540  0.4350  0.4503
   22SAPC   H4R 2877   2.969   4.627   9.897  0.5543 -0.3146  0.7788
   22SAPC   H4S 2878   2.932   4.731  10.024 -2.0121  1.3365  0.9143
   22SAPC   C25 2879   2.756   4.684   9.921 -0.4807 -0.2693 -0.6264
   22SAPC   H5R 2880   2.675   4.667   9.994 -0.7180 -1.2800 -1.1170
   22SAPC   C26 2881   2.733   4.742   9.805  0.6957 -0.1452  0.1859
   22SAPC   H6R 2882   2.632   4.777   9.779  0.7045 -1.3774 -1.6285
   22SAPC   C27 2883   2.834   4.792   9.706  0.8380  0.1567  0.1991
   22SAPC   H7R 2884   2.929   4.814   9.758  2.1106 -2.5658 -0.8077
   22SAPC   H7S 2885   2.789   4.885   9.665 -0.5247 -0.9460 -0.9037
   22SAPC   C28 2886   2.860   4.692   9.593 -0.1715 -0.2850  0.5048
   22SAPC   H8R 2887   2.917   4.604   9.628 -0.1799 -0.9038 -0.9897
   22SAPC   C29 2888   2.830   4.707   9.466  0.1169 -0.3974  0.5796
   22SAPC   H9R 2889   2.851   4.627   9.393  0.3715  0.0007  0.2115
   22SAPC  C210 2890   2.768   4.833   9.409 -0.0363 -0.6300 -0.6667
   22SAPC  H10R 2891   2.794   4.919   9.474 -3.7847  0.2912 -0.1509
   22SAPC  H10S 2892   2.656   4.830   9.408 -0.0731  0.4251 -1.8524
   22SAPC  C211 2893   2.807   4.872   9.268  0.4742  0.5851  0.0013
   22SAPC  H11R 2894   2.880   4.955   9.266  0.2442  0.7967  0.3239
   22SAPC  C212 2895   2.769   4.808   9.153 -0.1372  0.1723 -0.0889
   22SAPC  H12R 2896   2.796   4.846   9.053  0.0678 -1.6990 -0.7943
   22SAPC  C213 2897   2.685   4.680   9.152 -0.3583 -0.1541  0.3090
   22SAPC  H13R 2898   2.581   4.697   9.118 -0.4769 -2.2406 -0.4903
   22SAPC  H13S 2899   2.665   4.644   9.255 -1.6234  0.6434  0.3695
   22SAPC  C214 2900   2.753   4.574   9.062 -0.1743 -0.9418  0.2604
   22SAPC  H14R 2901   2.853   4.553   9.103 -0.5015 -1.9834  0.5449
   22SAPC  C215 2902   2.715   4.527   8.941  0.4118 -0.0990 -0.7383
   22SAPC  H15R 2903   2.774   4.444   8.898 -0.7408 -0.9829 -0.6552
   22SAPC  C216 2904   2.594   4.568   8.858 -0.7374  0.1479  0.1481
   22SAPC  H16R 2905   2.544   4.659   8.897  0.4785 -0.0571  2.3421
   22SAPC  H16S 2906   2.524   4.482   8.853 -0.7036  0.1630 -2.7878
   22SAPC  C217 2907   2.643   4.602   8.711  0.3698  0.6981  0.7833
   22SAPC  H17R 2908   2.552   4.602   8.648  1.5442  0.3294 -0.9756
   22SAPC  H17S 2909   2.705   4.515   8.682 -2.7112 -1.5625  0.4115
   22SAPC  C218 2910   2.695   4.741   8.714  0.1108 -1.1188  0.2991
   22SAPC  H18R 2911   2.754   4.758   8.807 -0.6146  4.5737  0.0745
   22SAPC  H18S 2912   2.611   4.813   8.717 -2.2867 -3.5491 -2.2071
   22SAPC  C219 2913   2.800   4.775   8.604 -0.3377  0.0718 -0.9134
   22SAPC  H19R 2914   2.756   4.774   8.502  0.1356 -0.1921 -1.1178
   22SAPC  H19S 2915   2.887   4.706   8.599  1.9949  2.7539 -0.1107
   22SAPC  C220 2916   2.858   4.910   8.629 -0.2828 -0.9373 -0.1307
   22SAPC  H20R 2917   2.951   4.899   8.689  1.4448  0.4026 -2.4037
   22SAPC  H20S 2918   2.790   4.972   8.691 -1.1567  1.3525 -3.1422
   22SAPC  H20T 2919   2.887   4.946   8.528 -0.1164 -1.5579 -0.3087
   22SAPC   C33 2920   3.304   4.585   9.906 -0.6436 -0.9082 -0.1467
   22SAPC   H3X 2921   3.215   4.519   9.914 -0.9977 -0.2817  1.2186
   22SAPC   H3Y 2922   3.396   4.524   9.920  0.0598  0.3059  0.6301
   22SAPC   C34 2923   3.289   4.643   9.767 -0.1450 -0.0390  0.0397
   22SAPC   H4X 2924   3.358   4.730   9.758 -1.7449  1.3385  0.3719
   22SAPC   H4Y 2925   3.186   4.687   9.768 -0.0300  0.2599  1.2172
   22SAPC   C35 2926   3.318   4.546   9.651 -0.0124  0.1334 -0.0008
   22SAPC   H5X 2927   3.264   4.453   9.678 -0.8920  0.2660 -1.1946
   22SAPC   H5Y 2928   3.427   4.522   9.650  0.0900  0.4228  1.8225
   22SAPC   C36 2929   3.250   4.600   9.519  0.2471 -0.7231 -0.8646
   22SAPC   H6X 2930   3.300   4.699   9.506  0.0171 -0.5199 -0.2203
   22SAPC   H6Y 2931   3.146   4.625   9.547  0.5265  0.0228 -0.4437
   22SAPC   C37 2932   3.267   4.506   9.396  0.0284 -0.0902 -0.3485
   22SAPC   H7X 2933   3.238   4.402   9.422  2.4743 -1.1339 -1.4734
   22SAPC   H7Y 2934   3.368   4.510   9.350  0.2629  0.1083  0.1657
   22SAPC   C38 2935   3.155   4.542   9.293 -0.1372 -0.2956 -0.0798
   22SAPC   H8X 2936   3.154   4.650   9.269 -0.9341  0.1022  1.6162
   22SAPC   H8Y 2937   3.061   4.520   9.347  0.6353 -1.2699  0.9120
   22SAPC   C39 2938   3.160   4.464   9.166  0.3103  0.1026  0.1798
   22SAPC   H9X 2939   3.056   4.466   9.126  0.8235 -1.3807 -1.3120
   22SAPC   H9Y 2940   3.184   4.358   9.188  1.7553  0.3143 -0.2745
   22SAPC  C310 2941   3.262   4.518   9.064 -0.6551  0.5694 -0.1737
   22SAPC  H10X 2942   3.364   4.501   9.104 -1.6840 -2.2385  1.6033
   22SAPC  H10Y 2943   3.246   4.627   9.054 -2.6472  0.9418  4.3101
   22SAPC  C311 2944   3.255   4.452   8.925  0.1078  0.0877 -0.0429
   22SAPC  H11X 2945   3.314   4.360   8.941 -1.4295 -0.6463  1.8719
   22SAPC  H11Y 2946   3.325   4.518   8.871 -0.6437  1.9477  1.1413
   22SAPC  C312 2947   3.116   4.442   8.869 -0.3197 -0.1768  0.0315
   22SAPC  H12X 2948   3.072   4.544   8.879  0.1766  0.0775 -0.3273
   22SAPC  H12Y 2949   3.050   4.371   8.923  0.3091  0.0002  1.0468
   22SAPC  C313 2950   3.124   4.400   8.718  0.2825  0.1335 -0.2996
   22SAPC  H13X 2951   3.197   4.316   8.715 -0.3574 -0.4318 -0.0845
   22SAPC  H13Y 2952   3.157   4.489   8.660  0.3321  0.4953  0.2763
   22SAPC  C314 2953   2.995   4.355   8.656  0.4391  0.0405  0.0106
   22SAPC  H14X 2954   2.912   4.428   8.661  0.4164 -0.0173  0.6366
   22SAPC  H14Y 2955   2.954   4.279   8.726 -0.7009  1.1288  0.5593
   22SAPC  C315 2956   3.006   4.273   8.524 -0.2560 -0.0176  0.0503
   22SAPC  H15X 2957   3.102   4.216   8.531  0.2313  0.2902 -2.8408
   22SAPC  H15Y 2958   3.017   4.346   8.441  1.5892 -1.5654 -1.1522
   22SAPC  C316 2959   2.904   4.158   8.508 -0.3682 -0.2203 -0.0355
   22SAPC  H16X 2960   2.929   4.072   8.573  1.0566  2.7583  3.7507
   22SAPC  H16Y 2961   2.914   4.123   8.403  1.2472 -0.8241  0.2860
   22SAPC  C317 2962   2.764   4.203   8.530 -0.2832 -0.2616 -0.2945
   22SAPC  H17X 2963   2.744   4.300   8.480  2.3520  0.5663  0.0925
   22SAPC  H17Y 2964   2.737   4.213   8.638  0.1691  0.3362 -0.2337
   22SAPC  C318 2965   2.659   4.093   8.486  0.2883  0.6734  0.5843
   22SAPC  H18X 2966   2.648   4.089   8.375 -2.2457  1.4612  0.7419
   22SAPC  H18Y 2967   2.561   4.122   8.530  0.6048  0.2730  1.5691
   22SAPC  H18Z 2968   2.684   3.992   8.524  0.3554  0.4425 -0.0591
   23SAPC     N 2969   4.308   6.600  10.795 -0.5694 -0.4460 -0.1661
   23SAPC   C12 2970   4.305   6.498  10.677 -0.2077 -0.0231 -0.0316
   23SAPC  H12A 2971   4.239   6.539  10.602 -0.1263  0.3299  0.0886
   23SAPC  H12B 2972   4.252   6.414  10.719  0.7691 -0.5520  0.1681
   23SAPC   C13 2973   4.170   6.650  10.817  0.5534 -0.0881 -0.3779
   23SAPC  H13A 2974   4.176   6.722  10.897 -1.2279 -2.3075  1.9060
   23SAPC  H13B 2975   4.143   6.705  10.728 -2.6474  0.7932  1.0036
   23SAPC  H13C 2976   4.114   6.561  10.843  1.2057 -0.1491  0.8976
   23SAPC   C14 2977   4.372   6.535  10.913 -0.2245  0.0399  0.3502
   23SAPC  H14A 2978   4.357   6.598  11.000 -0.8564  0.2514  0.0974
   23SAPC  H14B 2979   4.330   6.437  10.930 -0.6195 -0.4268 -2.8354
   23SAPC  H14C 2980   4.473   6.514  10.882  0.2514  1.5749  0.7574
   23SAPC   C15 2981   4.394   6.715  10.758  0.1181 -0.5482  0.3917
   23SAPC  H15A 2982   4.492   6.672  10.744  0.2016  0.0119 -0.9623
   23SAPC  H15B 2983   4.359   6.767  10.670 -0.0911 -0.2654  0.6399
   23SAPC  H15C 2984   4.403   6.782  10.842 -0.1874 -1.2808  1.0096
   23SAPC   C11 2985   4.449   6.454  10.616 -0.2543 -0.3775  0.4509
   23SAPC  H11A 2986   4.507   6.548  10.602  0.4210 -0.6132  1.5597
   23SAPC  H11B 2987   4.428   6.416  10.514  0.1810 -0.5270  0.4175
   23SAPC     P 2988   4.493   6.215  10.706  0.1216  0.3237  0.2155
   23SAPC   O13 2989   4.573   6.153  10.817 -0.1267 -0.1749  0.2348
   23SAPC   O14 2990   4.344   6.208  10.695  0.0936  0.1762  0.5809
   23SAPC   O12 2991   4.521   6.363  10.697  0.4416 -0.2086 -0.6910
   23SAPC   O11 2992   4.557   6.161  10.578  0.0943 -0.3768  0.1106
   23SAPC    C1 2993   4.697   6.131  10.584 -0.5489  0.8127  0.6746
   23SAPC    HA 2994   4.750   6.209  10.642 -0.9115  1.3004  0.3541
   23SAPC    HB 2995   4.726   6.029  10.619  1.3794  0.2377 -2.2322
   23SAPC    C2 2996   4.769   6.124  10.441  0.7680  0.8760 -0.1007
   23SAPC    HS 2997   4.754   6.222  10.391  0.9324 -0.0946 -2.1660
   23SAPC   O21 2998   4.718   6.022  10.355  0.4678  0.0448 -0.0905
   23SAPC   C21 2999   4.606   6.047  10.292  0.0381 -0.1923 -0.4207
   23SAPC   O22 3000   4.542   6.152  10.295  0.5199  0.7037 -0.1390
   23SAPC   C22 3001   4.566   5.937  10.197  0.2013  0.2563 -0.2019
   23SAPC   H2R 3002   4.653   5.898  10.140 -0.2408 -1.8484  0.4853
   23SAPC   H2S 3003   4.528   5.849  10.253 -1.9904 -1.2832 -3.7225
   23SAPC    C3 3004   4.920   6.106  10.455  0.0366 -0.6769  0.0921
   23SAPC    HX 3005   4.937   6.006  10.498 -2.2933 -0.8274  0.8297
   23SAPC    HY 3006   4.948   6.182  10.531 -1.2351 -1.2412  1.1592
   23SAPC   O31 3007   4.986   6.126  10.329 -0.1457 -0.4927  0.5352
   23SAPC   C31 3008   5.121   6.170  10.328  0.4391 -0.0945 -0.8907
   23SAPC   O32 3009   5.167   6.224  10.425 -0.1975  0.0114 -0.0786
   23SAPC   C32 3010   5.182   6.114  10.203  0.0640 -0.6642 -0.1072
   23SAPC   H2X 3011   5.126   6.029  10.159 -1.4854  0.8772 -1.2719
   23SAPC   H2Y 3012   5.284   6.076  10.224 -0.3235 -1.3067  0.6408
   23SAPC   C23 3013   4.460   5.975  10.095 -0.0751  0.1958  0.3752
   23SAPC   H3R 3014   4.382   6.027  10.154  0.1954 -0.4261  1.3072
   23SAPC   H3S 3015   4.406   5.885  10.058 -2.0914  1.4133  0.2036
   23SAPC   C24 3016   4.519   6.056   9.981  0.0676  0.4978 -0.1278
   23SAPC   H4R 3017   4.599   5.997   9.932 -0.1282  0.9526 -1.0316
   23SAPC   H4S 3018   4.564   6.148  10.024  2.7390 -0.9199  0.2826
   23SAPC   C25 3019   4.420   6.102   9.891  0.6201  0.3262 -0.2473
   23SAPC   H5R 3020   4.326   6.144   9.932  0.4133  1.3317 -1.6677
   23SAPC   C26 3021   4.414   6.076   9.755 -0.1542 -0.4423 -0.2120
   23SAPC   H6R 3022   4.331   6.121   9.699  1.9280  1.0007 -2.3318
   23SAPC   C27 3023   4.519   6.016   9.672 -0.1549  0.0969 -0.1390
   23SAPC   H7R 3024   4.569   5.937   9.733  1.9163  2.1114  0.9234
   23SAPC   H7S 3025   4.588   6.093   9.632  0.6848 -0.0703  0.9603
   23SAPC   C28 3026   4.445   5.944   9.555 -0.5968 -0.1375  0.4044
   23SAPC   H8R 3027   4.368   5.871   9.582  0.5471 -1.5895 -0.1550
   23SAPC   C29 3028   4.460   5.964   9.422 -0.1386  0.3801 -0.1440
   23SAPC   H9R 3029   4.395   5.902   9.358 -0.5326 -0.5995  1.1566
   23SAPC  C210 3030   4.549   6.056   9.350  0.2572  0.9421 -0.1139
   23SAPC  H10R 3031   4.587   6.001   9.261 -0.6518  0.2519 -0.0926
   23SAPC  H10S 3032   4.640   6.081   9.408 -0.8100  0.9787  1.6064
   23SAPC  C211 3033   4.474   6.190   9.317 -0.0335  0.0434  0.3425
   23SAPC  H11R 3034   4.442   6.245   9.407 -0.1983  0.7046 -0.1132
   23SAPC  C212 3035   4.445   6.235   9.197 -0.1099  0.3712 -0.0785
   23SAPC  H12R 3036   4.390   6.329   9.185  0.6244  0.6107 -1.8805
   23SAPC  C213 3037   4.471   6.173   9.060  0.0415  0.6934  0.9351
   23SAPC  H13R 3038   4.390   6.207   8.993  0.0055  1.3940  1.3200
   23SAPC  H13S 3039   4.464   6.062   9.068 -2.5998  0.6519 -0.7276
   23SAPC  C214 3040   4.600   6.220   9.000  0.1570  0.5416 -0.1518
   23SAPC  H14R 3041   4.678   6.219   9.078 -1.3528  1.7043  1.4830
   23SAPC  C215 3042   4.628   6.262   8.875  0.3667  0.4288  0.2285
   23SAPC  H15R 3043   4.733   6.285   8.848  0.5791 -0.3485  0.3742
   23SAPC  C216 3044   4.534   6.253   8.756  0.1231  0.4344 -0.4365
   23SAPC  H16R 3045   4.522   6.362   8.734  1.5459  1.2095  2.1844
   23SAPC  H16S 3046   4.435   6.206   8.775 -1.1337  3.1564  0.2687
   23SAPC  C217 3047   4.586   6.190   8.625 -0.3599  0.4942 -0.4535
   23SAPC  H17R 3048   4.594   6.080   8.638  0.3156  0.7572  1.6804
   23SAPC  H17S 3049   4.691   6.222   8.608  1.2567 -2.3680  2.7862
   23SAPC  C218 3050   4.502   6.217   8.501 -0.0122  0.0269  0.7069
   23SAPC  H18R 3051   4.519   6.323   8.471  0.4542 -0.9811 -3.0573
   23SAPC  H18S 3052   4.392   6.206   8.500 -0.1783  0.8970 -2.7777
   23SAPC  C219 3053   4.548   6.126   8.389 -0.1602 -0.4148  0.1484
   23SAPC  H19R 3054   4.472   6.129   8.308  0.0088 -1.8259 -0.0839
   23SAPC  H19S 3055   4.544   6.023   8.431 -2.6438 -0.0535  0.9283
   23SAPC  C220 3056   4.691   6.168   8.328 -0.4139  0.4508 -0.6346
   23SAPC  H20R 3057   4.766   6.128   8.400 -0.8027 -1.7774 -1.3692
   23SAPC  H20S 3058   4.697   6.277   8.313 -1.8900  0.5086 -0.9319
   23SAPC  H20T 3059   4.702   6.118   8.229  0.2996  0.7562 -0.7123
   23SAPC   C33 3060   5.193   6.219  10.088  0.1897 -0.3544 -0.1667
   23SAPC   H3X 3061   5.268   6.291  10.128  1.8885 -1.7797 -0.6558
   23SAPC   H3Y 3062   5.090   6.257  10.075 -0.6298 -2.8280 -1.3810
   23SAPC   C34 3063   5.260   6.160   9.966 -0.5572  0.0246  0.7391
   23SAPC   H4X 3064   5.188   6.084   9.928  0.3099 -1.3341  1.7112
   23SAPC   H4Y 3065   5.351   6.109  10.004 -0.6164 -1.3738 -0.8949
   23SAPC   C35 3066   5.288   6.255   9.852  0.0995  0.6143  0.2740
   23SAPC   H5X 3067   5.384   6.310   9.861  0.5333 -0.2861  1.4202
   23SAPC   H5Y 3068   5.205   6.327   9.835  1.4465  1.7973 -1.7807
   23SAPC   C36 3069   5.306   6.173   9.724 -0.3580 -0.2293 -0.3521
   23SAPC   H6X 3070   5.208   6.120   9.717  0.3940 -1.8105  0.5592
   23SAPC   H6Y 3071   5.373   6.085   9.735 -0.1962 -0.2376 -1.2849
   23SAPC   C37 3072   5.343   6.256   9.602 -0.5031 -0.3418 -0.3666
   23SAPC   H7X 3073   5.439   6.310   9.616 -1.1533  1.2894 -1.8212
   23SAPC   H7Y 3074   5.277   6.344   9.587  0.8129  1.0502  1.4816
   23SAPC   C38 3075   5.346   6.159   9.484 -0.8318 -0.0074  0.7713
   23SAPC   H8X 3076   5.239   6.139   9.461 -0.3779 -0.8608 -0.7550
   23SAPC   H8Y 3077   5.408   6.070   9.508 -2.0622 -0.7509  1.3009
   23SAPC   C39 3078   5.405   6.227   9.365 -0.2354  0.1087  0.1604
   23SAPC   H9X 3079   5.509   6.247   9.400 -0.1189 -0.7152  0.2972
   23SAPC   H9Y 3080   5.363   6.324   9.331 -0.1777 -0.6613 -2.2791
   23SAPC  C310 3081   5.425   6.134   9.247  0.8707  0.3142 -0.5598
   23SAPC  H10X 3082   5.325   6.099   9.212  0.7294  0.0487  0.0933
   23SAPC  H10Y 3083   5.477   6.040   9.274  1.4454  0.7323 -0.2013
   23SAPC  C311 3084   5.494   6.193   9.126  0.3226 -0.2554 -0.2645
   23SAPC  H11X 3085   5.589   6.247   9.150 -0.0980  1.6978 -2.5590
   23SAPC  H11Y 3086   5.423   6.266   9.083 -0.7992  0.8585  3.1665
   23SAPC  C312 3087   5.529   6.082   9.036  0.1604 -0.0062  0.6413
   23SAPC  H12X 3088   5.431   6.031   9.021  0.2366  0.6355 -2.8048
   23SAPC  H12Y 3089   5.599   6.016   9.091  0.5778  1.0881  1.4698
   23SAPC  C313 3090   5.580   6.135   8.905  0.4969  0.0162  0.4982
   23SAPC  H13X 3091   5.666   6.203   8.925  0.8703 -0.1980 -0.3316
   23SAPC  H13Y 3092   5.491   6.173   8.851 -0.3448 -2.3190  0.1003
   23SAPC  C314 3093   5.641   6.035   8.810 -0.1535  0.1683  0.6225
   23SAPC  H14X 3094   5.708   5.963   8.860  0.8915 -0.2368 -1.2664
   23SAPC  H14Y 3095   5.706   6.100   8.748 -1.9847  0.9657 -0.5716
   23SAPC  C315 3096   5.535   5.972   8.716  0.3392 -0.5009  0.5658
   23SAPC  H15X 3097   5.455   6.046   8.691 -0.4432 -1.0190  1.4559
   23SAPC  H15Y 3098   5.473   5.897   8.770  2.8805 -3.4989 -0.4098
   23SAPC  C316 3099   5.588   5.928   8.575  0.1021 -0.8985 -0.0678
   23SAPC  H16X 3100   5.684   5.873   8.592 -1.1711 -2.3740  3.1688
   23SAPC  H16Y 3101   5.600   6.019   8.513  0.3428 -1.6218 -1.1123
   23SAPC  C317 3102   5.502   5.825   8.507  0.1559  0.2604  0.4912
   23SAPC  H17X 3103   5.397   5.857   8.528 -0.0898 -1.0697  1.4474
   23SAPC  H17Y 3104   5.514   5.726   8.556 -0.0249  1.3779  2.8968
   23SAPC  C318 3105   5.534   5.806   8.358  0.9770  0.0602 -0.4930
   23SAPC  H18X 3106   5.474   5.723   8.314  1.3298 -1.6620  2.0853
   23SAPC  H18Y 3107   5.642   5.785   8.342  1.0342  1.4076 -2.1276
   23SAPC  H18Z 3108   5.513   5.903   8.309  2.1152  0.7597  0.3632
   24SAPC     N 3109   6.506   0.112  11.166 -0.0625  0.7156 -0.1945
   24SAPC   C12 3110   6.544   0.136  11.018 -0.1389  0.1751 -0.7666
   24SAPC  H12A 3111   6.463   0.184  10.965 -1.1415  0.6824  1.1515
   24SAPC  H12B 3112   6.560   0.037  10.978 -1.3951 -0.2009 -0.3529
   24SAPC   C13 3113   6.460   0.235  11.234 -0.5409 -0.4263 -0.2019
   24SAPC  H13A 3114   6.531   0.312  11.263 -0.9574  0.4371 -1.4184
   24SAPC  H13B 3115   6.386   0.283  11.172  2.1519  3.6027 -0.6990
   24SAPC  H13C 3116   6.401   0.214  11.322 -0.8212 -0.7720 -0.4714
   24SAPC   C14 3117   6.391   0.021  11.159  0.3602  0.5201  0.9195
   24SAPC  H14A 3118   6.313   0.060  11.095 -0.0560 -2.2165 -0.3569
   24SAPC  H14B 3119   6.422  -0.078  11.131 -1.0791  0.3404 -0.1620
   24SAPC  H14C 3120   6.353   0.003  11.258  0.2858 -1.1933  0.6110
   24SAPC   C15 3121   6.608   0.040  11.250 -0.5026  0.3565 -0.3060
   24SAPC  H15A 3122   6.620  -0.060  11.210 -0.9929  0.1537  0.0404
   24SAPC  H15B 3123   6.699   0.097  11.238 -0.3863  0.2581  0.0653
   24SAPC  H15C 3124   6.590   0.028  11.356  1.2865  3.0688  0.4210
   24SAPC   C11 3125   6.674   0.218  10.991 -0.2589 -0.3174 -0.2143
   24SAPC  H11A 3126   6.647   0.316  11.036 -0.2988 -0.6113  0.4177
   24SAPC  H11B 3127   6.692   0.233  10.883  3.9451  1.8424  0.5661
   24SAPC     P 3128   6.865   0.034  10.979 -0.1122 -0.4476 -0.1702
   24SAPC   O13 3129   7.009   0.026  11.027  0.3143 -0.4171  0.1570
   24SAPC   O14 3130   6.777  -0.083  11.006 -0.0523  0.2053  0.2139
   24SAPC   O12 3131   6.789   0.154  11.044  0.7279  0.1861 -0.1548
   24SAPC   O11 3132   6.877   0.070  10.831  0.8614  0.3580  0.9341
   24SAPC    C1 3133   6.787   0.013  10.735  1.0511  0.4094 -0.6049
   24SAPC    HA 3134   6.691  -0.019  10.780  0.4737 -0.2810 -2.2735
   24SAPC    HB 3135   6.759   0.094  10.664 -1.4934  1.1355  1.1111
   24SAPC    C2 3136   6.839  -0.113  10.669  0.2777  0.3420  0.8647
   24SAPC    HS 3137   6.825  -0.200  10.737 -2.8969 -0.5291 -0.6946
   24SAPC   O21 3138   6.976  -0.086  10.631  0.1209 -0.2092 -0.3004
   24SAPC   C21 3139   7.069  -0.148  10.699  0.0517  1.0993 -0.4264
   24SAPC   O22 3140   7.049  -0.234  10.783  0.0062  0.0784  0.6724
   24SAPC   C22 3141   7.202  -0.085  10.667  0.3342  0.7458  0.1193
   24SAPC   H2R 3142   7.177   0.003  10.604 -2.7150  0.7901  1.2329
   24SAPC   H2S 3143   7.249  -0.042  10.758 -0.3580  1.0279  0.3475
   24SAPC    C3 3144   6.762  -0.128  10.539 -0.0136  0.1147  0.1019
   24SAPC    HX 3145   6.799  -0.047  10.473 -2.3385  2.9951  2.0664
   24SAPC    HY 3146   6.651  -0.129  10.545 -0.0414 -2.2927 -0.0143
   24SAPC   O31 3147   6.795  -0.262  10.486  0.1222 -1.0544  0.7694
   24SAPC   C31 3148   6.877  -0.263  10.388 -0.5498  0.7486  0.2424
   24SAPC   O32 3149   6.928  -0.164  10.335  0.3128  0.2452  0.0832
   24SAPC   C32 3150   6.909  -0.409  10.345 -0.5912  0.2736  0.3348
   24SAPC   H2X 3151   6.829  -0.451  10.281  1.3131 -0.4440 -1.6985
   24SAPC   H2Y 3152   6.904  -0.472  10.437 -1.6994  0.8486  0.6805
   24SAPC   C23 3153   7.312  -0.171  10.605  0.5546  0.2521  0.7116
   24SAPC   H3R 3154   7.274  -0.206  10.507 -1.0446  2.0055  0.6579
   24SAPC   H3S 3155   7.335  -0.260  10.668 -0.9731 -0.0387  0.8957
   24SAPC   C24 3156   7.444  -0.092  10.587 -0.4619  0.8455  0.2777
   24SAPC   H4R 3157   7.522  -0.165  10.556 -0.4875  0.8509  0.2005
   24SAPC   H4S 3158   7.474  -0.060  10.689 -1.1976 -1.7090  1.3736
   24SAPC   C25 3159   7.444   0.013  10.480 -0.2377  0.8215 -0.2836
   24SAPC   H5R 3160   7.422   0.109  10.528 -2.1675 -0.3859  1.3999
   24SAPC   C26 3161   7.421  -0.004  10.351  0.3376  0.0324  0.2533
   24SAPC   H6R 3162   7.422   0.084  10.285 -1.0711 -1.3161 -1.6988
   24SAPC   C27 3163   7.410  -0.135  10.272  0.0063  0.1301  0.1875
   24SAPC   H7R 3164   7.343  -0.210  10.320 -0.9648  1.3042  0.7001
   24SAPC   H7S 3165   7.511  -0.181  10.265  0.2199  0.8148 -2.0560
   24SAPC   C28 3166   7.358  -0.127  10.134 -0.5446 -0.2119  0.6686
   24SAPC   H8R 3167   7.251  -0.149  10.124 -0.1747 -1.2565 -1.7252
   24SAPC   C29 3168   7.437  -0.109  10.023  0.3138  0.0567 -0.8777
   24SAPC   H9R 3169   7.401  -0.084   9.922 -2.2735  2.1983  0.4897
   24SAPC  C210 3170   7.593  -0.099  10.018  0.4573  0.1470  0.1018
   24SAPC  H10R 3171   7.606  -0.039  10.110 -1.3015 -1.9218  1.8049
   24SAPC  H10S 3172   7.624  -0.033   9.934  1.8584  0.3573  0.7553
   24SAPC  C211 3173   7.687  -0.213  10.017 -0.6543 -0.3883  0.9381
   24SAPC  H11R 3174   7.644  -0.313  10.029 -0.1946 -0.5554  1.1804
   24SAPC  C212 3175   7.821  -0.208  10.009 -0.1321  0.0394  0.6181
   24SAPC  H12R 3176   7.878  -0.302  10.007 -2.1485 -1.2306 -0.2822
   24SAPC  C213 3177   7.892  -0.074   9.999  0.7668  0.8534 -0.1226
   24SAPC  H13R 3178   7.833  -0.003  10.060 -0.3714 -0.2922  0.1467
   24SAPC  H13S 3179   7.903  -0.031   9.898  0.9090  0.2295 -0.3801
   24SAPC  C214 3180   8.024  -0.070  10.068 -0.6570  0.3532  0.6286
   24SAPC  H14R 3181   8.112  -0.066  10.003 -1.0520  1.0828  0.1239
   24SAPC  C215 3182   8.045  -0.074  10.202 -0.4283  0.3932  0.5019
   24SAPC  H15R 3183   8.144  -0.085  10.250 -1.0760  0.1123  1.8311
   24SAPC  C216 3184   7.935  -0.082  10.302  0.5062 -1.2202 -0.6164
   24SAPC  H16R 3185   7.832  -0.062  10.264 -0.3535 -1.1526  1.6179
   24SAPC  H16S 3186   7.958  -0.013  10.385  1.9581 -1.3480 -0.8918
   24SAPC  C217 3187   7.935  -0.216  10.377  0.0416 -0.2346  0.2187
   24SAPC  H17R 3188   8.034  -0.242  10.422  0.4874  0.5423 -0.2850
   24SAPC  H17S 3189   7.917  -0.295  10.301 -3.3830  0.6453 -0.0246
   24SAPC  C218 3190   7.823  -0.234  10.483 -0.5175 -0.2517  0.1441
   24SAPC  H18R 3191   7.800  -0.342  10.488 -3.0684  0.1990 -0.2445
   24SAPC  H18S 3192   7.737  -0.186  10.431 -0.1628 -0.0636 -0.2781
   24SAPC  C219 3193   7.851  -0.181  10.625 -0.6568  0.5465 -0.2611
   24SAPC  H19R 3194   7.848  -0.071  10.609  3.5451  1.4163  2.9520
   24SAPC  H19S 3195   7.954  -0.210  10.655 -1.4732 -0.8169  1.3947
   24SAPC  C220 3196   7.749  -0.216  10.737  0.5385 -0.0878  0.7888
   24SAPC  H20R 3197   7.673  -0.269  10.675  0.4683 -0.2221  0.9889
   24SAPC  H20S 3198   7.710  -0.125  10.787  1.1134  0.6442 -0.0527
   24SAPC  H20T 3199   7.789  -0.291  10.808  0.5917 -1.7823 -0.9397
   24SAPC   C33 3200   7.050  -0.421  10.272  0.7826 -0.2875 -0.4109
   24SAPC   H3X 3201   7.140  -0.399  10.333  2.1819  0.8082 -2.6934
   24SAPC   H3Y 3202   7.048  -0.344  10.192 -0.4763 -0.3055 -0.4085
   24SAPC   C34 3203   7.065  -0.554  10.203  0.2391 -0.0738 -0.5357
   24SAPC   H4X 3204   6.977  -0.585  10.142 -0.1676 -0.2333  0.1236
   24SAPC   H4Y 3205   7.070  -0.634  10.279 -0.8242  0.3753  0.0375
   24SAPC   C35 3206   7.181  -0.557  10.110  0.4445 -0.6248 -0.3120
   24SAPC   H5X 3207   7.203  -0.661  10.077  1.1242 -0.9684  1.1342
   24SAPC   H5Y 3208   7.269  -0.520  10.166  1.0232 -0.3856 -1.3420
   24SAPC   C36 3209   7.161  -0.464   9.984  0.4405  0.0395  0.4921
   24SAPC   H6X 3210   7.124  -0.361  10.003  1.4903  0.0162  3.0374
   24SAPC   H6Y 3211   7.097  -0.515   9.910  3.0065 -0.4056 -1.5760
   24SAPC   C37 3212   7.299  -0.448   9.908  0.0068 -0.6703  0.8695
   24SAPC   H7X 3213   7.351  -0.547   9.904 -0.3096 -0.8781  1.6895
   24SAPC   H7Y 3214   7.358  -0.390   9.982 -0.5265 -0.9374  1.5110
   24SAPC   C38 3215   7.282  -0.369   9.776  0.2241 -0.0016 -0.1240
   24SAPC   H8X 3216   7.238  -0.270   9.801  0.5622 -0.3146  1.8879
   24SAPC   H8Y 3217   7.215  -0.426   9.708 -0.3960  0.7315 -0.1481
   24SAPC   C39 3218   7.421  -0.348   9.717  0.7141  0.0094  0.1650
   24SAPC   H9X 3219   7.477  -0.442   9.734  0.0674 -0.7273 -1.5765
   24SAPC   H9Y 3220   7.463  -0.265   9.778  0.1837  0.4076 -0.0028
   24SAPC  C310 3221   7.419  -0.319   9.568 -0.3767 -0.1803 -0.4935
   24SAPC  H10X 3222   7.361  -0.227   9.545  0.4440  0.5185  0.1776
   24SAPC  H10Y 3223   7.369  -0.403   9.514  1.9390 -2.2839  0.4672
   24SAPC  C311 3224   7.561  -0.298   9.509 -0.6903  0.0236 -0.4012
   24SAPC  H11X 3225   7.553  -0.283   9.399  2.4657  1.5307 -0.5245
   24SAPC  H11Y 3226   7.614  -0.389   9.542  0.7526  1.3201  1.0642
   24SAPC  C312 3227   7.642  -0.178   9.565  0.6995 -0.4150 -0.1047
   24SAPC  H12X 3228   7.643  -0.186   9.676  0.4606  2.0528  0.1346
   24SAPC  H12Y 3229   7.590  -0.084   9.535  1.1243 -0.0774  0.2070
   24SAPC  C313 3230   7.789  -0.162   9.519 -0.1296 -0.5536  0.4120
   24SAPC  H13X 3231   7.827  -0.084   9.588 -1.9747  0.3729  0.4334
   24SAPC  H13Y 3232   7.782  -0.117   9.417 -2.9836  0.7608  1.0880
   24SAPC  C314 3233   7.875  -0.286   9.514  0.6473  0.2682  0.2512
   24SAPC  H14X 3234   7.976  -0.259   9.477 -0.0399  2.7911  0.0499
   24SAPC  H14Y 3235   7.827  -0.359   9.444 -1.9205  2.1797 -0.1231
   24SAPC  C315 3236   7.883  -0.354   9.652 -0.1195 -0.2744 -0.4200
   24SAPC  H15X 3237   7.784  -0.390   9.686 -1.4324  1.6261 -2.0178
   24SAPC  H15Y 3238   7.911  -0.270   9.720  3.2618  0.9669 -3.0178
   24SAPC  C316 3239   7.992  -0.464   9.665  0.7044  0.3507 -0.4295
   24SAPC  H16X 3240   8.089  -0.428   9.624  1.1294  1.3993  1.3677
   24SAPC  H16Y 3241   7.960  -0.555   9.612  0.8269 -0.8470  1.4533
   24SAPC  C317 3242   8.024  -0.520   9.804 -0.0784  0.1281  0.3236
   24SAPC  H17X 3243   8.027  -0.437   9.877  0.9215  0.2287  0.1742
   24SAPC  H17Y 3244   8.119  -0.577   9.808  0.3845  0.9279  1.2570
   24SAPC  C318 3245   7.904  -0.604   9.856  0.3515  0.2928 -0.8259
   24SAPC  H18X 3246   7.919  -0.629   9.963  3.3360  1.0305 -0.9762
   24SAPC  H18Y 3247   7.904  -0.696   9.793 -1.3019 -0.2245 -0.1129
   24SAPC  H18Z 3248   7.801  -0.565   9.841 -0.2256 -0.7442  0.2868
   25SAPC     N 3249   3.457   4.534   5.892  0.2660  0.1156 -0.7132
   25SAPC   C12 3250   3.529   4.583   6.014  0.3122  0.2083  0.2431
   25SAPC  H12A 3251   3.507   4.523   6.100 -0.1537  0.8434  0.5747
   25SAPC  H12B 3252   3.493   4.684   6.027  1.2119  0.4688  0.8046
   25SAPC   C13 3253   3.496   4.620   5.768  0.0174 -0.1704 -0.0779
   25SAPC  H13A 3254   3.602   4.612   5.751  0.3097 -3.9849  2.4910
   25SAPC  H13B 3255   3.448   4.577   5.682  1.3683 -1.5237 -0.1864
   25SAPC  H13C 3256   3.468   4.724   5.781  3.8941  0.7269  3.6731
   25SAPC   C14 3257   3.487   4.390   5.867 -0.0377  0.7905  0.3962
   25SAPC  H14A 3258   3.594   4.378   5.857  0.1932 -4.3422  4.8129
   25SAPC  H14B 3259   3.461   4.341   5.960 -2.4803  1.1144 -0.0401
   25SAPC  H14C 3260   3.422   4.352   5.790 -0.5834  1.2180  0.6400
   25SAPC   C15 3261   3.309   4.536   5.923  0.2674 -0.2589 -0.6794
   25SAPC  H15A 3262   3.281   4.467   6.001 -1.0345  0.7329 -0.2546
   25SAPC  H15B 3263   3.278   4.633   5.957  0.7553 -0.6450  0.9263
   25SAPC  H15C 3264   3.244   4.495   5.847  0.5613 -1.4992 -0.2825
   25SAPC   C11 3265   3.686   4.590   6.002  0.6519  0.3676 -0.0844
   25SAPC  H11A 3266   3.730   4.644   6.088  1.0991  2.2914 -1.4468
   25SAPC  H11B 3267   3.707   4.656   5.915  0.6656  0.3942 -0.0606
   25SAPC     P 3268   3.751   4.352   6.095  0.1121  0.2761 -0.2884
   25SAPC   O13 3269   3.615   4.292   6.122  0.3201  0.0432 -0.2168
   25SAPC   O14 3270   3.862   4.257   6.062 -0.0304 -0.6086 -0.3790
   25SAPC   O12 3271   3.744   4.458   5.987 -0.0418  0.0851 -0.1172
   25SAPC   O11 3272   3.778   4.440   6.225 -0.0545 -0.7839 -0.2578
   25SAPC    C1 3273   3.912   4.481   6.248 -0.3143 -0.1386  0.2220
   25SAPC    HA 3274   3.969   4.386   6.252 -0.4954 -0.2390  0.3827
   25SAPC    HB 3275   3.952   4.544   6.166 -2.1612  0.9034  0.0745
   25SAPC    C2 3276   3.937   4.549   6.389  0.7057  0.5019  0.2291
   25SAPC    HS 3277   4.036   4.600   6.393  1.8602 -1.6877  2.5479
   25SAPC   O21 3278   3.940   4.461   6.498  0.3418  0.6585 -0.1047
   25SAPC   C21 3279   4.035   4.375   6.511  0.0017  0.0144  0.9075
   25SAPC   O22 3280   4.135   4.360   6.441  0.4214 -0.5556  0.0352
   25SAPC   C22 3281   4.011   4.301   6.641  0.3380 -0.9114 -0.4717
   25SAPC   H2R 3282   4.002   4.195   6.610 -1.1326 -1.7062  2.3440
   25SAPC   H2S 3283   4.108   4.304   6.695 -0.0978 -2.9778  0.5423
   25SAPC    C3 3284   3.826   4.648   6.421 -0.6812  0.3654 -0.1876
   25SAPC    HX 3285   3.731   4.599   6.393 -0.5324  0.3272 -0.6310
   25SAPC    HY 3286   3.837   4.734   6.351 -0.1622  0.7485  0.3496
   25SAPC   O31 3287   3.830   4.700   6.558 -0.1228 -0.6220 -0.3419
   25SAPC   C31 3288   3.750   4.647   6.636  0.9205  0.4280  0.6229
   25SAPC   O32 3289   3.675   4.553   6.605 -0.2470  0.2984 -0.5144
   25SAPC   C32 3290   3.753   4.708   6.775 -0.4116  0.3727 -1.3518
   25SAPC   H2X 3291   3.760   4.634   6.857 -1.7939  0.5757 -1.0210
   25SAPC   H2Y 3292   3.653   4.756   6.783 -2.3418 -2.8302 -4.0036
   25SAPC   C23 3293   3.883   4.337   6.724  0.3912  0.3336  0.3388
   25SAPC   H3R 3294   3.794   4.308   6.665 -0.1506  0.4990  1.0628
   25SAPC   H3S 3295   3.881   4.445   6.750 -2.2390  0.1050  1.3663
   25SAPC   C24 3296   3.862   4.261   6.859  0.5273 -0.2305  0.5093
   25SAPC   H4R 3297   3.945   4.286   6.928 -0.4855 -0.4702  1.8651
   25SAPC   H4S 3298   3.874   4.151   6.846 -0.1806 -0.3897  1.1212
   25SAPC   C25 3299   3.724   4.281   6.924  0.2913 -1.1046 -1.4271
   25SAPC   H5R 3300   3.663   4.364   6.884  0.7934  0.2030  0.3850
   25SAPC   C26 3301   3.688   4.223   7.037  0.0304 -0.8212 -0.3358
   25SAPC   H6R 3302   3.596   4.262   7.082  0.5902  0.2882 -0.1339
   25SAPC   C27 3303   3.767   4.106   7.097  0.3386 -0.6341 -0.0786
   25SAPC   H7R 3304   3.851   4.065   7.037  2.0727 -0.8191  2.3724
   25SAPC   H7S 3305   3.693   4.023   7.104 -0.8431  0.5355  2.6105
   25SAPC   C28 3306   3.816   4.135   7.237 -0.5303 -0.5554  0.3441
   25SAPC   H8R 3307   3.924   4.152   7.245 -0.3614 -1.1886 -0.5336
   25SAPC   C29 3308   3.738   4.149   7.353 -0.2633 -0.2801  0.7303
   25SAPC   H9R 3309   3.784   4.188   7.445  0.3634  1.4032 -0.2560
   25SAPC  C210 3310   3.585   4.159   7.352 -0.4692 -0.1200  0.4869
   25SAPC  H10R 3311   3.534   4.148   7.254 -1.2626  2.3586  0.5438
   25SAPC  H10S 3312   3.559   4.265   7.373 -1.4624 -0.3741  0.5877
   25SAPC  C211 3313   3.511   4.063   7.438 -0.1027 -0.2758 -0.0050
   25SAPC  H11R 3314   3.564   3.968   7.459  3.2477  1.0472 -1.6632
   25SAPC  C212 3315   3.390   4.086   7.489 -0.2687 -0.3317 -0.8105
   25SAPC  H12R 3316   3.349   4.015   7.563  0.2906  1.3691  1.2080
   25SAPC  C213 3317   3.309   4.213   7.485  0.2297 -0.3491  0.7549
   25SAPC  H13R 3318   3.204   4.179   7.473  0.7070 -1.5113 -0.3789
   25SAPC  H13S 3319   3.345   4.266   7.394 -0.0817 -1.7307 -0.2052
   25SAPC  C214 3320   3.327   4.297   7.610 -0.1761  0.2823  0.2036
   25SAPC  H14R 3321   3.390   4.386   7.593 -0.4822  0.1762 -1.7575
   25SAPC  C215 3322   3.268   4.271   7.729  0.2575 -0.1411  0.8352
   25SAPC  H15R 3323   3.308   4.330   7.813  1.6262  0.6785 -0.3374
   25SAPC  C216 3324   3.187   4.152   7.758 -0.2510 -0.3074 -0.4188
   25SAPC  H16R 3325   3.215   4.064   7.696 -1.4542 -0.8783 -0.1886
   25SAPC  H16S 3326   3.077   4.166   7.743 -0.1334  1.5179  0.1878
   25SAPC  C217 3327   3.206   4.086   7.897 -0.0200  0.4309 -0.2278
   25SAPC  H17R 3328   3.195   4.165   7.974  0.6098 -2.1826  2.7256
   25SAPC  H17S 3329   3.305   4.037   7.900  0.4562  1.2173 -1.7776
   25SAPC  C218 3330   3.092   3.988   7.929  0.9153  0.3526  0.7097
   25SAPC  H18R 3331   3.117   3.906   7.858 -0.4276  0.7228 -0.2394
   25SAPC  H18S 3332   2.998   4.036   7.891  1.5374  0.4912 -0.7346
   25SAPC  C219 3333   3.094   3.939   8.073  0.4937  0.1204  0.2031
   25SAPC  H19R 3334   3.195   3.902   8.100  0.1136 -0.6690  0.5883
   25SAPC  H19S 3335   3.031   3.847   8.082  1.4641 -0.4844  0.9909
   25SAPC  C220 3336   3.045   4.036   8.177 -0.2129  0.2380  0.4659
   25SAPC  H20R 3337   3.075   4.140   8.153 -1.1691  0.2084 -0.9438
   25SAPC  H20S 3338   3.090   4.008   8.275  0.4807  0.3291  0.1829
   25SAPC  H20T 3339   2.934   4.031   8.177 -0.1909 -1.4404 -1.6937
   25SAPC   C33 3340   3.869   4.813   6.798 -0.0747 -0.9029  0.8326
   25SAPC   H3X 3341   3.853   4.895   6.725  0.6738 -1.4828 -0.0008
   25SAPC   H3Y 3342   3.971   4.777   6.775  0.3534  1.3050 -1.1909
   25SAPC   C34 3343   3.867   4.874   6.937  0.6431 -0.7202  0.2887
   25SAPC   H4X 3344   3.867   4.794   7.015 -1.4256 -0.9237  0.1134
   25SAPC   H4Y 3345   3.768   4.922   6.950 -0.2373 -2.4238  0.1049
   25SAPC   C35 3346   3.962   4.990   6.964  0.1722 -0.7380  0.1399
   25SAPC   H5X 3347   3.948   5.065   6.883 -0.7853 -0.9189  0.1197
   25SAPC   H5Y 3348   4.068   4.961   6.979  0.3449  0.1011  0.6386
   25SAPC   C36 3349   3.927   5.067   7.096 -0.0253  0.4185  0.4713
   25SAPC   H6X 3350   3.818   5.087   7.108  0.2615  0.8102  2.9268
   25SAPC   H6Y 3351   3.985   5.161   7.092 -0.7475  0.8447 -0.3473
   25SAPC   C37 3352   3.954   4.979   7.223  1.0985 -0.0747 -0.0517
   25SAPC   H7X 3353   4.056   4.935   7.230  1.0666 -0.0827  0.4133
   25SAPC   H7Y 3354   3.873   4.904   7.219 -0.4220  1.5138 -0.2845
   25SAPC   C38 3355   3.922   5.068   7.343 -0.5036 -0.1091 -0.0417
   25SAPC   H8X 3356   3.827   5.122   7.323 -0.2216  0.1876 -0.6276
   25SAPC   H8Y 3357   4.000   5.148   7.346 -1.5395  0.9670 -0.8488
   25SAPC   C39 3358   3.910   4.999   7.485 -1.0853  0.8726 -0.2022
   25SAPC   H9X 3359   3.811   4.948   7.482 -1.3894  1.2709  1.9239
   25SAPC   H9Y 3360   3.905   5.072   7.569  1.9168  1.0729 -0.1107
   25SAPC  C310 3361   4.023   4.907   7.523 -0.5344  0.3873  0.0510
   25SAPC  H10X 3362   4.119   4.961   7.511  0.0935 -0.6654  0.2440
   25SAPC  H10Y 3363   4.023   4.816   7.460 -3.2969 -0.1998  0.7588
   25SAPC  C311 3364   4.023   4.857   7.671  0.3401 -0.1213 -0.1913
   25SAPC  H11X 3365   3.949   4.774   7.676  0.7832 -0.6053 -1.2976
   25SAPC  H11Y 3366   4.000   4.940   7.741 -2.3306  0.4856 -1.6648
   25SAPC  C312 3367   4.164   4.812   7.714 -0.2515  0.3943  0.0437
   25SAPC  H12X 3368   4.238   4.889   7.685 -0.2540 -0.6171 -2.9606
   25SAPC  H12Y 3369   4.188   4.722   7.654  0.1168  0.6063 -0.1289
   25SAPC  C313 3370   4.186   4.781   7.856  0.4399 -0.4700 -0.3137
   25SAPC  H13X 3371   4.162   4.867   7.921 -0.3333  0.4305 -1.7225
   25SAPC  H13Y 3372   4.288   4.743   7.873  0.9574 -2.3585 -5.6051
   25SAPC  C314 3373   4.086   4.672   7.908 -0.0018 -0.0982  0.3622
   25SAPC  H14X 3374   4.087   4.582   7.843  1.0369 -0.0090  0.2314
   25SAPC  H14Y 3375   3.979   4.698   7.920 -0.5262 -2.1770  0.6682
   25SAPC  C315 3376   4.143   4.644   8.048 -0.2270 -0.2192  0.4321
   25SAPC  H15X 3377   4.172   4.745   8.082  1.2831  0.2804 -2.1738
   25SAPC  H15Y 3378   4.227   4.572   8.038 -0.5151 -0.2673 -2.2835
   25SAPC  C316 3379   4.042   4.589   8.140 -0.1620 -0.3336 -0.4765
   25SAPC  H16X 3380   4.007   4.486   8.117 -2.1535 -0.9934  4.3304
   25SAPC  H16Y 3381   3.948   4.647   8.135 -0.6057 -1.0952 -1.2858
   25SAPC  C317 3382   4.097   4.599   8.286  0.0990  0.0145  0.1128
   25SAPC  H17X 3383   4.130   4.704   8.300 -1.4032  0.4034  0.9367
   25SAPC  H17Y 3384   4.181   4.527   8.287 -0.0010 -0.1252 -0.7879
   25SAPC  C318 3385   3.998   4.566   8.394 -0.3270 -0.1381 -0.8727
   25SAPC  H18X 3386   4.034   4.594   8.496  0.4170 -0.2378 -1.1061
   25SAPC  H18Y 3387   3.969   4.459   8.388  4.3534 -1.6016 -0.8893
   25SAPC  H18Z 3388   3.900   4.616   8.379 -1.4055 -1.6362  0.7216
   26SAPC     N 3389   2.826   6.482   6.468 -0.0317  0.4055 -0.0622
   26SAPC   C12 3390   2.819   6.472   6.312  0.1816 -0.6296  0.4634
   26SAPC  H12A 3391   2.721   6.502   6.278  0.8101 -1.4238 -2.2634
   26SAPC  H12B 3392   2.837   6.370   6.282  2.5209  0.3566 -1.8413
   26SAPC   C13 3393   2.801   6.620   6.514  0.1412  0.0552  0.4068
   26SAPC  H13A 3394   2.705   6.664   6.492  1.4591  2.6001 -0.7322
   26SAPC  H13B 3395   2.805   6.624   6.622  0.1849 -1.4088  0.4685
   26SAPC  H13C 3396   2.879   6.678   6.466 -0.3659 -1.1231 -2.0145
   26SAPC   C14 3397   2.711   6.408   6.528 -0.4842  0.1881  0.5059
   26SAPC  H14A 3398   2.708   6.302   6.507  0.2071  0.2660 -0.0237
   26SAPC  H14B 3399   2.714   6.412   6.636 -0.7271  1.3888  0.4826
   26SAPC  H14C 3400   2.618   6.456   6.501  0.3386  1.7043  0.2097
   26SAPC   C15 3401   2.954   6.427   6.521  0.4360  0.9403  0.3052
   26SAPC  H15A 3402   2.942   6.465   6.621 -1.8701  0.4207  0.2850
   26SAPC  H15B 3403   2.951   6.319   6.509 -0.5043  1.1444 -1.6733
   26SAPC  H15C 3404   3.043   6.477   6.487 -0.8284  2.5042 -0.8748
   26SAPC   C11 3405   2.910   6.551   6.215 -0.3572 -0.1626 -0.4648
   26SAPC  H11A 3406   2.857   6.528   6.121 -1.9228 -0.7123  0.5114
   26SAPC  H11B 3407   3.008   6.499   6.224  1.1204  2.4298 -0.3454
   26SAPC     P 3408   3.060   6.754   6.287 -0.0013 -0.1364 -0.4453
   26SAPC   O13 3409   3.153   6.703   6.183  0.5684  0.1073 -0.2105
   26SAPC   O14 3410   3.049   6.900   6.305  0.7715  0.5768  0.4914
   26SAPC   O12 3411   2.917   6.690   6.255  0.8721 -0.4640  0.2472
   26SAPC   O11 3412   3.096   6.683   6.433 -0.2532  0.5749  0.2729
   26SAPC    C1 3413   3.221   6.605   6.446 -0.6946 -0.5566  0.4570
   26SAPC    HA 3414   3.216   6.505   6.398 -1.8777 -0.7500  0.9533
   26SAPC    HB 3415   3.312   6.655   6.405 -0.6881 -0.6031  0.4138
   26SAPC    C2 3416   3.270   6.592   6.597 -0.4225  0.2333 -0.1418
   26SAPC    HS 3417   3.380   6.576   6.600 -0.6736 -2.0699 -0.9622
   26SAPC   O21 3418   3.204   6.480   6.658  0.7898  0.0548  0.2221
   26SAPC   C21 3419   3.278   6.381   6.712  0.4639 -0.8041  0.5808
   26SAPC   O22 3420   3.400   6.396   6.727  0.1223  0.2030 -0.5610
   26SAPC   C22 3421   3.195   6.264   6.751  0.4750  0.2970 -0.4040
   26SAPC   H2R 3422   3.093   6.296   6.779 -0.8908 -3.3038 -0.7696
   26SAPC   H2S 3423   3.191   6.202   6.659  4.8462 -1.1484  0.1538
   26SAPC    C3 3424   3.234   6.726   6.665 -0.0221 -0.0641 -0.3773
   26SAPC    HX 3425   3.124   6.741   6.664  0.0581  0.7434  1.0640
   26SAPC    HY 3426   3.271   6.814   6.608  1.2449 -0.5999 -0.4249
   26SAPC   O31 3427   3.274   6.737   6.802 -0.6852 -0.6146  0.3196
   26SAPC   C31 3428   3.400   6.779   6.814 -0.6209  0.2882  0.4956
   26SAPC   O32 3429   3.476   6.821   6.722  0.7917  0.4272 -0.3722
   26SAPC   C32 3430   3.453   6.766   6.958  0.2489  0.5774 -0.1082
   26SAPC   H2X 3431   3.392   6.839   7.016 -1.3180 -0.0735 -0.8827
   26SAPC   H2Y 3432   3.562   6.790   6.965  0.7896 -2.1645  3.2398
   26SAPC   C23 3433   3.266   6.185   6.861 -0.0465  0.5161 -0.0898
   26SAPC   H3R 3434   3.289   6.264   6.936 -0.7296  2.0908 -1.4973
   26SAPC   H3S 3435   3.356   6.136   6.817 -0.6807 -2.6794  1.8093
   26SAPC   C24 3436   3.194   6.067   6.927  0.3319  0.2881  0.6192
   26SAPC   H4R 3437   3.263   6.009   6.992 -0.3825 -0.0196  1.1022
   26SAPC   H4S 3438   3.164   5.996   6.847 -0.5750  1.9656 -0.6092
   26SAPC   C25 3439   3.068   6.100   7.004 -0.0452  0.2440  0.3960
   26SAPC   H5R 3440   2.971   6.110   6.953 -1.0742  1.5431  2.4780
   26SAPC   C26 3441   3.067   6.109   7.134  0.8207 -0.6785  0.8661
   26SAPC   H6R 3442   2.971   6.119   7.188  0.5346 -0.2540  0.2810
   26SAPC   C27 3443   3.192   6.107   7.226  0.1325 -0.2876  0.2807
   26SAPC   H7R 3444   3.174   6.180   7.308 -1.7779  2.3170 -2.2816
   26SAPC   H7S 3445   3.279   6.141   7.166  0.1701 -0.3529  0.2980
   26SAPC   C28 3446   3.236   5.979   7.304  0.2312 -0.4553  0.0101
   26SAPC   H8R 3447   3.215   5.880   7.261  2.7377 -1.0532 -0.0072
   26SAPC   C29 3448   3.281   5.975   7.433  1.0291 -0.1787 -0.3126
   26SAPC   H9R 3449   3.285   5.877   7.482 -3.2954 -0.9373 -1.1180
   26SAPC  C210 3450   3.293   6.090   7.533 -0.3804 -0.5400 -0.5345
   26SAPC  H10R 3451   3.293   6.185   7.474  1.1229 -1.9265 -2.9706
   26SAPC  H10S 3452   3.392   6.094   7.583  0.2062  1.6476 -1.7327
   26SAPC  C211 3453   3.178   6.104   7.628 -0.2776  0.1317 -0.4287
   26SAPC  H11R 3454   3.081   6.098   7.577  0.2666  1.3536 -1.6665
   26SAPC  C212 3455   3.180   6.140   7.753 -0.1259 -0.8671 -0.8869
   26SAPC  H12R 3456   3.089   6.158   7.812  0.3179 -1.0046 -0.1468
   26SAPC  C213 3457   3.306   6.154   7.836  0.2678 -0.0714 -0.1234
   26SAPC  H13R 3458   3.297   6.202   7.935 -0.2382 -0.3890 -0.0122
   26SAPC  H13S 3459   3.385   6.223   7.799  0.2046  0.1598  0.1714
   26SAPC  C214 3460   3.391   6.024   7.857  0.3810 -0.3427 -0.7527
   26SAPC  H14R 3461   3.468   6.005   7.781  1.7039  0.3454  0.3550
   26SAPC  C215 3462   3.351   5.927   7.942  0.3042 -0.0432  0.1682
   26SAPC  H15R 3463   3.418   5.841   7.956  0.1548 -0.3071 -0.7001
   26SAPC  C216 3464   3.234   5.946   8.034 -0.4667 -0.4074  0.3070
   26SAPC  H16R 3465   3.141   5.912   7.985 -0.2838  1.2654 -1.2934
   26SAPC  H16S 3466   3.220   6.049   8.071 -0.9739 -0.0718 -0.7816
   26SAPC  C217 3467   3.257   5.865   8.167 -0.3415 -0.1095  0.7140
   26SAPC  H17R 3468   3.338   5.914   8.226  1.6226 -2.0954 -0.1535
   26SAPC  H17S 3469   3.297   5.763   8.146 -1.0433 -0.3062  0.3243
   26SAPC  C218 3470   3.133   5.844   8.245 -0.3276  0.9783  0.0892
   26SAPC  H18R 3471   3.091   5.742   8.228 -1.6605  1.5174  0.0186
   26SAPC  H18S 3472   3.057   5.912   8.202  0.3296  0.6758 -1.6595
   26SAPC  C219 3473   3.156   5.874   8.392 -0.2557  0.1444  0.2510
   26SAPC  H19R 3474   3.154   5.982   8.419 -0.0979  0.6721 -1.6686
   26SAPC  H19S 3475   3.256   5.833   8.418  0.0206  1.2461  1.0132
   26SAPC  C220 3476   3.054   5.788   8.468 -0.4033 -0.1991 -0.2492
   26SAPC  H20R 3477   2.952   5.803   8.426 -0.3081  1.9262  0.1616
   26SAPC  H20S 3478   3.046   5.824   8.573  0.0699  0.5869 -0.4697
   26SAPC  H20T 3479   3.083   5.682   8.453  0.4551  0.0147 -0.1128
   26SAPC   C33 3480   3.427   6.624   7.010  0.2934  0.3883 -0.2771
   26SAPC   H3X 3481   3.487   6.543   6.963  0.4496 -0.0996  0.7327
   26SAPC   H3Y 3482   3.321   6.606   6.980  0.6171  1.0306 -1.8891
   26SAPC   C34 3483   3.451   6.621   7.159 -0.4262  0.5178  0.1445
   26SAPC   H4X 3484   3.387   6.703   7.198 -1.4409 -0.5286  0.7339
   26SAPC   H4Y 3485   3.557   6.650   7.174 -0.3416  0.3791 -0.1828
   26SAPC   C35 3486   3.428   6.486   7.221 -0.7067 -0.7964  0.1038
   26SAPC   H5X 3487   3.522   6.426   7.219 -0.5215 -0.4932 -1.1122
   26SAPC   H5Y 3488   3.354   6.427   7.163  3.4146 -2.8629 -3.7007
   26SAPC   C36 3489   3.393   6.499   7.366 -0.2041  0.3538 -0.1090
   26SAPC   H6X 3490   3.379   6.399   7.411 -2.1446  0.4363 -0.4795
   26SAPC   H6Y 3491   3.291   6.541   7.375 -0.2620  0.2789 -0.4037
   26SAPC   C37 3492   3.503   6.568   7.456  0.0993 -0.3740 -0.6474
   26SAPC   H7X 3493   3.515   6.669   7.412  0.5974  0.0061  0.3175
   26SAPC   H7Y 3494   3.590   6.500   7.437 -0.9495 -2.0039  0.1455
   26SAPC   C38 3495   3.471   6.570   7.609  0.2003 -0.7077  0.2782
   26SAPC   H8X 3496   3.427   6.474   7.644 -0.3405 -0.8841 -0.8187
   26SAPC   H8Y 3497   3.384   6.636   7.632  2.8330  2.1257  2.8839
   26SAPC   C39 3498   3.595   6.615   7.686 -0.7646  0.7068 -0.6152
   26SAPC   H9X 3499   3.643   6.701   7.633 -1.0318  0.8576 -0.6156
   26SAPC   H9Y 3500   3.674   6.540   7.667 -1.1171  0.3883 -0.8188
   26SAPC  C310 3501   3.565   6.649   7.838 -0.5580 -0.6739  0.1235
   26SAPC  H10X 3502   3.482   6.585   7.873 -0.9122  0.4097  1.3443
   26SAPC  H10Y 3503   3.529   6.754   7.833 -0.7176 -0.6212  1.8248
   26SAPC  C311 3504   3.678   6.641   7.938  0.1140 -0.0588 -0.3052
   26SAPC  H11X 3505   3.650   6.687   8.035 -1.3672  0.8233 -1.1092
   26SAPC  H11Y 3506   3.771   6.689   7.902 -0.6832  1.5488 -0.3047
   26SAPC  C312 3507   3.727   6.493   7.956 -0.0272  0.0142 -0.0477
   26SAPC  H12X 3508   3.803   6.466   7.879  2.1125  1.0969  1.5571
   26SAPC  H12Y 3509   3.636   6.429   7.957 -1.7899  2.4021  0.9352
   26SAPC  C313 3510   3.800   6.473   8.091  0.1927 -0.0681 -0.3887
   26SAPC  H13X 3511   3.723   6.498   8.167  0.8919  0.9185  0.0323
   26SAPC  H13Y 3512   3.868   6.560   8.109 -1.9090  1.4051  0.9312
   26SAPC  C314 3513   3.870   6.345   8.103 -0.6403  0.0032 -0.0228
   26SAPC  H14X 3514   3.947   6.338   8.023 -0.6404  0.7908 -0.1009
   26SAPC  H14Y 3515   3.791   6.271   8.079  2.6528 -2.3117 -5.6455
   26SAPC  C315 3516   3.926   6.307   8.244 -1.0250  0.1062  0.1039
   26SAPC  H15X 3517   3.849   6.341   8.317 -1.7806  1.3044 -1.2090
   26SAPC  H15Y 3518   4.023   6.361   8.249 -0.2410 -1.0514 -1.5025
   26SAPC  C316 3519   3.956   6.156   8.265 -0.4583 -0.3578 -0.2313
   26SAPC  H16X 3520   4.013   6.111   8.181  0.7407 -1.7192  1.2321
   26SAPC  H16Y 3521   3.863   6.095   8.269  0.3999 -1.7049  0.1975
   26SAPC  C317 3522   4.037   6.124   8.397 -0.0164 -0.2211  0.2809
   26SAPC  H17X 3523   4.025   6.195   8.482  1.4019 -1.9464  2.0135
   26SAPC  H17Y 3524   4.141   6.132   8.358 -1.0633  2.2904 -2.3162
   26SAPC  C318 3525   3.995   5.995   8.452 -0.6196  0.6649  0.2602
   26SAPC  H18X 3526   3.987   5.921   8.370  0.1789 -0.1245  0.8686
   26SAPC  H18Y 3527   3.901   5.988   8.511 -1.1639 -0.1054 -0.6673
   26SAPC  H18Z 3528   4.074   5.936   8.505 -0.1402 -0.8737 -2.0299
   27SAPC     N 3529   0.781   0.295   6.783 -0.7796 -0.7722  0.1619
   27SAPC   C12 3530   0.783   0.154   6.837 -0.3750  0.3589 -0.3462
   27SAPC  H12A 3531   0.679   0.123   6.834 -0.7955  1.5714  0.6170
   27SAPC  H12B 3532   0.814   0.159   6.940  0.9974  0.8906 -0.7739
   27SAPC   C13 3533   0.919   0.363   6.771  0.3790  0.0700 -0.4299
   27SAPC  H13A 3534   0.989   0.282   6.756 -1.0010 -1.2281 -0.0713
   27SAPC  H13B 3535   0.930   0.421   6.681 -1.3900 -1.3133 -1.6094
   27SAPC  H13C 3536   0.947   0.415   6.861  0.3547  0.2122 -0.5050
   27SAPC   C14 3537   0.720   0.300   6.645  0.3884  0.1712 -0.1276
   27SAPC  H14A 3538   0.672   0.207   6.619  0.7562  0.6456 -2.7633
   27SAPC  H14B 3539   0.646   0.378   6.634 -4.2155 -3.2541  2.7727
   27SAPC  H14C 3540   0.798   0.306   6.571  0.1386 -0.6769 -0.4699
   27SAPC   C15 3541   0.692   0.386   6.869  0.7765 -0.1502  0.3456
   27SAPC  H15A 3542   0.692   0.475   6.808  0.9140  0.1312  0.7463
   27SAPC  H15B 3543   0.588   0.363   6.884  0.6905 -0.2004 -0.2859
   27SAPC  H15C 3544   0.741   0.413   6.962  1.4409  0.9225 -0.2895
   27SAPC   C11 3545   0.860   0.043   6.764  0.3711 -0.1433 -0.8270
   27SAPC  H11A 3546   0.819   0.035   6.661 -2.8421  3.0092  0.0176
   27SAPC  H11B 3547   0.837  -0.059   6.802  0.9958 -1.1466 -2.9940
   27SAPC     P 3548   1.120   0.020   6.847 -0.1170 -0.0009  0.2658
   27SAPC   O13 3549   1.229  -0.044   6.766 -0.3104 -0.5337  0.3536
   27SAPC   O14 3550   1.155   0.149   6.915 -0.0598 -0.3964  0.3253
   27SAPC   O12 3551   1.001   0.058   6.753  0.5786 -0.3997 -0.3663
   27SAPC   O11 3552   1.074  -0.083   6.952  0.1963  0.2403  0.2723
   27SAPC    C1 3553   1.044  -0.218   6.918 -0.7857 -0.3735 -0.3897
   27SAPC    HA 3554   0.954  -0.263   6.964  1.0050 -2.7687  1.0088
   27SAPC    HB 3555   1.038  -0.240   6.809  1.2808 -0.9327 -0.4393
   27SAPC    C2 3556   1.154  -0.318   6.973  0.3439 -0.1752  0.5634
   27SAPC    HS 3557   1.115  -0.417   6.938 -1.3241  0.0882  1.5847
   27SAPC   O21 3558   1.161  -0.308   7.118  0.1124  0.1478  0.7857
   27SAPC   C21 3559   1.066  -0.370   7.181  0.1265 -0.0144  0.0476
   27SAPC   O22 3560   0.967  -0.424   7.133 -0.3941 -0.1706 -0.4929
   27SAPC   C22 3561   1.094  -0.362   7.331  0.2477 -1.0479 -0.4053
   27SAPC   H2R 3562   1.184  -0.413   7.370  0.6489 -0.8248 -1.0277
   27SAPC   H2S 3563   1.104  -0.257   7.366  1.9754 -1.6585  1.0335
   27SAPC    C3 3564   1.294  -0.289   6.913  0.2162 -0.1050  0.7013
   27SAPC    HX 3565   1.323  -0.187   6.947  1.0040  0.0885 -0.4852
   27SAPC    HY 3566   1.299  -0.287   6.802  0.1590  0.0652  0.7015
   27SAPC   O31 3567   1.394  -0.386   6.957 -0.0039 -0.2633  0.1555
   27SAPC   C31 3568   1.405  -0.494   6.876 -0.1003 -0.3207  0.5355
   27SAPC   O32 3569   1.332  -0.507   6.779 -0.3466 -0.0991  0.1697
   27SAPC   C32 3570   1.505  -0.599   6.921  0.1228  0.6371 -0.2125
   27SAPC   H2X 3571   1.599  -0.557   6.879 -0.8211  1.7295 -1.3034
   27SAPC   H2Y 3572   1.472  -0.695   6.877 -3.2221  1.0157  1.1808
   27SAPC   C23 3573   0.964  -0.421   7.409  0.0765 -0.2146  0.4701
   27SAPC   H3R 3574   0.952  -0.528   7.381  1.4088 -0.1513 -0.4546
   27SAPC   H3S 3575   0.875  -0.359   7.387  0.3263  0.2199  0.6677
   27SAPC   C24 3576   0.987  -0.422   7.564 -0.3442 -0.5598  0.3007
   27SAPC   H4R 3577   0.887  -0.430   7.609  0.0051 -3.2182  0.7432
   27SAPC   H4S 3578   1.026  -0.319   7.580  0.6174 -0.6148 -1.3753
   27SAPC   C25 3579   1.083  -0.529   7.612  0.5951  0.0113  0.6506
   27SAPC   H5R 3580   1.183  -0.528   7.567  0.9090  0.7014  1.3413
   27SAPC   C26 3581   1.054  -0.595   7.724 -0.3718 -0.5653  0.0663
   27SAPC   H6R 3582   1.120  -0.672   7.767 -1.3253 -0.7459  1.2809
   27SAPC   C27 3583   0.925  -0.594   7.798 -0.8549 -0.0471  0.3450
   27SAPC   H7R 3584   0.903  -0.698   7.831 -2.1689  0.3212  0.7104
   27SAPC   H7S 3585   0.837  -0.587   7.730 -0.9011  1.4538  0.5177
   27SAPC   C28 3586   0.913  -0.491   7.907 -0.0135  0.4057  0.4509
   27SAPC   H8R 3587   0.892  -0.392   7.864  1.8745  0.4488 -0.4820
   27SAPC   C29 3588   0.949  -0.500   8.033 -0.1168 -0.1240  0.5966
   27SAPC   H9R 3589   0.921  -0.425   8.109 -0.6946  0.3641 -0.0816
   27SAPC  C210 3590   0.991  -0.626   8.096 -0.2813 -0.8884  0.4695
   27SAPC  H10R 3591   1.083  -0.601   8.153 -0.7191  2.1152 -0.0167
   27SAPC  H10S 3592   1.004  -0.704   8.018 -0.6472 -1.4244  0.9319
   27SAPC  C211 3593   0.887  -0.668   8.198  0.3987 -0.4552 -0.2373
   27SAPC  H11R 3594   0.784  -0.684   8.162  0.4315 -2.6899  0.5175
   27SAPC  C212 3595   0.903  -0.704   8.327  0.0442 -0.1140  0.0197
   27SAPC  H12R 3596   0.812  -0.719   8.387  0.2034 -0.8385  0.0895
   27SAPC  C213 3597   1.036  -0.723   8.408  0.8014 -0.4171  0.8010
   27SAPC  H13R 3598   1.057  -0.622   8.447 -0.9184  0.2037  0.2103
   27SAPC  H13S 3599   1.118  -0.746   8.336  0.3134 -1.2324  0.4849
   27SAPC  C214 3600   1.030  -0.818   8.525 -1.2927  0.2577  0.1005
   27SAPC  H14R 3601   1.089  -0.910   8.512 -0.7236  0.9532 -2.8378
   27SAPC  C215 3602   0.994  -0.784   8.650  0.3724 -0.1008  0.4531
   27SAPC  H15R 3603   1.014  -0.853   8.734  1.4629  0.6472  0.8298
   27SAPC  C216 3604   0.923  -0.660   8.687  0.1417  0.3250 -1.2957
   27SAPC  H16R 3605   0.857  -0.614   8.610 -0.6374 -2.0771 -2.1392
   27SAPC  H16S 3606   1.002  -0.592   8.727 -1.6421  1.7751 -0.0561
   27SAPC  C217 3607   0.834  -0.681   8.803  0.4829 -0.2042 -0.6185
   27SAPC  H17R 3608   0.893  -0.725   8.886  0.4339 -3.6820 -2.2620
   27SAPC  H17S 3609   0.753  -0.749   8.770  0.2563  0.7242 -2.1077
   27SAPC  C218 3610   0.772  -0.555   8.856 -0.7850 -0.2949  1.1041
   27SAPC  H18R 3611   0.712  -0.496   8.783  0.7382 -1.2037 -0.9990
   27SAPC  H18S 3612   0.856  -0.484   8.872 -0.8742 -0.1031  0.7381
   27SAPC  C219 3613   0.695  -0.559   8.989  0.1868  0.1275  0.4069
   27SAPC  H19R 3614   0.650  -0.458   9.003  0.2626 -0.0284  2.0536
   27SAPC  H19S 3615   0.760  -0.583   9.075  0.5554 -2.4014 -0.5198
   27SAPC  C220 3616   0.580  -0.658   8.997 -0.2865 -0.1669 -0.5358
   27SAPC  H20R 3617   0.621  -0.761   8.989 -0.6981 -0.2328 -2.1582
   27SAPC  H20S 3618   0.513  -0.638   8.910  2.3880  2.1378 -2.2515
   27SAPC  H20T 3619   0.526  -0.668   9.093 -1.1933 -3.8687 -1.2659
   27SAPC   C33 3620   1.506  -0.613   7.076 -0.2193  0.2166 -0.7461
   27SAPC   H3X 3621   1.536  -0.520   7.128  1.1878 -0.7443  0.2185
   27SAPC   H3Y 3622   1.575  -0.698   7.090 -2.4392 -1.9789 -2.2176
   27SAPC   C34 3623   1.370  -0.663   7.132 -0.6860 -0.4465 -0.2196
   27SAPC   H4X 3624   1.332  -0.733   7.055  0.3315 -0.4184 -0.7506
   27SAPC   H4Y 3625   1.295  -0.581   7.144 -1.6654 -1.2062 -0.9541
   27SAPC   C35 3626   1.388  -0.746   7.264 -0.3533  0.5659  0.7645
   27SAPC   H5X 3627   1.468  -0.822   7.253 -0.7119  0.2639  0.1374
   27SAPC   H5Y 3628   1.293  -0.802   7.279 -2.3728  2.9169 -1.9815
   27SAPC   C36 3629   1.436  -0.658   7.373  0.2594 -0.0563 -0.1842
   27SAPC   H6X 3630   1.383  -0.561   7.384  0.5873  0.2018 -0.8452
   27SAPC   H6Y 3631   1.543  -0.627   7.370  0.2817 -0.1656 -2.6280
   27SAPC   C37 3632   1.439  -0.744   7.499 -0.0727 -0.0295  0.1505
   27SAPC   H7X 3633   1.493  -0.839   7.477 -0.7612 -0.0598 -1.6031
   27SAPC   H7Y 3634   1.333  -0.775   7.512 -0.3912  0.3877 -1.2776
   27SAPC   C38 3635   1.490  -0.669   7.620 -0.0979  0.3124  0.4832
   27SAPC   H8X 3636   1.462  -0.562   7.614 -1.3086 -0.0784 -1.5673
   27SAPC   H8Y 3637   1.600  -0.677   7.623  0.0303  2.1039  2.1428
   27SAPC   C39 3638   1.439  -0.732   7.752  0.6447 -0.3500 -0.4469
   27SAPC   H9X 3639   1.449  -0.840   7.731  0.8909 -0.0134 -2.2374
   27SAPC   H9Y 3640   1.332  -0.706   7.771  0.5162  0.0978 -1.6506
   27SAPC  C310 3641   1.518  -0.693   7.883  0.1058  0.0779 -0.2042
   27SAPC  H10X 3642   1.629  -0.698   7.884  0.3306  3.2278  0.8010
   27SAPC  H10Y 3643   1.476  -0.765   7.957 -0.6724  0.1249 -0.5928
   27SAPC  C311 3644   1.485  -0.551   7.932 -0.1399 -0.5741  0.5504
   27SAPC  H11X 3645   1.385  -0.520   7.897 -0.9045  0.2536  3.2189
   27SAPC  H11Y 3646   1.563  -0.480   7.895 -0.2466 -0.6961  0.0849
   27SAPC  C312 3647   1.494  -0.532   8.080  0.3328 -0.3543  0.5938
   27SAPC  H12X 3648   1.540  -0.433   8.101  1.0544  0.0477 -2.4401
   27SAPC  H12Y 3649   1.566  -0.607   8.119  0.0726 -0.3309  1.1235
   27SAPC  C313 3650   1.360  -0.550   8.146 -0.8683 -0.6652  0.1057
   27SAPC  H13X 3651   1.328  -0.655   8.162 -1.6464 -0.0662  2.9905
   27SAPC  H13Y 3652   1.278  -0.498   8.093 -1.1467 -3.4711 -2.4979
   27SAPC  C314 3653   1.384  -0.513   8.303 -0.7577  0.4563 -0.1168
   27SAPC  H14X 3654   1.295  -0.487   8.364 -2.5698 -0.6485 -2.1244
   27SAPC  H14Y 3655   1.447  -0.422   8.313 -0.6160  0.2919  0.5298
   27SAPC  C315 3656   1.451  -0.631   8.377  0.6140 -0.6288 -0.1635
   27SAPC  H15X 3657   1.532  -0.668   8.311  0.5153 -0.3651 -0.4379
   27SAPC  H15Y 3658   1.371  -0.707   8.388 -0.3126  0.1203 -1.4073
   27SAPC  C316 3659   1.511  -0.593   8.515  0.5408 -0.1132  0.1383
   27SAPC  H16X 3660   1.608  -0.540   8.503  1.7420 -2.6707 -3.0051
   27SAPC  H16Y 3661   1.552  -0.684   8.563  0.8533 -0.1132 -0.1266
   27SAPC  C317 3662   1.408  -0.531   8.614 -0.9700  0.0352 -0.1186
   27SAPC  H17X 3663   1.369  -0.441   8.562  1.4866  0.6282 -1.0878
   27SAPC  H17Y 3664   1.466  -0.485   8.698  0.3147  0.8981 -1.4320
   27SAPC  C318 3665   1.305  -0.625   8.665  0.2353 -0.7405  0.8598
   27SAPC  H18X 3666   1.352  -0.721   8.695  1.5164 -1.0568 -1.9133
   27SAPC  H18Y 3667   1.236  -0.646   8.581  0.3335  1.1426  0.2702
   27SAPC  H18Z 3668   1.239  -0.587   8.747 -0.1720  1.4216 -0.4086
   28SAPC     N 3669   0.258   4.011   6.603  0.1574 -0.7950  0.8038
   28SAPC   C12 3670   0.207   3.994   6.457 -0.1468 -0.9385 -0.2373
   28SAPC  H12A 3671   0.287   4.021   6.390 -0.0512 -1.3678 -0.2988
   28SAPC  H12B 3672   0.134   4.070   6.434  1.3987  1.5021  2.3786
   28SAPC   C13 3673   0.313   4.145   6.625  0.1192 -0.1768  0.1170
   28SAPC  H13A 3674   0.350   4.153   6.726 -2.0736 -1.3058  1.0892
   28SAPC  H13B 3675   0.399   4.171   6.565  3.3067 -2.7434  3.1501
   28SAPC  H13C 3676   0.229   4.213   6.619  0.9830  0.7902 -1.6521
   28SAPC   C14 3677   0.143   3.996   6.692 -0.7439 -0.5975 -0.1478
   28SAPC  H14A 3678   0.172   4.009   6.795 -0.4917 -0.3956 -0.2438
   28SAPC  H14B 3679   0.069   4.070   6.663  0.2495  0.5335  0.1566
   28SAPC  H14C 3680   0.092   3.901   6.687 -2.8107  0.2842  2.0545
   28SAPC   C15 3681   0.359   3.914   6.627  0.6060 -0.0083  0.2686
   28SAPC  H15A 3682   0.378   3.887   6.730 -0.1974  1.3149  0.7800
   28SAPC  H15B 3683   0.322   3.820   6.588 -1.3812  0.6631  0.4321
   28SAPC  H15C 3684   0.451   3.929   6.572  0.3896  0.5823  0.0719
   28SAPC   C11 3685   0.144   3.857   6.410  0.0432  0.1358  0.2135
   28SAPC  H11A 3686   0.120   3.868   6.302  3.4342 -3.7182 -1.1919
   28SAPC  H11B 3687   0.046   3.834   6.458 -0.5447 -0.1565 -1.0859
   28SAPC     P 3688   0.212   3.623   6.342  0.0697 -0.1398  0.1386
   28SAPC   O13 3689   0.080   3.567   6.362  0.3407  0.7594 -0.0418
   28SAPC   O14 3690   0.250   3.654   6.202  0.3942  0.3673  0.3276
   28SAPC   O12 3691   0.231   3.751   6.430 -0.0627 -0.6514 -0.3089
   28SAPC   O11 3692   0.318   3.524   6.391  0.0365  0.9176  0.2127
   28SAPC    C1 3693   0.433   3.562   6.466 -0.0686  0.1954 -0.2913
   28SAPC    HA 3694   0.527   3.532   6.414  0.4416  1.9267 -0.4264
   28SAPC    HB 3695   0.448   3.672   6.463  0.5593  0.1295  0.2028
   28SAPC    C2 3696   0.428   3.500   6.601  0.1942  0.3231  0.6060
   28SAPC    HS 3697   0.405   3.391   6.590 -0.5123  0.5245  0.0461
   28SAPC   O21 3698   0.330   3.573   6.676  0.2816  0.2678 -0.2163
   28SAPC   C21 3699   0.213   3.512   6.682 -0.7102  0.0701 -0.2672
   28SAPC   O22 3700   0.188   3.400   6.653  0.8603  0.3339  0.2427
   28SAPC   C22 3701   0.097   3.606   6.732 -0.0549 -0.0941  0.0503
   28SAPC   H2R 3702   0.123   3.713   6.716 -0.0427 -0.3474 -1.8204
   28SAPC   H2S 3703   0.007   3.594   6.667  0.9614  3.1447 -2.1859
   28SAPC    C3 3704   0.567   3.509   6.675  0.2167  0.2136  0.3896
   28SAPC    HX 3705   0.589   3.618   6.679  1.4185  0.1668 -2.5033
   28SAPC    HY 3706   0.646   3.473   6.606 -0.1526 -0.4252  0.2902
   28SAPC   O31 3707   0.572   3.449   6.808  0.7997  0.2228  0.2000
   28SAPC   C31 3708   0.596   3.321   6.804 -0.2545  0.4746  0.2998
   28SAPC   O32 3709   0.615   3.258   6.698  0.1706 -0.0953 -0.2116
   28SAPC   C32 3710   0.591   3.267   6.943  0.3702  0.7224 -0.0369
   28SAPC   H2X 3711   0.648   3.329   7.016  4.2398 -2.3545 -0.1353
   28SAPC   H2Y 3712   0.645   3.170   6.951 -0.1516  0.5179  1.2843
   28SAPC   C23 3713   0.071   3.587   6.885  0.3352 -0.5913  1.0320
   28SAPC   H3R 3714   0.149   3.642   6.942  0.8975  0.7006 -0.8665
   28SAPC   H3S 3715   0.065   3.478   6.907  1.1096 -0.9083 -0.2242
   28SAPC   C24 3716  -0.072   3.641   6.920  0.7387  0.7959  0.3432
   28SAPC   H4R 3717  -0.098   3.732   6.861  0.1757 -0.8384 -2.1047
   28SAPC   H4S 3718  -0.138   3.566   6.872 -1.0371  2.8199 -0.5248
   28SAPC   C25 3719  -0.109   3.677   7.060 -0.0148 -0.1043 -0.3458
   28SAPC   H5R 3720  -0.073   3.776   7.094 -1.3961  0.3843 -0.2549
   28SAPC   C26 3721  -0.167   3.599   7.158 -0.4327 -0.3361 -0.0837
   28SAPC   H6R 3722  -0.179   3.624   7.265 -3.7758 -2.3046  0.1345
   28SAPC   C27 3723  -0.237   3.465   7.139 -1.1620  0.3539  0.0331
   28SAPC   H7R 3724  -0.219   3.405   7.231  0.2022  1.6396  0.6492
   28SAPC   H7S 3725  -0.183   3.407   7.061  0.4165  0.7979  0.7572
   28SAPC   C28 3726  -0.378   3.479   7.103  0.2235 -0.1896 -0.6093
   28SAPC   H8R 3727  -0.402   3.506   6.999  1.7164 -0.2076 -0.9848
   28SAPC   C29 3728  -0.489   3.460   7.180 -0.0053 -1.0575 -0.5884
   28SAPC   H9R 3729  -0.586   3.482   7.133 -1.6354  2.4504  3.6296
   28SAPC  C210 3730  -0.498   3.448   7.327 -0.2702 -0.4074 -0.7555
   28SAPC  H10R 3731  -0.399   3.478   7.369  0.2336  0.0464 -2.1915
   28SAPC  H10S 3732  -0.508   3.338   7.337 -0.5543 -0.4469 -1.4398
   28SAPC  C211 3733  -0.615   3.529   7.382  0.3684  0.0990  0.1647
   28SAPC  H11R 3734  -0.615   3.636   7.358  0.3353  0.2358  0.7636
   28SAPC  C212 3735  -0.693   3.498   7.484  0.9397  0.1531 -0.3628
   28SAPC  H12R 3736  -0.790   3.548   7.495  1.3896  0.9693 -0.0394
   28SAPC  C213 3737  -0.688   3.375   7.572  0.3905  0.1912 -0.3295
   28SAPC  H13R 3738  -0.645   3.291   7.512  0.3116  2.1641 -3.3855
   28SAPC  H13S 3739  -0.792   3.343   7.592  1.0497 -0.7352  1.9114
   28SAPC  C214 3740  -0.606   3.384   7.694  0.4959  0.3308 -0.1696
   28SAPC  H14R 3741  -0.500   3.360   7.681  0.4262 -0.8871  1.3164
   28SAPC  C215 3742  -0.657   3.405   7.820 -0.5324  0.3586 -0.7652
   28SAPC  H15R 3743  -0.587   3.430   7.901 -1.4023 -2.0446  0.8093
   28SAPC  C216 3744  -0.795   3.420   7.876  0.5741  0.4189 -0.0631
   28SAPC  H16R 3745  -0.884   3.404   7.811 -0.0508 -1.9102  1.2440
   28SAPC  H16S 3746  -0.798   3.525   7.913  0.0756  0.6117 -0.6209
   28SAPC  C217 3747  -0.800   3.321   7.993 -0.5871 -0.3381 -0.3057
   28SAPC  H17R 3748  -0.714   3.337   8.061  0.4193  1.5475 -1.9320
   28SAPC  H17S 3749  -0.791   3.217   7.953  0.6811 -0.2694 -0.2509
   28SAPC  C218 3750  -0.927   3.329   8.074  0.8207 -0.1654 -0.1541
   28SAPC  H18R 3751  -1.012   3.329   8.003 -1.5251  0.4682  2.4707
   28SAPC  H18S 3752  -0.939   3.429   8.121  1.4081 -0.4469  0.6171
   28SAPC  C219 3753  -0.933   3.225   8.183 -0.0269  0.2809 -0.6181
   28SAPC  H19R 3754  -0.899   3.128   8.138 -0.6090  0.7814 -2.2083
   28SAPC  H19S 3755  -1.040   3.209   8.205  0.1049 -0.8255 -0.6989
   28SAPC  C220 3756  -0.853   3.255   8.307 -0.3760  0.3539 -0.0408
   28SAPC  H20R 3757  -0.745   3.271   8.284 -0.1640  1.1043  1.3078
   28SAPC  H20S 3758  -0.854   3.168   8.376 -1.3131  1.2520  1.1315
   28SAPC  H20T 3759  -0.880   3.351   8.357  0.7755  0.9307 -0.4765
   28SAPC   C33 3760   0.444   3.234   6.990  0.1092  0.6626 -0.2284
   28SAPC   H3X 3761   0.445   3.133   7.036  0.3455  0.4225 -0.7513
   28SAPC   H3Y 3762   0.371   3.211   6.909 -2.0405  0.0706  1.7627
   28SAPC   C34 3763   0.381   3.341   7.091  0.0332  0.1079  0.1925
   28SAPC   H4X 3764   0.340   3.437   7.052  1.0029  1.9057  3.2587
   28SAPC   H4Y 3765   0.464   3.368   7.160  0.3518 -0.0315 -0.1364
   28SAPC   C35 3766   0.263   3.274   7.168 -0.0742 -0.5229 -0.3429
   28SAPC   H5X 3767   0.281   3.179   7.223 -0.3770  0.7544  2.0792
   28SAPC   H5Y 3768   0.182   3.266   7.092 -0.2747  0.0091 -0.1884
   28SAPC   C36 3769   0.223   3.370   7.284  0.1300  0.0711  0.5020
   28SAPC   H6X 3770   0.221   3.477   7.254  2.7255 -0.5585 -2.4537
   28SAPC   H6Y 3771   0.300   3.360   7.364 -0.9111  0.4652  1.5790
   28SAPC   C37 3772   0.089   3.321   7.339  0.8655  0.8342  0.0034
   28SAPC   H7X 3773   0.068   3.214   7.320  1.0075  0.8433 -0.2078
   28SAPC   H7Y 3774   0.002   3.376   7.295  0.4600  0.7925  0.7367
   28SAPC   C38 3775   0.069   3.349   7.487  0.2571  0.7300 -0.0680
   28SAPC   H8X 3776   0.099   3.450   7.523  2.0861  0.0626  0.4045
   28SAPC   H8Y 3777   0.143   3.284   7.538  1.0018 -2.0890 -4.2801
   28SAPC   C39 3778  -0.073   3.317   7.537  0.0459 -0.3493  0.0208
   28SAPC   H9X 3779  -0.101   3.214   7.507 -3.4402 -0.3148  2.5250
   28SAPC   H9Y 3780  -0.155   3.386   7.505 -1.1138 -0.5248  2.4321
   28SAPC  C310 3781  -0.064   3.327   7.688  0.0836  0.5210  0.0801
   28SAPC  H10X 3782  -0.020   3.426   7.712 -0.4365  1.0018 -0.8918
   28SAPC  H10Y 3783   0.005   3.250   7.730 -0.7263  0.6670  1.7726
   28SAPC  C311 3784  -0.195   3.295   7.769 -0.3687 -0.6515  0.0404
   28SAPC  H11X 3785  -0.250   3.210   7.723 -1.8266  0.2765 -0.0121
   28SAPC  H11Y 3786  -0.265   3.382   7.765 -1.4545 -1.5313 -0.7534
   28SAPC  C312 3787  -0.161   3.263   7.916 -0.4686 -0.2796 -0.3750
   28SAPC  H12X 3788  -0.109   3.356   7.951 -0.3567 -0.6206  0.3903
   28SAPC  H12Y 3789  -0.072   3.196   7.918  1.4283  2.0865  0.6492
   28SAPC  C313 3790  -0.269   3.226   8.012  0.0550  0.0059  0.3053
   28SAPC  H13X 3791  -0.309   3.126   7.986 -0.9433 -0.0986  2.0777
   28SAPC  H13Y 3792  -0.343   3.307   7.991  0.6856  1.0594  1.9499
   28SAPC  C314 3793  -0.222   3.227   8.150 -0.2124  0.5054 -0.2291
   28SAPC  H14X 3794  -0.183   3.324   8.188 -0.7978  0.0843  1.5694
   28SAPC  H14Y 3795  -0.134   3.160   8.162  0.1834  0.8477 -1.1272
   28SAPC  C315 3796  -0.325   3.182   8.257  0.3123 -0.0261 -0.6027
   28SAPC  H15X 3797  -0.356   3.082   8.219 -2.3203 -0.2761  1.8253
   28SAPC  H15Y 3798  -0.409   3.255   8.256 -0.6110 -1.0138  0.5029
   28SAPC  C316 3799  -0.277   3.160   8.394  0.4089  0.7546 -0.6079
   28SAPC  H16X 3800  -0.228   3.255   8.424  0.0956  0.3436  1.3512
   28SAPC  H16Y 3801  -0.197   3.083   8.391  0.4830  0.7104  1.1123
   28SAPC  C317 3802  -0.393   3.131   8.497 -1.0936 -0.1302  0.1486
   28SAPC  H17X 3803  -0.354   3.116   8.600  0.5179  0.4125 -0.3597
   28SAPC  H17Y 3804  -0.440   3.032   8.474 -3.7001  0.4028  2.5410
   28SAPC  C318 3805  -0.490   3.244   8.519 -0.2872 -0.1634 -0.4600
   28SAPC  H18X 3806  -0.433   3.340   8.520 -0.6281  0.0847  2.2656
   28SAPC  H18Y 3807  -0.539   3.237   8.619  1.3440  0.1688  0.4009
   28SAPC  H18Z 3808  -0.552   3.252   8.428  1.0276  3.2322 -1.2177
   29SAPC     N 3809   2.363   0.398   6.282 -0.0431 -0.1566 -0.4340
   29SAPC   C12 3810   2.411   0.514   6.195 -0.3728 -0.0061  0.4798
   29SAPC  H12A 3811   2.338   0.593   6.194  0.9151  1.2144  0.2870
   29SAPC  H12B 3812   2.399   0.484   6.091  0.2987 -0.5103  0.5392
   29SAPC   C13 3813   2.352   0.446   6.424 -0.0516  0.4191 -0.2481
   29SAPC  H13A 3814   2.447   0.490   6.451 -0.1792  1.2207 -1.0825
   29SAPC  H13B 3815   2.270   0.513   6.443  0.6716  0.6827  2.4452
   29SAPC  H13C 3816   2.329   0.369   6.496  0.6817  0.2674 -0.1618
   29SAPC   C14 3817   2.229   0.351   6.246  0.8454 -0.1463 -0.4250
   29SAPC  H14A 3818   2.220   0.286   6.161 -2.2617 -0.1573 -0.2030
   29SAPC  H14B 3819   2.195   0.296   6.332 -0.3355  0.7539 -0.2925
   29SAPC  H14C 3820   2.160   0.431   6.227 -0.6057 -1.4216 -0.6464
   29SAPC   C15 3821   2.458   0.290   6.292  0.5439 -1.5728  0.3531
   29SAPC  H15A 3822   2.488   0.257   6.193 -0.6394  1.2199 -1.0482
   29SAPC  H15B 3823   2.547   0.330   6.339 -0.7546  1.2475  0.6197
   29SAPC  H15C 3824   2.427   0.214   6.362  2.0584 -1.6874  0.9448
   29SAPC   C11 3825   2.541   0.589   6.224 -0.4322 -0.3123 -0.7595
   29SAPC  H11A 3826   2.520   0.644   6.318  0.5427 -1.3982  0.1170
   29SAPC  H11B 3827   2.559   0.667   6.147 -1.6211  0.5218 -0.2250
   29SAPC     P 3828   2.775   0.531   6.329 -0.0356  0.3315  0.2524
   29SAPC   O13 3829   2.870   0.412   6.331  0.4204 -0.4282 -0.1869
   29SAPC   O14 3830   2.841   0.657   6.302  0.9603 -0.3285 -0.0038
   29SAPC   O12 3831   2.658   0.507   6.230 -0.1602 -0.0730 -0.6804
   29SAPC   O11 3832   2.711   0.542   6.471  0.4859  0.5484  0.1860
   29SAPC    C1 3833   2.779   0.594   6.586  0.1314 -0.3534 -0.4112
   29SAPC    HA 3834   2.878   0.638   6.560 -0.2275  1.1653  0.7237
   29SAPC    HB 3835   2.708   0.673   6.618  1.1742  0.5782 -0.3358
   29SAPC    C2 3836   2.787   0.499   6.711 -0.3814 -0.2111 -0.6568
   29SAPC    HS 3837   2.839   0.556   6.790 -0.7731 -1.2108  0.3478
   29SAPC   O21 3838   2.850   0.369   6.681 -0.2065  0.3759 -0.0915
   29SAPC   C21 3839   2.977   0.380   6.671 -0.2801  0.7162  0.4058
   29SAPC   O22 3840   3.047   0.480   6.675 -0.2421  0.5723  0.3599
   29SAPC   C22 3841   3.027   0.225   6.662  0.1574  0.0907 -0.4603
   29SAPC   H2R 3842   2.984   0.191   6.566 -2.2859  0.7158  0.3362
   29SAPC   H2S 3843   3.138   0.218   6.669  0.1978  0.2298 -0.9188
   29SAPC    C3 3844   2.638   0.469   6.775  0.1828  0.2259  0.4448
   29SAPC    HX 3845   2.558   0.436   6.705 -0.3760  1.7673  0.2979
   29SAPC    HY 3846   2.607   0.574   6.798  0.6219  0.4017  0.2288
   29SAPC   O31 3847   2.646   0.392   6.890 -0.3954 -0.5673 -0.4645
   29SAPC   C31 3848   2.601   0.267   6.883 -1.3332  0.3670  0.8627
   29SAPC   O32 3849   2.568   0.217   6.776 -0.9394 -0.2673 -0.5269
   29SAPC   C32 3850   2.628   0.188   7.010  0.1117  0.3322  0.4775
   29SAPC   H2X 3851   2.734   0.191   7.043  0.7639  3.0898 -1.5041
   29SAPC   H2Y 3852   2.600   0.084   6.983 -1.0543  0.9170 -0.6640
   29SAPC   C23 3853   2.959   0.138   6.779 -0.5449 -0.3920  0.1677
   29SAPC   H3R 3854   2.974   0.033   6.747 -0.5894  0.7474 -4.3175
   29SAPC   H3S 3855   2.848   0.149   6.783 -0.5927  1.4663 -2.9327
   29SAPC   C24 3856   3.031   0.159   6.915  0.1685 -0.6816 -1.3780
   29SAPC   H4R 3857   3.140   0.141   6.909  0.5236  1.0518 -0.8403
   29SAPC   H4S 3858   2.998   0.072   6.976  2.0973 -0.8144 -0.4500
   29SAPC   C25 3859   2.984   0.285   6.989  0.0282 -0.2985  0.1693
   29SAPC   H5R 3860   2.928   0.364   6.937  0.7538  1.5331  2.0174
   29SAPC   C26 3861   3.020   0.311   7.113  0.3835  0.7364 -0.3021
   29SAPC   H6R 3862   2.993   0.410   7.154 -0.0860 -0.1890  1.7717
   29SAPC   C27 3863   3.100   0.230   7.200 -0.2092 -0.5761 -0.4569
   29SAPC   H7R 3864   3.207   0.246   7.173  0.0156 -3.2098 -1.4513
   29SAPC   H7S 3865   3.087   0.126   7.165 -0.4058  0.0098 -2.2699
   29SAPC   C28 3866   3.075   0.229   7.346  0.0275 -0.4305  0.0078
   29SAPC   H8R 3867   2.975   0.254   7.383 -0.3239 -1.3789 -0.2682
   29SAPC   C29 3868   3.164   0.197   7.441  0.7237 -0.6618  0.4173
   29SAPC   H9R 3869   3.131   0.199   7.546  1.3320  2.7869  0.6449
   29SAPC  C210 3870   3.307   0.155   7.422  0.6402 -0.4610  0.3738
   29SAPC  H10R 3871   3.374   0.229   7.373  1.1658 -0.4048  1.1620
   29SAPC  H10S 3872   3.311   0.072   7.349  4.7690 -1.2469  1.2625
   29SAPC  C211 3873   3.374   0.099   7.540  0.5353  0.2449 -0.3677
   29SAPC  H11R 3874   3.419   0.001   7.515 -1.3157 -0.3973 -1.4092
   29SAPC  C212 3875   3.403   0.165   7.649  0.7872  0.1084  0.8746
   29SAPC  H12R 3876   3.450   0.106   7.729  0.7913 -1.3395 -0.1544
   29SAPC  C213 3877   3.363   0.313   7.670 -0.5531 -0.1877 -0.2320
   29SAPC  H13R 3878   3.271   0.322   7.732 -2.4698  1.9986 -3.1567
   29SAPC  H13S 3879   3.332   0.359   7.574 -1.4693 -0.7506 -0.2188
   29SAPC  C214 3880   3.490   0.381   7.717  0.4358  0.3459 -0.5531
   29SAPC  H14R 3881   3.549   0.426   7.635 -0.6086  1.4887 -0.7012
   29SAPC  C215 3882   3.524   0.388   7.848 -0.7363 -0.8967  0.1670
   29SAPC  H15R 3883   3.613   0.447   7.873 -0.8856 -0.6119  0.0315
   29SAPC  C216 3884   3.453   0.332   7.967 -0.0486  0.0710  0.5077
   29SAPC  H16R 3885   3.350   0.298   7.942 -0.2875 -0.3797  1.9722
   29SAPC  H16S 3886   3.439   0.410   8.045  0.2840  1.0739 -0.4281
   29SAPC  C217 3887   3.517   0.201   8.028  0.3053  0.3612  0.7205
   29SAPC  H17R 3888   3.627   0.211   8.045  0.1776  0.3584  1.6374
   29SAPC  H17S 3889   3.510   0.121   7.952 -0.8563 -2.1204  3.2826
   29SAPC  C218 3890   3.449   0.170   8.163 -0.0324  0.6180  0.0052
   29SAPC  H18R 3891   3.339   0.162   8.144 -0.2081  4.5493 -1.4394
   29SAPC  H18S 3892   3.468   0.252   8.235 -2.3154 -0.3709  1.8992
   29SAPC  C219 3893   3.482   0.024   8.210  0.8725 -0.8579 -0.2211
   29SAPC  H19R 3894   3.593   0.015   8.213  0.8007 -1.3478  1.8472
   29SAPC  H19S 3895   3.442  -0.053   8.141  0.7819 -1.5759  0.6210
   29SAPC  C220 3896   3.429   0.000   8.351  0.9302 -0.3485 -0.1137
   29SAPC  H20R 3897   3.468   0.064   8.434 -3.1137  1.5328  0.5524
   29SAPC  H20S 3898   3.450  -0.105   8.380  0.3402 -0.5013 -0.2279
   29SAPC  H20T 3899   3.319   0.011   8.351  0.6034 -3.1178 -0.2732
   29SAPC   C33 3900   2.546   0.232   7.137  0.3248  0.0049 -0.5161
   29SAPC   H3X 3901   2.439   0.203   7.133  1.0308 -2.9768 -0.1386
   29SAPC   H3Y 3902   2.552   0.341   7.160 -0.8165 -0.0050 -0.0891
   29SAPC   C34 3903   2.585   0.157   7.266 -0.7644 -0.0517  0.1978
   29SAPC   H4X 3904   2.691   0.125   7.272 -0.6119  0.5009  0.4841
   29SAPC   H4Y 3905   2.525   0.063   7.266  1.1050 -1.2891 -0.0218
   29SAPC   C35 3906   2.548   0.227   7.401 -0.0293  0.3753  0.6139
   29SAPC   H5X 3907   2.440   0.252   7.399 -0.3223 -0.8993  0.0808
   29SAPC   H5Y 3908   2.603   0.324   7.406 -0.6098  0.6631  1.6730
   29SAPC   C36 3909   2.586   0.151   7.530  0.5059  0.6139 -0.5380
   29SAPC   H6X 3910   2.695   0.143   7.549  0.1569 -0.1049  1.5023
   29SAPC   H6Y 3911   2.537   0.051   7.522  2.0510 -0.1015 -1.5865
   29SAPC   C37 3912   2.525   0.218   7.659  0.3940 -0.0968  0.3277
   29SAPC   H7X 3913   2.423   0.255   7.637  0.9974 -0.0584 -2.7961
   29SAPC   H7Y 3914   2.580   0.315   7.666 -2.3582  1.6521 -0.5536
   29SAPC   C38 3915   2.551   0.131   7.779  0.4255 -0.1273 -0.1300
   29SAPC   H8X 3916   2.660   0.112   7.787  0.3997 -0.0376  0.4445
   29SAPC   H8Y 3917   2.501   0.033   7.764 -0.6404  0.2717  0.6895
   29SAPC   C39 3918   2.495   0.201   7.905  0.3765 -0.1541 -0.3718
   29SAPC   H9X 3919   2.385   0.195   7.889  0.2510 -0.6759  0.6088
   29SAPC   H9Y 3920   2.529   0.307   7.907  0.9820 -0.2941 -1.9048
   29SAPC  C310 3921   2.537   0.123   8.032 -0.1929 -0.1131 -0.0516
   29SAPC  H10X 3922   2.628   0.176   8.069 -0.3727  0.9761 -1.1370
   29SAPC  H10Y 3923   2.579   0.024   8.003  3.5799  1.1150  0.5870
   29SAPC  C311 3924   2.434   0.125   8.141 -0.5283 -0.4162  0.4909
   29SAPC  H11X 3925   2.350   0.056   8.119 -1.3950  0.6403  0.3985
   29SAPC  H11Y 3926   2.389   0.227   8.137 -0.6038 -0.4843 -0.7029
   29SAPC  C312 3927   2.493   0.097   8.279 -0.3378  0.1220  1.0509
   29SAPC  H12X 3928   2.542   0.193   8.307 -0.7994  1.0786 -1.1796
   29SAPC  H12Y 3929   2.560   0.010   8.264  0.4928  1.1981 -2.3734
   29SAPC  C313 3930   2.396   0.064   8.396 -0.3768  1.0555 -0.3007
   29SAPC  H13X 3931   2.349  -0.033   8.368  0.2394 -0.1439  2.4121
   29SAPC  H13Y 3932   2.314   0.138   8.400 -1.6811 -0.3679  2.1871
   29SAPC  C314 3933   2.440   0.048   8.541 -0.1287  0.2997 -0.7560
   29SAPC  H14X 3934   2.462   0.149   8.581  0.1819  0.0714 -0.3381
   29SAPC  H14Y 3935   2.535  -0.010   8.548 -1.3765 -1.6813  2.7771
   29SAPC  C315 3936   2.329  -0.014   8.634 -0.0701 -0.0713 -0.0127
   29SAPC  H15X 3937   2.375  -0.041   8.731  0.4306  0.9604  0.0585
   29SAPC  H15Y 3938   2.291  -0.107   8.588  3.4197 -0.6534 -2.1000
   29SAPC  C316 3939   2.209   0.070   8.673 -0.3390 -0.1151 -0.1225
   29SAPC  H16X 3940   2.163   0.109   8.579 -2.0996 -4.0095 -1.0489
   29SAPC  H16Y 3941   2.249   0.150   8.738  1.9863 -1.8842  0.7312
   29SAPC  C317 3942   2.104   0.006   8.765  0.1223  0.5290  0.0167
   29SAPC  H17X 3943   2.156  -0.052   8.845  1.4805  0.2379 -1.0373
   29SAPC  H17Y 3944   2.063  -0.078   8.704 -0.5990  1.8619 -1.3993
   29SAPC  C318 3945   2.001   0.103   8.822  0.5081  0.2070 -1.1510
   29SAPC  H18X 3946   2.042   0.181   8.889 -1.2102 -0.3784  0.6877
   29SAPC  H18Y 3947   1.918   0.040   8.861  0.7225 -0.8310 -2.2968
   29SAPC  H18Z 3948   1.950   0.150   8.735 -0.5734 -0.1278 -0.7247
   30SAPC     N 3949   3.737   0.295   6.026 -0.5305 -0.6468 -0.4483
   30SAPC   C12 3950   3.828   0.317   6.153  0.1765  0.0784 -0.4715
   30SAPC  H12A 3951   3.871   0.227   6.193  3.5606  1.1879 -1.2421
   30SAPC  H12B 3952   3.771   0.350   6.239  1.3022  0.2170  0.2364
   30SAPC   C13 3953   3.631   0.187   6.062 -0.2120 -0.3576  0.3161
   30SAPC  H13A 3954   3.570   0.151   5.981 -0.6780  0.0825  0.4711
   30SAPC  H13B 3955   3.677   0.102   6.111  2.3784  0.5658 -0.3608
   30SAPC  H13C 3956   3.575   0.228   6.145  0.7573  1.6537  0.0481
   30SAPC   C14 3957   3.659   0.418   5.980  0.7037  0.0673 -0.3984
   30SAPC  H14A 3958   3.593   0.440   6.063  2.2391 -0.4673  1.0112
   30SAPC  H14B 3959   3.725   0.500   5.955 -0.2818  0.5268 -1.6388
   30SAPC  H14C 3960   3.612   0.391   5.886  1.8225 -0.3442 -0.8550
   30SAPC   C15 3961   3.811   0.233   5.916  0.3112  0.0710 -0.2275
   30SAPC  H15A 3962   3.832   0.131   5.945 -0.5344 -0.6418 -2.0197
   30SAPC  H15B 3963   3.760   0.237   5.821 -2.6329  1.7953  1.2982
   30SAPC  H15C 3964   3.906   0.286   5.918 -1.5463  3.7809 -0.5944
   30SAPC   C11 3965   3.955   0.412   6.142  0.5520 -0.0140 -0.1303
   30SAPC  H11A 3966   4.000   0.440   6.239 -0.1219  2.2818 -0.4246
   30SAPC  H11B 3967   3.917   0.508   6.101 -0.4912  0.1126  1.0888
   30SAPC     P 3968   4.132   0.239   6.082 -0.0761 -0.3248  0.7816
   30SAPC   O13 3969   4.041   0.123   6.084  0.2654  0.1292 -0.3071
   30SAPC   O14 3970   4.248   0.234   5.992  0.5431 -0.1690  0.0513
   30SAPC   O12 3971   4.043   0.370   6.037 -0.4763  0.0806 -0.5802
   30SAPC   O11 3972   4.183   0.274   6.227 -0.0529 -0.4024 -0.3643
   30SAPC    C1 3973   4.315   0.335   6.232 -0.8404 -1.0496 -0.1065
   30SAPC    HA 3974   4.403   0.269   6.214  0.3031 -0.5741  3.0907
   30SAPC    HB 3975   4.319   0.421   6.163 -1.1327 -0.0131  1.1347
   30SAPC    C2 3976   4.331   0.396   6.377 -0.0328  0.3999  0.2945
   30SAPC    HS 3977   4.439   0.407   6.396 -0.3500  0.2020  2.5170
   30SAPC   O21 3978   4.274   0.317   6.479 -0.6110  0.1950 -0.3412
   30SAPC   C21 3979   4.315   0.193   6.499 -0.3518 -0.3752  0.1697
   30SAPC   O22 3980   4.411   0.136   6.444  0.4953 -0.5113 -0.6840
   30SAPC   C22 3981   4.221   0.132   6.599  0.0640 -0.3130 -0.0493
   30SAPC   H2R 3982   4.164   0.204   6.661  0.2411 -1.1417  1.1165
   30SAPC   H2S 3983   4.146   0.079   6.537  1.3414 -0.7478 -1.2888
   30SAPC    C3 3984   4.266   0.534   6.384  0.3616 -0.4838  0.1856
   30SAPC    HX 3985   4.163   0.514   6.348  1.0508 -4.4785 -0.0541
   30SAPC    HY 3986   4.329   0.590   6.312  1.1749 -0.5891  0.7928
   30SAPC   O31 3987   4.262   0.586   6.520 -0.1852 -0.3609 -0.0632
   30SAPC   C31 3988   4.242   0.718   6.522  0.4041  0.3790 -0.3059
   30SAPC   O32 3989   4.232   0.790   6.424  0.4738 -0.2146 -0.3003
   30SAPC   C32 3990   4.228   0.768   6.663  0.6987  0.2912  0.0184
   30SAPC   H2X 3991   4.123   0.756   6.697  0.2982 -0.9684 -1.5170
   30SAPC   H2Y 3992   4.256   0.875   6.661 -1.0459  0.7598 -1.8847
   30SAPC   C23 3993   4.284   0.033   6.699  0.6430 -0.6667  0.2818
   30SAPC   H3R 3994   4.338  -0.049   6.647  1.9820 -0.3233  1.0562
   30SAPC   H3S 3995   4.202  -0.018   6.753  1.0985 -1.5373  0.1695
   30SAPC   C24 3996   4.387   0.093   6.795 -0.2945 -0.2642  0.2237
   30SAPC   H4R 3997   4.469   0.124   6.728  0.0021 -0.0208  0.6913
   30SAPC   H4S 3998   4.427   0.006   6.852  1.3577 -0.2554 -0.8685
   30SAPC   C25 3999   4.337   0.210   6.868  0.0280 -0.0135 -0.4508
   30SAPC   H5R 4000   4.279   0.288   6.817 -3.1013 -0.7589  1.7236
   30SAPC   C26 4001   4.357   0.225   7.001  0.3681 -0.5305 -0.1646
   30SAPC   H6R 4002   4.315   0.319   7.040  3.2638  1.4490 -1.4663
   30SAPC   C27 4003   4.411   0.128   7.108  0.1695 -0.2442  0.4012
   30SAPC   H7R 4004   4.402   0.028   7.061 -0.6753  0.2987 -0.6293
   30SAPC   H7S 4005   4.351   0.118   7.201  0.0027 -0.0646  0.3138
   30SAPC   C28 4006   4.554   0.157   7.133 -0.3529 -0.4558 -0.8974
   30SAPC   H8R 4007   4.616   0.168   7.043  1.2169  1.9258  0.3801
   30SAPC   C29 4008   4.607   0.189   7.255 -0.5841  0.6079 -0.1611
   30SAPC   H9R 4009   4.717   0.194   7.259 -0.5265 -0.3038 -0.3305
   30SAPC  C210 4010   4.545   0.175   7.397 -0.2878 -0.1483 -0.6988
   30SAPC  H10R 4011   4.437   0.199   7.407 -0.0150  0.7348  0.2989
   30SAPC  H10S 4012   4.603   0.245   7.461 -0.6438  0.1485 -0.6965
   30SAPC  C211 4013   4.553   0.037   7.462 -0.3859 -1.0279  0.2481
   30SAPC  H11R 4014   4.580  -0.052   7.403  1.1235  0.0140 -0.6950
   30SAPC  C212 4015   4.544   0.023   7.596  0.6632  0.2527  0.4542
   30SAPC  H12R 4016   4.542  -0.079   7.635  0.8716 -0.9971 -2.5271
   30SAPC  C213 4017   4.528   0.135   7.693  0.0879  1.3888 -0.0770
   30SAPC  H13R 4018   4.483   0.228   7.651  1.7618  1.5656 -1.5947
   30SAPC  H13S 4019   4.634   0.152   7.720 -0.1927  0.5201  1.7811
   30SAPC  C214 4020   4.449   0.102   7.820  0.1718  0.5258 -0.0967
   30SAPC  H14R 4021   4.349   0.146   7.836  0.5310  1.0642  0.7217
   30SAPC  C215 4022   4.486   0.015   7.916 -0.0742  0.4745 -0.3332
   30SAPC  H15R 4023   4.425   0.007   8.007  2.1830  2.4704  1.4748
   30SAPC  C216 4024   4.607  -0.073   7.913 -0.2526  0.5562 -0.6795
   30SAPC  H16R 4025   4.681  -0.031   7.841 -0.0558  1.6711  0.1599
   30SAPC  H16S 4026   4.588  -0.173   7.867 -0.6232  0.7864 -1.0403
   30SAPC  C217 4027   4.666  -0.103   8.054 -0.3481  0.1398  1.0338
   30SAPC  H17R 4028   4.612  -0.183   8.108 -1.8681 -0.1708 -0.8292
   30SAPC  H17S 4029   4.660  -0.007   8.110  1.8448  2.0906 -1.7828
   30SAPC  C218 4030   4.815  -0.143   8.044 -0.0673 -0.5077  0.0708
   30SAPC  H18R 4031   4.862  -0.079   7.966  0.2744  1.0610  1.5088
   30SAPC  H18S 4032   4.832  -0.247   8.008  0.4448 -0.2018 -0.5958
   30SAPC  C219 4033   4.892  -0.122   8.181  0.6173  0.4602 -0.8017
   30SAPC  H19R 4034   4.822  -0.147   8.263  0.6106  0.3697 -0.8340
   30SAPC  H19S 4035   4.909  -0.013   8.199 -2.5980  0.6414  2.1891
   30SAPC  C220 4036   5.021  -0.197   8.189  0.1547  0.0946  0.2917
   30SAPC  H20R 4037   5.081  -0.176   8.280  0.1026  2.2907 -0.1101
   30SAPC  H20S 4038   5.077  -0.165   8.098 -0.0746  2.1069  0.8138
   30SAPC  H20T 4039   5.005  -0.306   8.180  0.8051 -0.1009  1.3019
   30SAPC   C33 4040   4.326   0.698   6.758 -0.6904 -0.0034  0.5165
   30SAPC   H3X 4041   4.430   0.714   6.725 -0.5563 -1.4368  0.1719
   30SAPC   H3Y 4042   4.299   0.590   6.764  0.0944 -0.3057 -0.9828
   30SAPC   C34 4043   4.316   0.761   6.897 -0.7302 -0.0925 -0.1351
   30SAPC   H4X 4044   4.214   0.792   6.928 -0.7013  0.6166 -0.7255
   30SAPC   H4Y 4045   4.375   0.853   6.879 -0.3781  0.0752  1.7319
   30SAPC   C35 4046   4.391   0.671   6.998 -0.2251 -0.1156 -0.1706
   30SAPC   H5X 4047   4.499   0.670   6.972 -0.3220 -2.3961 -0.6662
   30SAPC   H5Y 4048   4.341   0.572   6.991 -0.4716 -0.0892  1.0411
   30SAPC   C36 4049   4.396   0.724   7.142  0.1968  0.4027 -0.0050
   30SAPC   H6X 4050   4.292   0.752   7.169  0.6836  1.2226  1.0732
   30SAPC   H6Y 4051   4.458   0.816   7.144  0.3596  0.3044 -0.4399
   30SAPC   C37 4052   4.456   0.628   7.240 -0.5734  0.2937 -0.4531
   30SAPC   H7X 4053   4.565   0.622   7.217 -0.0352  1.8778  1.4395
   30SAPC   H7Y 4054   4.416   0.527   7.219 -0.2037  0.0140  0.1653
   30SAPC   C38 4055   4.420   0.659   7.387 -0.5616  0.0399 -0.0351
   30SAPC   H8X 4056   4.316   0.696   7.377 -0.8584 -0.9887 -1.0767
   30SAPC   H8Y 4057   4.475   0.741   7.437 -0.1220 -1.6871  2.5110
   30SAPC   C39 4058   4.416   0.526   7.466 -0.2529  0.6053 -0.3233
   30SAPC   H9X 4059   4.521   0.492   7.469 -0.0333  1.2636  3.2167
   30SAPC   H9Y 4060   4.357   0.445   7.417  1.5780 -1.0247  0.0333
   30SAPC  C310 4061   4.349   0.526   7.603  0.2985 -0.9899  0.1379
   30SAPC  H10X 4062   4.349   0.421   7.641 -4.5404 -1.5885 -0.8432
   30SAPC  H10Y 4063   4.241   0.552   7.602  0.6565  0.7800 -2.1884
   30SAPC  C311 4064   4.414   0.623   7.708  0.4511  0.7604  0.1265
   30SAPC  H11X 4065   4.386   0.730   7.699  0.1638  0.6925  0.1983
   30SAPC  H11Y 4066   4.524   0.615   7.703  0.5470  2.3321 -0.8012
   30SAPC  C312 4067   4.380   0.572   7.851  0.4706  0.0136 -0.2482
   30SAPC  H12X 4068   4.433   0.478   7.877  0.5907  0.2964  0.5573
   30SAPC  H12Y 4069   4.270   0.561   7.848 -0.0862  3.8800  0.4343
   30SAPC  C313 4070   4.414   0.678   7.964 -0.0727  0.1880 -0.2706
   30SAPC  H13X 4071   4.404   0.778   7.916 -0.4941 -0.8466 -2.5022
   30SAPC  H13Y 4072   4.514   0.669   8.012  0.4312  0.3075 -1.2658
   30SAPC  C314 4073   4.312   0.665   8.079  0.0228 -0.2565 -0.2649
   30SAPC  H14X 4074   4.226   0.701   8.019  1.6698  1.8486 -1.4487
   30SAPC  H14Y 4075   4.342   0.735   8.160  2.3318 -1.3580 -0.0711
   30SAPC  C315 4076   4.286   0.531   8.143  0.2884  0.0466  0.6221
   30SAPC  H15X 4077   4.226   0.467   8.074  3.5253 -4.0679  1.2002
   30SAPC  H15Y 4078   4.217   0.539   8.230  0.0235  0.8740  0.3420
   30SAPC  C316 4079   4.407   0.453   8.200  0.0582  0.0201  0.5797
   30SAPC  H16X 4080   4.482   0.522   8.245 -0.0084  2.1504 -2.2816
   30SAPC  H16Y 4081   4.442   0.395   8.112 -1.5670 -0.6138  0.3275
   30SAPC  C317 4082   4.368   0.346   8.298 -0.3589  0.2846  0.1203
   30SAPC  H17X 4083   4.282   0.291   8.255 -0.4442  1.2927 -1.0655
   30SAPC  H17Y 4084   4.337   0.403   8.388  0.8291  2.1186 -0.5503
   30SAPC  C318 4085   4.487   0.256   8.335 -0.3425 -0.1048  0.9039
   30SAPC  H18X 4086   4.474   0.177   8.412  1.7138 -1.1387  0.2397
   30SAPC  H18Y 4087   4.575   0.317   8.367 -0.6118  1.8995 -1.8045
   30SAPC  H18Z 4088   4.534   0.213   8.245 -1.6589  2.2429 -1.0303
   31SAPC     N 4089   4.847   1.331   6.112  0.0491 -0.0272  0.0810
   31SAPC   C12 4090   4.811   1.331   6.262 -0.3130  0.5074  0.5244
   31SAPC  H12A 4091   4.782   1.232   6.293  1.3985  0.3278  1.6878
   31SAPC  H12B 4092   4.722   1.393   6.271 -1.5485 -1.0494 -0.4300
   31SAPC   C13 4093   4.970   1.249   6.086  0.2451  0.1043  0.0716
   31SAPC  H13A 4094   5.058   1.304   6.115  0.8638  0.7543 -2.6829
   31SAPC  H13B 4095   4.964   1.149   6.125  2.5441  0.5339  1.7280
   31SAPC  H13C 4096   4.977   1.235   5.979 -0.8332  4.8265 -0.8830
   31SAPC   C14 4097   4.736   1.255   6.039 -0.9078 -0.1077  0.3076
   31SAPC  H14A 4098   4.762   1.244   5.935  0.1718 -0.4297  0.5905
   31SAPC  H14B 4099   4.713   1.157   6.079 -0.5227 -1.0687 -1.6848
   31SAPC  H14C 4100   4.642   1.306   6.051 -1.4008 -1.1967  1.3066
   31SAPC   C15 4101   4.862   1.463   6.056  0.4726  0.3499 -0.0251
   31SAPC  H15A 4102   4.769   1.517   6.067 -1.1736 -2.4516  0.8569
   31SAPC  H15B 4103   4.949   1.507   6.102  1.1507 -0.8681 -0.0941
   31SAPC  H15C 4104   4.889   1.450   5.952  3.0955 -2.8175  0.8797
   31SAPC   C11 4105   4.915   1.383   6.366 -0.3299  0.3779  0.5325
   31SAPC  H11A 4106   4.870   1.366   6.467 -2.7827  2.2338 -0.1455
   31SAPC  H11B 4107   4.922   1.494   6.361 -1.1094  0.3919 -0.5938
   31SAPC     P 4108   5.100   1.196   6.406 -0.0357 -0.0913  0.3854
   31SAPC   O13 4109   4.975   1.113   6.420 -0.1949  0.2039  0.5125
   31SAPC   O14 4110   5.211   1.149   6.318 -0.9169 -0.4873 -0.2462
   31SAPC   O12 4111   5.055   1.339   6.354 -0.2443 -0.8155  0.5968
   31SAPC   O11 4112   5.161   1.220   6.549 -0.4054  0.6362 -0.4254
   31SAPC    C1 4113   5.180   1.345   6.614  0.1354  0.0507  0.4156
   31SAPC    HA 4114   5.113   1.426   6.579  0.1856 -0.3116 -0.5403
   31SAPC    HB 4115   5.150   1.331   6.720 -0.7768 -0.8102  0.0643
   31SAPC    C2 4116   5.330   1.392   6.592 -0.1532 -0.4001  0.2525
   31SAPC    HS 4117   5.381   1.297   6.563 -2.4648 -1.2492 -1.2442
   31SAPC   O21 4118   5.385   1.436   6.716  0.2574 -0.7303  0.5529
   31SAPC   C21 4119   5.515   1.423   6.730  0.4226  0.2605 -0.0884
   31SAPC   O22 4120   5.595   1.369   6.658  0.1276  0.1387  0.3139
   31SAPC   C22 4121   5.558   1.489   6.862 -0.2373  0.4023  0.6705
   31SAPC   H2R 4122   5.529   1.596   6.851  0.6876  0.6299  0.3230
   31SAPC   H2S 4123   5.493   1.443   6.939 -0.0760 -1.8217 -0.4203
   31SAPC    C3 4124   5.342   1.508   6.493  0.0122 -0.2942  0.6219
   31SAPC    HX 4125   5.295   1.473   6.398 -0.5525  0.2060  0.7108
   31SAPC    HY 4126   5.450   1.520   6.470 -0.2420  0.2483 -0.3445
   31SAPC   O31 4127   5.280   1.628   6.546  0.1736  0.2076 -0.0369
   31SAPC   C31 4128   5.364   1.727   6.572  0.3076  0.1274  0.1945
   31SAPC   O32 4129   5.481   1.713   6.583 -0.4822 -0.0708 -0.1950
   31SAPC   C32 4130   5.286   1.862   6.584 -0.6444 -0.3257  0.1033
   31SAPC   H2X 4131   5.212   1.856   6.501  0.0475 -1.3948 -0.4642
   31SAPC   H2Y 4132   5.360   1.944   6.572 -1.5020  0.5601  0.8474
   31SAPC   C23 4133   5.706   1.464   6.888 -0.6061  0.2180  0.7705
   31SAPC   H3R 4134   5.747   1.514   6.798  3.2403 -1.7298  1.2746
   31SAPC   H3S 4135   5.728   1.356   6.885 -1.0765  0.1195  0.6925
   31SAPC   C24 4136   5.762   1.523   7.023 -0.2974  0.8176  0.0714
   31SAPC   H4R 4137   5.730   1.630   7.027 -0.7384  0.6744  0.4412
   31SAPC   H4S 4138   5.872   1.515   7.017 -0.1180  2.3925  0.6402
   31SAPC   C25 4139   5.711   1.440   7.144  0.4692 -0.3299 -0.3866
   31SAPC   H5R 4140   5.764   1.344   7.159 -0.1924 -1.0640 -2.4757
   31SAPC   C26 4141   5.616   1.474   7.236  0.3949  0.4901  0.1839
   31SAPC   H6R 4142   5.594   1.399   7.314  1.0882  0.7987  0.6801
   31SAPC   C27 4143   5.531   1.606   7.247 -0.0174 -0.1787  0.1736
   31SAPC   H7R 4144   5.486   1.606   7.146  2.8922  2.7433 -1.2730
   31SAPC   H7S 4145   5.599   1.693   7.243  1.9198 -1.6279 -0.1240
   31SAPC   C28 4146   5.426   1.615   7.362 -0.1815  0.3257 -0.7889
   31SAPC   H8R 4147   5.323   1.593   7.333  0.2621  2.1785 -4.2982
   31SAPC   C29 4148   5.448   1.606   7.498 -0.3292 -0.1111  0.4893
   31SAPC   H9R 4149   5.364   1.598   7.569 -0.9149  0.1815 -0.1533
   31SAPC  C210 4150   5.583   1.591   7.568  0.3258 -0.8993  0.4330
   31SAPC  H10R 4151   5.631   1.691   7.576 -2.2865  0.9383 -3.5894
   31SAPC  H10S 4152   5.649   1.528   7.503 -0.0747 -1.4646  0.5634
   31SAPC  C211 4153   5.564   1.531   7.708  0.4190  0.2276 -0.1766
   31SAPC  H11R 4154   5.563   1.601   7.793  0.2067  2.7023 -2.0854
   31SAPC  C212 4155   5.566   1.401   7.732 -0.0607  1.8245 -0.4342
   31SAPC  H12R 4156   5.566   1.371   7.838 -2.0593 -0.7850 -1.0662
   31SAPC  C213 4157   5.560   1.289   7.624  0.9551  0.3499  0.3417
   31SAPC  H13R 4158   5.659   1.238   7.620  0.3126 -0.8744 -1.0442
   31SAPC  H13S 4159   5.549   1.329   7.521 -1.6580 -1.0988 -0.0303
   31SAPC  C214 4160   5.453   1.185   7.648  0.5010  0.2095  0.0238
   31SAPC  H14R 4161   5.470   1.109   7.726 -1.7546 -0.8346 -0.4313
   31SAPC  C215 4162   5.340   1.179   7.582 -0.4566 -0.0482  0.4744
   31SAPC  H15R 4163   5.275   1.092   7.599  0.3148 -0.5935  0.6259
   31SAPC  C216 4164   5.303   1.253   7.456 -0.6469  0.1984  0.3452
   31SAPC  H16R 4165   5.356   1.349   7.442 -3.3952  1.3485 -4.2955
   31SAPC  H16S 4166   5.198   1.289   7.457 -0.5336  0.5249  0.9779
   31SAPC  C217 4167   5.300   1.166   7.331  0.1786 -0.1748  0.1039
   31SAPC  H17R 4168   5.256   1.067   7.357  0.2988 -0.7013 -1.5746
   31SAPC  H17S 4169   5.403   1.143   7.296  0.6775  1.4477  0.4156
   31SAPC  C218 4170   5.215   1.212   7.215  0.5355 -0.2164 -0.1473
   31SAPC  H18R 4171   5.121   1.254   7.258  1.5477 -0.6813  2.7174
   31SAPC  H18S 4172   5.183   1.123   7.156 -0.1177  0.2254 -0.4759
   31SAPC  C219 4173   5.279   1.318   7.123 -0.0326 -0.1019  0.5793
   31SAPC  H19R 4174   5.375   1.271   7.092 -0.5911 -1.0686  0.2981
   31SAPC  H19S 4175   5.313   1.409   7.178 -2.2196  0.9173  0.3719
   31SAPC  C220 4176   5.194   1.348   6.997  0.0672 -0.2984 -0.5924
   31SAPC  H20R 4177   5.086   1.361   7.017  0.1447  2.1415 -1.3871
   31SAPC  H20S 4178   5.204   1.256   6.937 -1.9912 -2.1261  1.6702
   31SAPC  H20T 4179   5.228   1.441   6.946 -0.4572 -0.3845 -1.1105
   31SAPC   C33 4180   5.210   1.860   6.717  0.8203  0.3040  0.1751
   31SAPC   H3X 4181   5.134   1.780   6.706 -0.0487  0.9549  1.1851
   31SAPC   H3Y 4182   5.155   1.954   6.739  0.5770  0.6851 -1.8567
   31SAPC   C34 4183   5.306   1.830   6.834 -0.0942 -0.3433 -0.4460
   31SAPC   H4X 4184   5.394   1.894   6.811 -0.2577 -0.6981 -2.1753
   31SAPC   H4Y 4185   5.347   1.727   6.827  0.4576 -0.0595 -1.6062
   31SAPC   C35 4186   5.246   1.855   6.968  0.1699  0.1563  0.8394
   31SAPC   H5X 4187   5.153   1.913   6.947  1.9042  2.1428 -2.1446
   31SAPC   H5Y 4188   5.324   1.896   7.036  0.1873 -1.5242  1.9027
   31SAPC   C36 4189   5.192   1.723   7.025  0.6454 -0.1552 -0.7547
   31SAPC   H6X 4190   5.274   1.648   7.020  1.5112  0.4473  2.3173
   31SAPC   H6Y 4191   5.096   1.692   6.977 -0.8265  1.7550  0.7656
   31SAPC   C37 4192   5.144   1.755   7.165 -0.3559  0.4529  0.4335
   31SAPC   H7X 4193   5.075   1.841   7.152 -1.2571 -0.5745 -2.2883
   31SAPC   H7Y 4194   5.226   1.790   7.232  0.3084 -0.6306  0.2111
   31SAPC   C38 4195   5.062   1.641   7.226  0.3865  0.4479 -0.7756
   31SAPC   H8X 4196   5.123   1.549   7.215  0.8183  0.7862 -1.2625
   31SAPC   H8Y 4197   4.964   1.630   7.175  0.1969 -0.6461 -0.2022
   31SAPC   C39 4198   5.038   1.667   7.375 -0.4586 -0.2490 -0.0222
   31SAPC   H9X 4199   4.983   1.762   7.391 -0.8710 -0.6243  0.8961
   31SAPC   H9Y 4200   5.134   1.685   7.430  0.2134  1.0888 -1.5642
   31SAPC  C310 4201   4.972   1.556   7.456  0.0159  0.0994  1.1238
   31SAPC  H10X 4202   5.037   1.467   7.442  0.6896  0.9631 -1.9446
   31SAPC  H10Y 4203   4.874   1.541   7.406 -0.4721 -0.2452  2.1620
   31SAPC  C311 4204   4.942   1.599   7.598 -0.6538 -0.2659  0.2092
   31SAPC  H11X 4205   4.895   1.698   7.617 -0.9457 -0.0152 -1.6421
   31SAPC  H11Y 4206   5.040   1.622   7.645 -0.5725 -0.0875 -0.0472
   31SAPC  C312 4207   4.864   1.488   7.675 -0.2141 -0.5389 -0.1901
   31SAPC  H12X 4208   4.929   1.399   7.664 -0.9980 -1.1471  0.0478
   31SAPC  H12Y 4209   4.770   1.484   7.615  2.0790 -2.5726 -4.0030
   31SAPC  C313 4210   4.832   1.533   7.812 -0.4500 -1.1133  0.3855
   31SAPC  H13X 4211   4.783   1.633   7.812  0.9303 -0.4111  0.3235
   31SAPC  H13Y 4212   4.916   1.539   7.885 -0.1260 -2.2639  0.1301
   31SAPC  C314 4213   4.738   1.432   7.888 -0.5352 -1.0854 -0.5312
   31SAPC  H14X 4214   4.782   1.331   7.872  0.7829 -0.6232 -0.0041
   31SAPC  H14Y 4215   4.631   1.435   7.860 -0.7983 -0.5984  0.4739
   31SAPC  C315 4216   4.737   1.473   8.039 -0.1139  0.0640 -0.3186
   31SAPC  H15X 4217   4.704   1.579   8.042 -2.9182 -0.7375  1.1459
   31SAPC  H15Y 4218   4.836   1.466   8.088  0.3006 -0.6001 -1.2138
   31SAPC  C316 4219   4.630   1.399   8.129  0.0828 -0.3388 -0.5130
   31SAPC  H16X 4220   4.645   1.289   8.116  1.7967 -0.2224  0.1552
   31SAPC  H16Y 4221   4.526   1.429   8.106  0.3413  0.3883 -0.7696
   31SAPC  C317 4222   4.637   1.439   8.277 -0.6304 -0.6910  0.1239
   31SAPC  H17X 4223   4.636   1.550   8.278  0.9450 -0.6507  0.4882
   31SAPC  H17Y 4224   4.742   1.411   8.302  0.0253 -0.6379 -2.3670
   31SAPC  C318 4225   4.523   1.372   8.356 -0.0272  0.3607 -0.0394
   31SAPC  H18X 4226   4.528   1.379   8.467  2.1946  0.7096 -0.1107
   31SAPC  H18Y 4227   4.513   1.263   8.335 -0.5523 -0.2833  3.0497
   31SAPC  H18Z 4228   4.435   1.426   8.314  0.0515  0.0002 -0.6908
   32SAPC     N 4229   0.043   1.786   6.109  0.1075  0.3172 -0.3670
   32SAPC   C12 4230   0.102   1.925   6.098  0.0682  0.0157 -0.5491
   32SAPC  H12A 4231   0.151   1.938   6.194  1.8352 -1.5729 -1.1790
   32SAPC  H12B 4232   0.031   2.003   6.075 -1.9564 -1.7962 -0.7671
   32SAPC   C13 4233  -0.058   1.778   6.220 -0.2489  0.4454 -0.2197
   32SAPC  H13A 4234  -0.129   1.859   6.213 -2.6247 -1.3540  1.3555
   32SAPC  H13B 4235  -0.112   1.684   6.227 -1.0272  0.8438 -0.7782
   32SAPC  H13C 4236  -0.019   1.788   6.319 -0.6786 -0.0118  0.0046
   32SAPC   C14 4237  -0.032   1.756   5.986  1.1609  0.0031  0.2337
   32SAPC  H14A 4238  -0.113   1.686   6.001  1.3536 -1.0022 -2.7527
   32SAPC  H14B 4239  -0.086   1.844   5.952  1.0501 -1.5982 -4.5077
   32SAPC  H14C 4240   0.027   1.704   5.913  0.2954 -3.0558  1.5758
   32SAPC   C15 4241   0.140   1.672   6.133 -0.5624  1.0579  0.2386
   32SAPC  H15A 4242   0.204   1.688   6.219  1.1816 -0.1370 -0.7829
   32SAPC  H15B 4243   0.088   1.578   6.143 -0.9779  1.0020 -1.9736
   32SAPC  H15C 4244   0.209   1.669   6.050 -2.0527  0.8085 -1.0508
   32SAPC   C11 4245   0.221   1.928   5.999 -0.5723 -0.1349 -0.3243
   32SAPC  H11A 4246   0.232   2.030   5.957 -0.1090 -0.9577 -2.3121
   32SAPC  H11B 4247   0.195   1.863   5.913  2.8036 -0.4090 -1.2752
   32SAPC     P 4248   0.420   1.962   6.171  0.4481 -0.1812 -0.0550
   32SAPC   O13 4249   0.538   1.890   6.207  0.4242  0.9440  0.6148
   32SAPC   O14 4250   0.447   2.098   6.120 -0.7280 -0.1602  0.6404
   32SAPC   O12 4251   0.345   1.887   6.052 -0.5437  0.2300 -0.0205
   32SAPC   O11 4252   0.310   1.965   6.286 -0.1358 -0.3390  0.4059
   32SAPC    C1 4253   0.257   2.087   6.346  0.2561  0.2530  0.0295
   32SAPC    HA 4254   0.221   2.151   6.262 -0.1711 -0.3562 -0.2617
   32SAPC    HB 4255   0.164   2.058   6.398  0.2061  0.6634  0.1734
   32SAPC    C2 4256   0.355   2.160   6.450 -0.4221  0.7344  0.3559
   32SAPC    HS 4257   0.449   2.191   6.399 -0.3187  3.6817  2.1162
   32SAPC   O21 4258   0.382   2.065   6.556  0.2738  0.9543 -0.4222
   32SAPC   C21 4259   0.471   2.101   6.648  0.7057  0.2524  0.0182
   32SAPC   O22 4260   0.550   2.192   6.642  0.1075 -0.3082  0.0620
   32SAPC   C22 4261   0.468   1.989   6.759  0.3034  0.1464 -0.3575
   32SAPC   H2R 4262   0.414   1.901   6.717  0.5399 -0.3506  0.3783
   32SAPC   H2S 4263   0.571   1.965   6.794 -0.1834  0.5877  1.4366
   32SAPC    C3 4264   0.305   2.297   6.506  0.4574  0.0475  0.2276
   32SAPC    HX 4265   0.267   2.353   6.418 -0.0200  0.7403  0.8562
   32SAPC    HY 4266   0.387   2.361   6.545  0.9070 -0.0359 -0.5757
   32SAPC   O31 4267   0.183   2.282   6.592  0.3531  0.4457  0.3700
   32SAPC   C31 4268   0.196   2.344   6.711 -0.4760  0.5656  0.1988
   32SAPC   O32 4269   0.297   2.400   6.749 -0.3610 -0.0544 -0.1609
   32SAPC   C32 4270   0.064   2.339   6.789 -0.0929 -0.2971 -0.6409
   32SAPC   H2X 4271   0.094   2.276   6.876 -1.0653 -0.3441 -0.3271
   32SAPC   H2Y 4272  -0.011   2.282   6.729  1.0853 -2.0368 -0.5556
   32SAPC   C23 4273   0.374   2.034   6.873  0.0996 -0.0151 -0.4948
   32SAPC   H3R 4274   0.348   1.947   6.936 -0.6958 -1.5090 -2.7816
   32SAPC   H3S 4275   0.272   2.057   6.835 -0.1781 -0.6894 -0.1663
   32SAPC   C24 4276   0.440   2.144   6.957  0.1789 -0.0212  0.3107
   32SAPC   H4R 4277   0.360   2.183   7.023  0.2096 -0.2338  0.4765
   32SAPC   H4S 4278   0.470   2.226   6.889  0.1496  0.5222  0.9530
   32SAPC   C25 4279   0.577   2.122   7.018 -0.4994  0.3732 -0.4959
   32SAPC   H5R 4280   0.655   2.144   6.945  1.0773  2.4376  1.6516
   32SAPC   C26 4281   0.612   2.110   7.144 -0.1653  0.7951 -0.8117
   32SAPC   H6R 4282   0.715   2.103   7.182 -0.6009  1.6716  0.6327
   32SAPC   C27 4283   0.513   2.073   7.255 -0.0273 -0.0444 -0.2387
   32SAPC   H7R 4284   0.565   1.994   7.314 -0.3391  0.3170  0.5330
   32SAPC   H7S 4285   0.424   2.019   7.218 -1.7508  1.6510  1.2391
   32SAPC   C28 4286   0.462   2.171   7.355 -0.3095 -0.3419  0.3549
   32SAPC   H8R 4287   0.373   2.229   7.325 -0.7692 -0.6769  1.0392
   32SAPC   C29 4288   0.512   2.202   7.479  0.5868  0.0479  0.0314
   32SAPC   H9R 4289   0.470   2.285   7.539  2.6249  0.3633  1.0941
   32SAPC  C210 4290   0.618   2.129   7.552 -0.0773 -0.0901 -0.1898
   32SAPC  H10R 4291   0.712   2.187   7.550  0.3166 -0.6898  0.3865
   32SAPC  H10S 4292   0.653   2.036   7.502  1.5134 -0.2339  1.1261
   32SAPC  C211 4293   0.557   2.096   7.683 -0.2997  0.1897 -0.6749
   32SAPC  H11R 4294   0.451   2.067   7.682  0.0073 -1.1053  0.7479
   32SAPC  C212 4295   0.611   2.109   7.811 -0.4884 -0.3392  0.1981
   32SAPC  H12R 4296   0.543   2.080   7.893 -0.4423 -3.2549 -0.6908
   32SAPC  C213 4297   0.744   2.151   7.847 -0.6005  0.2588 -0.0390
   32SAPC  H13R 4298   0.737   2.235   7.919 -0.5412  0.5134 -0.3264
   32SAPC  H13S 4299   0.795   2.194   7.758  1.6571  0.7391  1.3733
   32SAPC  C214 4300   0.832   2.034   7.886 -0.6432  0.8183 -0.1752
   32SAPC  H14R 4301   0.852   1.967   7.802 -1.4245  0.5406 -0.1544
   32SAPC  C215 4302   0.891   2.022   8.006 -0.1657 -1.2690  0.2043
   32SAPC  H15R 4303   0.959   1.940   8.032  2.4072  0.8758  0.7136
   32SAPC  C216 4304   0.896   2.129   8.113  0.7070  0.2391  0.5273
   32SAPC  H16R 4305   0.921   2.225   8.064  1.8496  0.2617  1.1167
   32SAPC  H16S 4306   0.973   2.116   8.193  1.7089 -0.8075 -0.5663
   32SAPC  C217 4307   0.756   2.149   8.174  0.0254  0.2572  0.5833
   32SAPC  H17R 4308   0.727   2.056   8.227 -2.5354 -0.4204 -1.7832
   32SAPC  H17S 4309   0.674   2.170   8.101 -0.4249  2.0348  1.5462
   32SAPC  C218 4310   0.746   2.263   8.281  0.5547 -0.0480  0.4152
   32SAPC  H18R 4311   0.642   2.300   8.287  0.6616  0.1247  1.3137
   32SAPC  H18S 4312   0.807   2.350   8.247 -0.8892  0.2877 -1.4957
   32SAPC  C219 4313   0.776   2.213   8.427  0.5487 -0.0731 -0.5253
   32SAPC  H19R 4314   0.880   2.175   8.430  0.6948  0.1853 -1.8177
   32SAPC  H19S 4315   0.707   2.133   8.458 -0.0278  1.4155  2.3714
   32SAPC  C220 4316   0.765   2.315   8.540  0.6685 -0.2785  0.1976
   32SAPC  H20R 4317   0.828   2.405   8.527  2.2555 -1.0853  1.8780
   32SAPC  H20S 4318   0.802   2.276   8.637  1.2572 -1.7865 -0.6030
   32SAPC  H20T 4319   0.658   2.340   8.557  0.3627  1.1595 -3.0591
   32SAPC   C33 4320   0.000   2.472   6.830 -0.0828 -0.3780  0.5932
   32SAPC   H3X 4321   0.012   2.545   6.747  1.4027 -2.9834 -1.6952
   32SAPC   H3Y 4322   0.072   2.507   6.907  2.0346 -2.6908 -0.1623
   32SAPC   C34 4323  -0.150   2.469   6.880  0.5839 -0.2548 -0.0014
   32SAPC   H4X 4324  -0.164   2.392   6.958 -1.7924  0.6053  0.5069
   32SAPC   H4Y 4325  -0.221   2.438   6.800 -0.9060  2.6355  0.0745
   32SAPC   C35 4326  -0.190   2.602   6.933  0.2125  0.0570 -0.1546
   32SAPC   H5X 4327  -0.179   2.684   6.858 -1.7627  1.1710  0.7125
   32SAPC   H5Y 4328  -0.133   2.625   7.025 -1.7929  0.2548  1.0905
   32SAPC   C36 4329  -0.336   2.620   6.973  0.3276  0.2708  0.2273
   32SAPC   H6X 4330  -0.392   2.589   6.882  2.4376  0.5567 -1.2453
   32SAPC   H6Y 4331  -0.369   2.725   6.982 -3.2333 -0.5492 -1.3473
   32SAPC   C37 4332  -0.381   2.541   7.102  0.5527 -0.7719  0.4165
   32SAPC   H7X 4333  -0.335   2.441   7.088  0.3635 -0.6508 -1.2797
   32SAPC   H7Y 4334  -0.492   2.535   7.098  0.3705 -1.9102  3.9955
   32SAPC   C38 4335  -0.342   2.605   7.232 -0.7382  0.4770 -0.8006
   32SAPC   H8X 4336  -0.397   2.698   7.255  1.6021  2.0277 -1.1061
   32SAPC   H8Y 4337  -0.235   2.635   7.231 -0.0591 -1.6372  0.6272
   32SAPC   C39 4338  -0.362   2.519   7.361  0.1793  0.2260  0.4738
   32SAPC   H9X 4339  -0.289   2.434   7.360 -1.7919 -1.5681  1.1381
   32SAPC   H9Y 4340  -0.464   2.474   7.360 -0.4583  1.6430 -0.0802
   32SAPC  C310 4341  -0.360   2.610   7.489 -0.1657 -0.5233  0.6662
   32SAPC  H10X 4342  -0.428   2.697   7.483  0.1768 -0.2916  0.1506
   32SAPC  H10Y 4343  -0.261   2.659   7.491  0.1143 -0.6872 -3.0667
   32SAPC  C311 4344  -0.406   2.545   7.623 -0.1719 -0.3494  0.1831
   32SAPC  H11X 4345  -0.497   2.483   7.609 -0.6858  0.3317  0.4713
   32SAPC  H11Y 4346  -0.428   2.634   7.686 -1.4411 -0.7417  0.3179
   32SAPC  C312 4347  -0.300   2.469   7.699 -0.2206  1.1155  0.4001
   32SAPC  H12X 4348  -0.211   2.536   7.698  2.3680 -2.0256  0.7976
   32SAPC  H12Y 4349  -0.288   2.371   7.648 -1.2842  2.3083 -2.3471
   32SAPC  C313 4350  -0.348   2.441   7.845 -0.4981  0.1684  0.3718
   32SAPC  H13X 4351  -0.449   2.395   7.838 -1.2499  1.9893 -2.6394
   32SAPC  H13Y 4352  -0.342   2.541   7.894  0.5866 -0.2967  1.2283
   32SAPC  C314 4353  -0.252   2.338   7.912  0.2543 -0.0287 -0.8861
   32SAPC  H14X 4354  -0.151   2.384   7.925  0.4805 -0.4730 -1.0204
   32SAPC  H14Y 4355  -0.234   2.248   7.848  0.3855 -1.3334  0.9144
   32SAPC  C315 4356  -0.307   2.294   8.048 -0.4325  0.6590 -0.4878
   32SAPC  H15X 4357  -0.403   2.237   8.041  0.5853 -1.6841  2.4609
   32SAPC  H15Y 4358  -0.335   2.383   8.109 -2.5268  1.0033 -1.8278
   32SAPC  C316 4359  -0.192   2.212   8.113  0.2543 -0.5044 -0.1049
   32SAPC  H16X 4360  -0.092   2.259   8.096 -0.6336  2.4106  1.9606
   32SAPC  H16Y 4361  -0.190   2.117   8.056  2.4228 -0.2461 -0.5465
   32SAPC  C317 4362  -0.204   2.196   8.264  0.1513  0.4723 -0.6849
   32SAPC  H17X 4363  -0.206   2.297   8.313 -0.4491  0.3929 -0.5262
   32SAPC  H17Y 4364  -0.115   2.139   8.297 -1.0682 -0.9941  0.2573
   32SAPC  C318 4365  -0.324   2.116   8.305 -0.4038 -0.3217  0.1280
   32SAPC  H18X 4366  -0.418   2.173   8.290 -1.5831 -2.4385 -0.9895
   32SAPC  H18Y 4367  -0.305   2.094   8.412 -0.0903  1.4319  0.4509
   32SAPC  H18Z 4368  -0.335   2.020   8.250  0.0727 -0.0626 -0.4228
   33POPC     N 4369   3.908   3.025  10.688  0.1169  0.4660 -0.3347
   33POPC   C12 4370   3.883   3.113  10.560  0.6626  0.6246  0.5275
   33POPC  H12A 4371   3.978   3.106  10.510  0.9442 -1.1816  1.2526
   33POPC  H12B 4372   3.873   3.216  10.592  2.3118  0.4126  1.8379
   33POPC   C13 4373   3.974   2.896  10.647 -0.1944 -0.1539 -0.4521
   33POPC  H13A 4374   4.060   2.911  10.583 -0.2079 -0.2551 -0.4959
   33POPC  H13B 4375   4.013   2.836  10.728  0.4227 -0.6441 -1.0963
   33POPC  H13C 4376   3.901   2.830  10.601 -0.8117  0.9366 -1.0926
   33POPC   C14 4377   4.005   3.110  10.772 -0.4573 -1.1036 -0.2339
   33POPC  H14A 4378   4.044   3.048  10.851 -1.1088  0.5145  1.4418
   33POPC  H14B 4379   4.089   3.146  10.715  0.5209 -3.5993 -0.4930
   33POPC  H14C 4380   3.945   3.192  10.810  1.5799 -0.0042  0.7879
   33POPC   C15 4381   3.791   2.995  10.771 -0.7004 -0.0086 -0.0780
   33POPC  H15A 4382   3.825   2.937  10.855  1.8582 -0.0759 -1.0664
   33POPC  H15B 4383   3.722   2.927  10.723 -0.2011 -0.2280 -0.4928
   33POPC  H15C 4384   3.731   3.081  10.800  0.8551  0.3693  2.2986
   33POPC   C11 4385   3.769   3.069  10.463 -0.0056 -0.3611  0.2096
   33POPC  H11A 4386   3.789   2.961  10.449  0.0602 -0.4797  1.1690
   33POPC  H11B 4387   3.762   3.125  10.367 -3.1303 -0.8014  0.0984
   33POPC     P 4388   3.564   3.199  10.553 -0.4611  0.3922 -0.5061
   33POPC   O13 4389   3.659   3.297  10.611  0.7082 -0.0986 -0.1069
   33POPC   O14 4390   3.447   3.170  10.635  0.4206  0.0824 -1.3314
   33POPC   O12 4391   3.641   3.063  10.531 -0.0025 -0.4683  0.4870
   33POPC   O11 4392   3.517   3.244  10.405  0.4106 -0.5466 -0.5455
   33POPC    C1 4393   3.463   3.144  10.325  0.7594  0.7222  0.0205
   33POPC    HA 4394   3.540   3.068  10.301  0.2760  0.0336  0.6077
   33POPC    HB 4395   3.382   3.092  10.380  0.6168 -0.8918 -1.6015
   33POPC    C2 4396   3.380   3.184  10.196 -0.3729 -0.8626 -0.3760
   33POPC    HS 4397   3.325   3.091  10.169 -0.8536 -0.5594 -0.4429
   33POPC   O21 4398   3.469   3.228  10.092 -0.3398  0.4125 -0.3734
   33POPC   C21 4399   3.519   3.121  10.028  0.2160 -0.1007 -0.5443
   33POPC   O22 4400   3.491   3.003  10.050 -0.1654  0.1531  0.1756
   33POPC   C22 4401   3.619   3.170   9.922 -0.5037  0.2307 -0.1069
   33POPC   H2R 4402   3.711   3.185   9.983  1.1017 -0.4409 -2.2503
   33POPC   H2S 4403   3.597   3.275   9.894  0.4732  0.8058  1.1999
   33POPC    C3 4404   3.272   3.291  10.238  0.2274  0.2895  0.2117
   33POPC    HX 4405   3.321   3.378  10.285  0.1157  1.0104 -0.9645
   33POPC    HY 4406   3.208   3.240  10.313  0.6242 -0.1802  0.2322
   33POPC   O31 4407   3.196   3.323  10.119 -0.5824  0.2666 -0.4369
   33POPC   C31 4408   3.244   3.419  10.045 -0.7821 -0.3061 -0.0073
   33POPC   O32 4409   3.350   3.478  10.065 -0.3634  0.5526  0.2897
   33POPC   C32 4410   3.158   3.453   9.925 -0.3756 -0.2035  0.0228
   33POPC   H2X 4411   3.117   3.555   9.941  1.3152  0.4152  0.6461
   33POPC   H2Y 4412   3.076   3.381   9.905 -0.2401  0.0989 -1.7315
   33POPC   C23 4413   3.631   3.068   9.800  0.1214 -0.9440  0.0758
   33POPC   H3R 4414   3.611   2.963   9.832 -2.2397 -0.6647 -0.3245
   33POPC   H3S 4415   3.736   3.076   9.765 -0.4435  1.0389 -1.3349
   33POPC   C24 4416   3.534   3.119   9.690  0.0952  0.5465  0.1730
   33POPC   H4R 4417   3.575   3.220   9.669  1.0933  0.3232  0.9369
   33POPC   H4S 4418   3.431   3.133   9.729 -0.4937  2.7215 -1.9233
   33POPC   C25 4419   3.539   3.049   9.553 -0.0077 -0.2303  0.7499
   33POPC   H5R 4420   3.479   2.956   9.564  0.6719 -0.4511  3.0563
   33POPC   H5S 4421   3.642   3.016   9.530 -0.4374 -0.4857 -0.9333
   33POPC   C26 4422   3.488   3.124   9.429  0.1042  0.0048 -0.3924
   33POPC   H6R 4423   3.557   3.209   9.416  0.1856 -0.0192 -0.1327
   33POPC   H6S 4424   3.386   3.163   9.448  0.1890 -0.1989  0.5287
   33POPC   C27 4425   3.490   3.044   9.297  0.7189 -0.7626  0.5813
   33POPC   H7R 4426   3.413   2.968   9.324  0.2352 -0.5347 -0.1431
   33POPC   H7S 4427   3.590   2.997   9.292  1.4506  0.6088  1.6244
   33POPC   C28 4428   3.467   3.123   9.166 -0.3834  0.4021  1.1860
   33POPC   H8R 4429   3.377   3.186   9.187 -0.0975  1.1223  0.3328
   33POPC   H8S 4430   3.449   3.052   9.082  0.7523  2.4239 -0.9054
   33POPC   C29 4431   3.585   3.211   9.137 -0.0151  0.7196 -0.2934
   33POPC   H91 4432   3.608   3.277   9.221 -0.7731 -1.1698  1.5005
   33POPC  C210 4433   3.669   3.202   9.027 -0.1540  0.2285 -0.0610
   33POPC  H101 4434   3.755   3.270   9.018 -0.5398  0.8873  1.0584
   33POPC  C211 4435   3.661   3.112   8.903 -0.0583  0.0320 -0.4170
   33POPC  H11R 4436   3.677   3.165   8.807  1.4893  2.9740  1.3053
   33POPC  H11S 4437   3.559   3.070   8.894 -0.6847  0.8165  2.1700
   33POPC  C212 4438   3.779   3.007   8.913  0.4814  0.3413 -0.1541
   33POPC  H12R 4439   3.776   2.945   9.005  0.9795  0.7841  0.1659
   33POPC  H12S 4440   3.880   3.053   8.919 -0.0805  1.4934  0.9472
   33POPC  C213 4441   3.768   2.912   8.799  0.5137 -0.1835  0.0406
   33POPC  H13R 4442   3.780   2.983   8.714  0.3582  2.2465  1.9266
   33POPC  H13S 4443   3.667   2.869   8.788 -0.9400  2.5166  1.8102
   33POPC  C214 4444   3.894   2.826   8.794 -0.8339  0.8286 -0.2467
   33POPC  H14R 4445   3.980   2.876   8.844  1.1332 -0.0056 -2.5598
   33POPC  H14S 4446   3.920   2.802   8.688 -0.5773  0.3455 -0.0763
   33POPC  C215 4447   3.886   2.686   8.863  0.0458 -0.1353  0.3683
   33POPC  H15R 4448   3.805   2.631   8.810  1.1172 -0.6694 -0.7716
   33POPC  H15S 4449   3.874   2.692   8.973  3.5811 -2.0025  0.9644
   33POPC  C216 4450   4.010   2.600   8.836 -0.4951 -0.2038 -0.3343
   33POPC  H16R 4451   4.098   2.661   8.867 -1.8220  1.4896  0.2284
   33POPC  H16S 4452   4.023   2.574   8.729 -0.5310  1.3859 -0.7539
   33POPC  C217 4453   4.017   2.471   8.920  0.3391  0.5719 -0.4942
   33POPC  H17R 4454   3.933   2.403   8.893  1.6715 -1.2412 -0.2447
   33POPC  H17S 4455   3.990   2.502   9.024 -2.4796 -0.6046 -0.7826
   33POPC  C218 4456   4.143   2.380   8.919  0.2703 -0.6309 -0.1746
   33POPC  H18R 4457   4.177   2.359   8.815 -1.4130 -0.9848 -0.6901
   33POPC  H18S 4458   4.122   2.285   8.971  0.6803 -1.2470 -1.0978
   33POPC  H18T 4459   4.229   2.425   8.973  0.0058  0.4364 -0.5983
   33POPC   C33 4460   3.255   3.453   9.799  0.3714  0.7224  0.0401
   33POPC   H3X 4461   3.288   3.350   9.777  0.1666  0.6257  0.1763
   33POPC   H3Y 4462   3.333   3.532   9.795 -1.3747  2.5034 -0.1501
   33POPC   C34 4463   3.174   3.489   9.674 -0.1460  0.0056 -0.0469
   33POPC   H4X 4464   3.125   3.588   9.681  2.1417  1.6688 -4.0938
   33POPC   H4Y 4465   3.089   3.419   9.656 -0.3049  0.5888 -1.8494
   33POPC   C35 4466   3.245   3.492   9.534 -1.0685  0.5215  0.4601
   33POPC   H5X 4467   3.318   3.410   9.517  1.7000  2.9641 -0.3825
   33POPC   H5Y 4468   3.308   3.584   9.533 -1.1333  0.5669 -0.6963
   33POPC   C36 4469   3.148   3.505   9.415 -0.7270  0.2142  0.2946
   33POPC   H6X 4470   3.148   3.611   9.382  2.3382 -0.3009 -1.7601
   33POPC   H6Y 4471   3.042   3.478   9.437 -0.2647 -0.8170  1.3339
   33POPC   C37 4472   3.192   3.437   9.275 -0.1278 -0.5280  0.7296
   33POPC   H7X 4473   3.099   3.436   9.214  0.6943  0.9438 -0.6306
   33POPC   H7Y 4474   3.233   3.337   9.296 -0.2679 -0.2337  2.5072
   33POPC   C38 4475   3.287   3.532   9.197  0.4850  0.6361 -0.3648
   33POPC   H8X 4476   3.371   3.558   9.265 -0.6472 -0.3162  1.4881
   33POPC   H8Y 4477   3.237   3.629   9.177 -0.0061  0.1587 -1.4943
   33POPC   C39 4478   3.346   3.490   9.066 -0.0496  0.3867  0.0706
   33POPC   H9X 4479   3.431   3.425   9.095 -0.6016  0.3175  1.6169
   33POPC   H9Y 4480   3.392   3.579   9.018 -3.8888  2.7910  0.4548
   33POPC  C310 4481   3.250   3.426   8.956  0.0946  0.7058 -0.2018
   33POPC  H10X 4482   3.171   3.500   8.929 -0.4894 -0.9779 -3.4876
   33POPC  H10Y 4483   3.202   3.340   9.007  1.8969  1.2588  2.7214
   33POPC  C311 4484   3.330   3.383   8.833  0.2720 -0.0383 -0.4280
   33POPC  H11X 4485   3.402   3.301   8.854 -0.3181 -0.7998 -1.3149
   33POPC  H11Y 4486   3.387   3.471   8.796  1.0653 -1.5338 -3.0436
   33POPC  C312 4487   3.239   3.360   8.710 -0.6475 -0.4744  0.2749
   33POPC  H12X 4488   3.191   3.459   8.695  1.6657  0.5565 -1.0671
   33POPC  H12Y 4489   3.176   3.270   8.729 -0.1864 -1.0681 -0.8881
   33POPC  C313 4490   3.309   3.366   8.570 -0.1831  0.0157 -0.2844
   33POPC  H13X 4491   3.359   3.267   8.577  0.7363  0.5805  1.9237
   33POPC  H13Y 4492   3.380   3.451   8.567 -0.5636  0.3102 -1.6643
   33POPC  C314 4493   3.211   3.359   8.454  0.2415 -0.5108 -0.1253
   33POPC  H14X 4494   3.177   3.459   8.420  1.2397  0.0136  0.3841
   33POPC  H14Y 4495   3.118   3.300   8.465 -0.6158  0.9479  0.7675
   33POPC  C315 4496   3.278   3.306   8.329  0.3315  0.6812  0.1613
   33POPC  H15X 4497   3.208   3.305   8.243  0.4569  0.4992  0.0636
   33POPC  H15Y 4498   3.308   3.201   8.344 -0.7654  0.1093 -1.3814
   33POPC  C316 4499   3.404   3.390   8.281 -0.7112  0.4997  0.3139
   33POPC  H16X 4500   3.481   3.386   8.362 -1.3892 -2.0439  0.8984
   33POPC  H16Y 4501   3.383   3.498   8.267  1.1742  0.6272 -2.2401
   33POPC  H16Z 4502   3.444   3.350   8.185 -1.0793  0.6699  0.0894
   34POPC     N 4503   3.328   3.829  10.851 -0.1763 -0.4918  0.3208
   34POPC   C12 4504   3.271   3.747  10.731 -0.1248 -0.4441 -0.1972
   34POPC  H12A 4505   3.225   3.659  10.774 -2.5163  0.6928 -0.2917
   34POPC  H12B 4506   3.356   3.714  10.673  1.5054  0.8691  1.3114
   34POPC   C13 4507   3.414   3.947  10.817  0.7038  0.3173  0.0132
   34POPC  H13A 4508   3.367   4.018  10.751  0.6828 -2.1868 -2.8743
   34POPC  H13B 4509   3.448   3.999  10.905  0.2761 -0.9469  0.9663
   34POPC  H13C 4510   3.502   3.908  10.768  1.6548  1.1345  1.0195
   34POPC   C14 4511   3.217   3.890  10.929 -0.6721 -0.0700 -0.8984
   34POPC  H14A 4512   3.144   3.812  10.943 -0.5315 -0.5820 -2.6626
   34POPC  H14B 4513   3.261   3.930  11.019 -2.1865 -0.1971 -0.0746
   34POPC  H14C 4514   3.169   3.972  10.877  2.1552  1.6732 -1.0010
   34POPC   C15 4515   3.395   3.740  10.946 -0.1716  0.6437  0.3294
   34POPC  H15A 4516   3.332   3.658  10.976  1.2742 -0.7033 -0.1629
   34POPC  H15B 4517   3.427   3.792  11.035 -1.7550  0.1897  1.1908
   34POPC  H15C 4518   3.486   3.697  10.906 -1.0713 -0.5021 -0.5368
   34POPC   C11 4519   3.165   3.818  10.649 -0.0840  0.3038  0.0062
   34POPC  H11A 4520   3.157   3.754  10.559  0.6512 -0.7843  0.6971
   34POPC  H11B 4521   3.187   3.924  10.624 -0.0071  1.5462  4.4830
   34POPC     P 4522   2.923   3.916  10.721  0.3356  0.1958 -0.3483
   34POPC   O13 4523   2.983   4.045  10.769 -0.8458  0.0865 -0.4260
   34POPC   O14 4524   2.812   3.869  10.807 -0.4319 -0.0917 -0.8523
   34POPC   O12 4525   3.031   3.804  10.705  0.6084 -0.4061 -0.6106
   34POPC   O11 4526   2.867   3.925  10.571  0.1128  1.1041  0.1401
   34POPC    C1 4527   2.790   3.811  10.520 -0.1948  0.3312 -0.3455
   34POPC    HA 4528   2.721   3.776  10.600  2.6957 -0.5424  1.9639
   34POPC    HB 4529   2.856   3.722  10.512 -0.1709  0.3700 -0.5831
   34POPC    C2 4530   2.708   3.844  10.396 -0.6096  0.1449  1.1409
   34POPC    HS 4531   2.642   3.757  10.379  0.6719 -0.4939 -0.9218
   34POPC   O21 4532   2.804   3.867  10.285 -0.0097  0.1722 -0.1598
   34POPC   C21 4533   2.810   3.766  10.200 -0.1321 -0.1034 -0.1052
   34POPC   O22 4534   2.760   3.656  10.215 -0.1920 -1.0360  0.4510
   34POPC   C22 4535   2.890   3.806  10.073 -0.0423 -0.0595 -0.6285
   34POPC   H2R 4536   2.991   3.761  10.071 -0.1941 -0.4016 -0.5594
   34POPC   H2S 4537   2.899   3.917  10.075  3.2164 -0.2402  0.3662
   34POPC    C3 4538   2.618   3.971  10.410 -0.3710  0.0104 -0.4127
   34POPC    HX 4539   2.688   4.048  10.451 -2.1857  2.5307 -1.7572
   34POPC    HY 4540   2.549   3.942  10.492  1.0270  0.5042  0.9839
   34POPC   O31 4541   2.557   4.015  10.290 -0.2740 -0.0888 -0.0956
   34POPC   C31 4542   2.597   4.129  10.232  0.3988 -0.3888 -0.1367
   34POPC   O32 4543   2.671   4.212  10.283 -0.4020  0.6266 -0.1655
   34POPC   C32 4544   2.525   4.138  10.099 -0.4445  0.9508 -0.5313
   34POPC   H2X 4545   2.420   4.108  10.118 -0.0394 -1.2916 -1.4653
   34POPC   H2Y 4546   2.571   4.056  10.039  0.7583  0.9106  0.4178
   34POPC   C23 4547   2.821   3.772   9.941  0.5942  0.5016  0.1918
   34POPC   H3R 4548   2.729   3.834   9.931 -0.7978 -1.3366  0.9827
   34POPC   H3S 4549   2.791   3.666   9.956 -3.1041  1.1283 -1.6273
   34POPC   C24 4550   2.907   3.803   9.823 -0.0124 -0.7526  0.4979
   34POPC   H4R 4551   3.012   3.771   9.841 -0.4770 -1.9947  1.1013
   34POPC   H4S 4552   2.911   3.912   9.803  0.1055 -0.5525  1.5809
   34POPC   C25 4553   2.852   3.717   9.705  0.3052 -0.1113  0.1899
   34POPC   H5R 4554   2.747   3.691   9.728  0.5830 -0.1434  1.5096
   34POPC   H5S 4555   2.910   3.623   9.703  0.0943 -0.2322 -0.6991
   34POPC   C26 4556   2.866   3.786   9.574 -0.7456  0.2036  0.1174
   34POPC   H6R 4557   2.974   3.807   9.556 -0.6556  0.2800  0.7176
   34POPC   H6S 4558   2.826   3.890   9.578  0.2384  0.6035 -0.0509
   34POPC   C27 4559   2.802   3.710   9.452 -0.2165 -0.4745 -0.4827
   34POPC   H7R 4560   2.699   3.686   9.487  0.4039  0.3190  2.1747
   34POPC   H7S 4561   2.868   3.621   9.445 -0.8023 -1.1672  1.7398
   34POPC   C28 4562   2.795   3.784   9.315  0.3049 -0.1097 -0.5008
   34POPC   H8R 4563   2.896   3.819   9.284 -0.0060  0.8878 -0.3961
   34POPC   H8S 4564   2.742   3.875   9.348 -2.7591 -1.7861 -0.4204
   34POPC   C29 4565   2.710   3.720   9.203 -0.0304 -0.6243 -0.0265
   34POPC   H91 4566   2.607   3.703   9.238  0.5743 -2.4995  0.9859
   34POPC  C210 4567   2.751   3.673   9.086 -0.3277  0.2411 -1.1051
   34POPC  H101 4568   2.683   3.616   9.022  0.2225 -0.9106 -0.6948
   34POPC  C211 4569   2.890   3.676   9.031 -0.3653 -0.5337 -0.1389
   34POPC  H11R 4570   2.934   3.574   9.030 -3.4397 -1.9825 -0.6276
   34POPC  H11S 4571   2.958   3.730   9.100 -0.1671 -0.1057 -0.6649
   34POPC  C212 4572   2.884   3.728   8.889  0.1695 -0.1388  0.2951
   34POPC  H12R 4573   2.835   3.827   8.890  0.2734 -0.0535 -1.3618
   34POPC  H12S 4574   2.821   3.656   8.832  0.2389  1.1065 -1.4319
   34POPC  C213 4575   3.015   3.745   8.815 -0.5478  0.4892 -0.1868
   34POPC  H13R 4576   3.038   3.637   8.805 -0.3423  0.5000  0.1639
   34POPC  H13S 4577   3.089   3.808   8.868  1.4881 -1.7864 -0.1697
   34POPC  C214 4578   2.966   3.800   8.680 -1.2108 -0.1323  0.4144
   34POPC  H14R 4579   3.052   3.850   8.629  0.1767 -0.8714  1.9285
   34POPC  H14S 4580   2.875   3.862   8.696 -2.5276 -1.1232 -2.5563
   34POPC  C215 4581   2.919   3.688   8.583  0.3122  0.2312 -0.0874
   34POPC  H15R 4582   2.824   3.643   8.618  0.1901 -1.7537 -2.5949
   34POPC  H15S 4583   3.003   3.617   8.564  0.8897  0.1250  2.5465
   34POPC  C216 4584   2.876   3.743   8.444 -0.4762 -0.4330  0.7247
   34POPC  H16R 4585   2.961   3.806   8.411 -1.2437 -0.4596 -1.4633
   34POPC  H16S 4586   2.787   3.809   8.455  0.6354  1.4097 -0.6052
   34POPC  C217 4587   2.829   3.647   8.343 -0.7021  0.4706 -0.0695
   34POPC  H17R 4588   2.786   3.701   8.256  0.4334  0.9721 -0.3455
   34POPC  H17S 4589   2.746   3.587   8.386  0.7649 -1.5601  0.0980
   34POPC  C218 4590   2.935   3.544   8.299 -0.2948 -0.8778  0.2514
   34POPC  H18R 4591   2.939   3.459   8.371 -0.3504 -0.7095  0.4529
   34POPC  H18S 4592   3.038   3.577   8.276  0.6745 -3.6360  0.2668
   34POPC  H18T 4593   2.898   3.510   8.199  2.5631 -0.1593 -1.1584
   34POPC   C33 4594   2.543   4.272  10.027  0.4869 -0.6292 -0.7997
   34POPC   H3X 4595   2.649   4.267   9.993  1.1474 -1.0336  1.2155
   34POPC   H3Y 4596   2.540   4.366  10.087  0.7376 -1.0062 -0.1891
   34POPC   C34 4597   2.464   4.294   9.898  0.1789 -0.3545  0.1377
   34POPC   H4X 4598   2.364   4.334   9.926  0.0119 -0.9655  0.4342
   34POPC   H4Y 4599   2.448   4.198   9.844 -0.3802  0.4905 -1.2328
   34POPC   C35 4600   2.528   4.381   9.787  1.1102  0.1372 -0.1577
   34POPC   H5X 4601   2.632   4.345   9.773  0.6435 -1.2972 -0.1260
   34POPC   H5Y 4602   2.515   4.486   9.821 -2.0608  0.1108 -0.9311
   34POPC   C36 4603   2.447   4.391   9.657  0.6339 -0.1655  0.2743
   34POPC   H6X 4604   2.338   4.413   9.664 -0.1252 -2.5081 -1.9921
   34POPC   H6Y 4605   2.461   4.297   9.598 -1.7775 -0.4174 -0.0083
   34POPC   C37 4606   2.515   4.505   9.577  0.2495  0.4473 -0.2115
   34POPC   H7X 4607   2.626   4.504   9.574  0.2348 -0.3355 -1.0101
   34POPC   H7Y 4608   2.481   4.598   9.628 -1.5651 -0.7968  0.9472
   34POPC   C38 4609   2.438   4.507   9.443 -0.4737 -0.2816 -0.5846
   34POPC   H8X 4610   2.474   4.603   9.402  0.7989  1.6199  4.2960
   34POPC   H8Y 4611   2.331   4.526   9.468  0.2906  2.0916  1.2305
   34POPC   C39 4612   2.451   4.400   9.339 -0.8343  0.3830  0.4448
   34POPC   H9X 4613   2.390   4.315   9.378  0.6974 -0.4688  1.0811
   34POPC   H9Y 4614   2.551   4.358   9.311 -1.2603 -1.2100  1.1841
   34POPC  C310 4615   2.382   4.462   9.216 -0.6133  0.9153 -0.2197
   34POPC  H10X 4616   2.456   4.532   9.171 -1.6630  0.9149 -2.0697
   34POPC  H10Y 4617   2.287   4.512   9.241 -1.7346 -1.2281  0.0222
   34POPC  C311 4618   2.335   4.346   9.124  0.0008 -0.0658  0.7057
   34POPC  H11X 4619   2.249   4.298   9.176 -2.1570  1.1275 -1.5491
   34POPC  H11Y 4620   2.421   4.282   9.094  0.2324  0.0750  1.0535
   34POPC  C312 4621   2.266   4.399   8.991  0.3832  0.8925 -0.9462
   34POPC  H12X 4622   2.317   4.496   8.975  2.6508  0.4691  2.5136
   34POPC  H12Y 4623   2.157   4.413   9.007  0.4944  0.1347  0.7261
   34POPC  C313 4624   2.283   4.316   8.863  0.0060 -0.7092 -0.0251
   34POPC  H13X 4625   2.257   4.209   8.874  0.1690 -0.7201  0.2467
   34POPC  H13Y 4626   2.391   4.322   8.840  0.6048  0.4192  2.7027
   34POPC  C314 4627   2.187   4.372   8.758 -0.1858 -0.0794 -0.1318
   34POPC  H14X 4628   2.199   4.482   8.751  0.0674 -0.1164 -0.3026
   34POPC  H14Y 4629   2.081   4.355   8.789  0.0485  0.1180  0.8136
   34POPC  C315 4630   2.216   4.320   8.621  0.5024 -1.0602  0.1248
   34POPC  H15X 4631   2.317   4.345   8.582  0.7987 -1.1884  0.8076
   34POPC  H15Y 4632   2.152   4.365   8.541 -1.2593 -1.1584  1.4275
   34POPC  C316 4633   2.206   4.170   8.595 -0.1779  0.9014 -0.3756
   34POPC  H16X 4634   2.280   4.116   8.657 -0.2092  0.1560 -0.9760
   34POPC  H16Y 4635   2.230   4.150   8.489  1.7073  1.6364 -0.1162
   34POPC  H16Z 4636   2.101   4.134   8.601  0.5622 -1.2895  0.4691
   35POPC     N 4637   2.358   1.600  11.422 -0.4928 -0.3093 -0.8519
   35POPC   C12 4638   2.289   1.591  11.289 -0.2370 -0.4902  0.2212
   35POPC  H12A 4639   2.259   1.694  11.274  0.7569 -0.1822  0.2659
   35POPC  H12B 4640   2.201   1.530  11.298 -0.4012 -0.1842  0.7408
   35POPC   C13 4641   2.283   1.686  11.511 -0.5516  0.8342  0.0002
   35POPC  H13A 4642   2.336   1.683  11.605  1.2352 -0.3430 -1.0096
   35POPC  H13B 4643   2.270   1.789  11.480 -2.8481  0.8271  0.7331
   35POPC  H13C 4644   2.184   1.642  11.518  0.0294 -0.4690  0.1369
   35POPC   C14 4645   2.374   1.457  11.478 -0.0725 -0.2758 -0.2969
   35POPC  H14A 4646   2.445   1.451  11.560  3.1660  1.8002 -2.6946
   35POPC  H14B 4647   2.287   1.397  11.499  0.3966 -0.7210  0.4592
   35POPC  H14C 4648   2.414   1.409  11.390 -0.4454 -0.2928 -0.4575
   35POPC   C15 4649   2.496   1.654  11.410  0.4358  0.6517 -0.0101
   35POPC  H15A 4650   2.488   1.755  11.370 -2.9693 -0.6973 -3.4122
   35POPC  H15B 4651   2.550   1.597  11.336 -1.8820 -0.9871 -0.5350
   35POPC  H15C 4652   2.543   1.651  11.507 -1.2697  0.7904  0.8687
   35POPC   C11 4653   2.369   1.544  11.168 -0.4246 -0.5550  0.5985
   35POPC  H11A 4654   2.456   1.610  11.150 -1.5256  0.0388 -3.5089
   35POPC  H11B 4655   2.313   1.561  11.073  0.7214  1.4064  0.2205
   35POPC     P 4656   2.533   1.338  11.166  0.4185 -0.5296 -0.2378
   35POPC   O13 4657   2.547   1.221  11.258 -0.6686  0.3366  0.2284
   35POPC   O14 4658   2.632   1.445  11.178 -0.5216  0.1578 -0.3828
   35POPC   O12 4659   2.390   1.403  11.187  0.1179 -0.0388 -0.1118
   35POPC   O11 4660   2.529   1.290  11.015  0.5917  0.1147  0.1589
   35POPC    C1 4661   2.421   1.206  10.967 -0.4052  0.0465 -0.0563
   35POPC    HA 4662   2.321   1.232  11.008 -0.9889 -1.4562 -0.4734
   35POPC    HB 4663   2.439   1.097  10.969  0.7815  0.1675 -1.7110
   35POPC    C2 4664   2.394   1.233  10.816  0.2373 -1.0435 -0.6004
   35POPC    HS 4665   2.293   1.189  10.798 -0.9004 -0.3592  3.1802
   35POPC   O21 4666   2.501   1.173  10.737 -0.1418  0.2443 -0.5113
   35POPC   C21 4667   2.447   1.109  10.630 -0.1858 -0.5336 -0.1947
   35POPC   O22 4668   2.330   1.105  10.598  0.3521  0.3321  0.6918
   35POPC   C22 4669   2.558   1.030  10.565  0.9295 -0.7082  0.1815
   35POPC   H2R 4670   2.521   0.948  10.500 -1.3468  0.9572 -0.7414
   35POPC   H2S 4671   2.627   0.985  10.640 -0.0341 -1.6873  0.5202
   35POPC    C3 4672   2.387   1.393  10.783  0.0071  0.1371  0.1159
   35POPC    HX 4673   2.485   1.433  10.816 -1.3933  0.6439  4.1896
   35POPC    HY 4674   2.316   1.435  10.857  0.4473  0.5877  0.2780
   35POPC   O31 4675   2.359   1.413  10.642  0.6813 -0.3205 -0.2056
   35POPC   C31 4676   2.229   1.403  10.612 -0.8045  0.4127 -0.0941
   35POPC   O32 4677   2.142   1.377  10.692 -0.2981 -0.1100  0.0517
   35POPC   C32 4678   2.211   1.408  10.467  0.6141  0.1086  0.5425
   35POPC   H2X 4679   2.289   1.350  10.414 -0.7663 -1.2352 -0.1000
   35POPC   H2Y 4680   2.212   1.516  10.441 -1.2701  0.0348  0.0080
   35POPC   C23 4681   2.640   1.120  10.469 -0.1214  0.1865  0.4075
   35POPC   H3R 4682   2.713   1.066  10.406  0.0408  1.5246 -0.5973
   35POPC   H3S 4683   2.702   1.187  10.533  0.6468 -0.7686  0.6809
   35POPC   C24 4684   2.558   1.211  10.371  0.8233 -0.2798  0.4007
   35POPC   H4R 4685   2.637   1.253  10.305  0.8309 -2.1797 -0.9041
   35POPC   H4S 4686   2.513   1.298  10.422 -0.8451 -0.7562 -0.1906
   35POPC   C25 4687   2.470   1.138  10.268 -0.2034  1.0230 -0.2616
   35POPC   H5R 4688   2.383   1.095  10.322  1.2778 -0.7838  0.7876
   35POPC   H5S 4689   2.515   1.059  10.205  0.4665  0.9486  0.3036
   35POPC   C26 4690   2.404   1.238  10.175 -0.5903  0.1332  0.0566
   35POPC   H6R 4691   2.348   1.316  10.232 -1.2872 -2.3109  2.9808
   35POPC   H6S 4692   2.323   1.189  10.118  0.5008  0.1975 -1.5970
   35POPC   C27 4693   2.512   1.288  10.074 -0.1111 -0.1566 -0.0031
   35POPC   H7R 4694   2.602   1.223  10.075  0.1739  0.2253  1.0161
   35POPC   H7S 4695   2.546   1.389  10.107  2.3056 -0.9417  0.1022
   35POPC   C28 4696   2.464   1.294   9.929 -0.3198  0.1191 -0.9192
   35POPC   H8R 4697   2.550   1.339   9.875  2.4814 -3.0424  0.5541
   35POPC   H8S 4698   2.377   1.359   9.904 -1.1919 -0.7229 -0.1544
   35POPC   C29 4699   2.439   1.154   9.875 -0.9492  0.6251 -0.9095
   35POPC   H91 4700   2.438   1.079   9.955  2.0410  1.4840  0.0941
   35POPC  C210 4701   2.431   1.109   9.750  0.6438 -0.6280  0.1192
   35POPC  H101 4702   2.406   1.005   9.723 -1.2217  0.4781 -2.9515
   35POPC  C211 4703   2.413   1.183   9.622 -0.4027  0.0251  1.0083
   35POPC  H11R 4704   2.378   1.288   9.635  1.9220  0.7457  1.9605
   35POPC  H11S 4705   2.331   1.139   9.561  0.0133  1.4064 -0.6237
   35POPC  C212 4706   2.544   1.192   9.527  0.1681 -0.2609  0.0158
   35POPC  H12R 4707   2.607   1.100   9.520  2.1766  0.8582  2.1738
   35POPC  H12S 4708   2.610   1.271   9.567  1.1249  1.1310 -3.8713
   35POPC  C213 4709   2.515   1.234   9.384  0.0353 -0.0724  0.6156
   35POPC  H13R 4710   2.472   1.336   9.384 -0.5675 -0.2844 -1.1895
   35POPC  H13S 4711   2.432   1.171   9.344  1.3228 -0.8540 -0.9368
   35POPC  C214 4712   2.633   1.213   9.288  0.1208  0.6465 -0.5170
   35POPC  H14R 4713   2.653   1.104   9.276 -0.1353  0.6852 -1.3632
   35POPC  H14S 4714   2.722   1.251   9.343 -0.4492 -0.2588  1.1404
   35POPC  C215 4715   2.616   1.286   9.153  0.7143 -0.0047  0.0750
   35POPC  H15R 4716   2.613   1.396   9.168 -0.6850 -0.0722  0.4797
   35POPC  H15S 4717   2.517   1.261   9.109  1.3801 -0.3947 -1.2516
   35POPC  C216 4718   2.730   1.255   9.057 -0.3150  0.3554  0.1397
   35POPC  H16R 4719   2.751   1.148   9.037  0.3449  1.0100 -3.2825
   35POPC  H16S 4720   2.828   1.290   9.096 -0.6164 -0.2046  1.4711
   35POPC  C217 4721   2.705   1.313   8.920 -0.2023 -0.4710  0.2471
   35POPC  H17R 4722   2.753   1.413   8.926  0.2542 -0.7629  2.0790
   35POPC  H17S 4723   2.598   1.307   8.890  0.1129 -0.6472 -0.8863
   35POPC  C218 4724   2.773   1.243   8.803 -1.0275  0.4452  0.0406
   35POPC  H18R 4725   2.755   1.133   8.795  3.0233 -0.4267  0.7964
   35POPC  H18S 4726   2.884   1.245   8.810 -0.9781  1.4932 -0.9184
   35POPC  H18T 4727   2.734   1.278   8.705 -1.2841 -0.4294 -0.1841
   35POPC   C33 4728   2.074   1.352  10.426 -0.2741  0.2785 -0.1250
   35POPC   H3X 4729   1.998   1.425  10.461  1.8249  0.7632  4.0516
   35POPC   H3Y 4730   2.049   1.256  10.476  1.1436 -1.5258 -2.6144
   35POPC   C34 4731   2.062   1.320  10.280  0.4893 -0.1494  0.4701
   35POPC   H4X 4732   1.964   1.271  10.261  1.0447 -1.6019  1.2603
   35POPC   H4Y 4733   2.136   1.240  10.259  3.1034  1.9274  1.2276
   35POPC   C35 4734   2.070   1.439  10.186 -0.3523 -0.3920 -0.7072
   35POPC   H5X 4735   2.169   1.485  10.206  0.5352 -1.6389 -2.0075
   35POPC   H5Y 4736   1.990   1.514  10.204  0.2502  0.1783 -0.3703
   35POPC   C36 4737   2.092   1.403  10.034 -0.2628 -0.3109 -0.0907
   35POPC   H6X 4738   2.190   1.359  10.007  0.6014  2.2586 -1.5768
   35POPC   H6Y 4739   2.086   1.499   9.977  2.4848  0.2634  0.4613
   35POPC   C37 4740   1.981   1.301   9.993 -0.8427  0.5805  1.0901
   35POPC   H7X 4741   1.882   1.334  10.031 -1.2505  1.0056 -0.2854
   35POPC   H7Y 4742   1.991   1.195  10.023  1.1759  0.1030 -1.0172
   35POPC   C38 4743   1.969   1.287   9.833 -0.5509 -0.0333 -0.2657
   35POPC   H8X 4744   1.960   1.395   9.806 -4.2148 -0.8204 -3.0358
   35POPC   H8Y 4745   1.870   1.241   9.810 -0.2115 -1.0074  0.1787
   35POPC   C39 4746   2.083   1.217   9.761  0.4701 -0.3828  0.1202
   35POPC   H9X 4747   2.096   1.111   9.792 -1.6193 -0.6619  0.1996
   35POPC   H9Y 4748   2.183   1.260   9.782 -0.7448  2.1206  1.1887
   35POPC  C310 4749   2.054   1.222   9.607 -0.6308  0.9856  0.0757
   35POPC  H10X 4750   1.952   1.180   9.604 -0.5569  0.3743  3.0436
   35POPC  H10Y 4751   2.119   1.148   9.556 -3.3909 -0.7421 -1.1159
   35POPC  C311 4752   2.075   1.360   9.536 -0.5525  0.0847 -0.3984
   35POPC  H11X 4753   2.132   1.423   9.607  1.3083 -1.9203 -0.0069
   35POPC  H11Y 4754   1.974   1.401   9.516 -1.1419 -1.0133  0.2220
   35POPC  C312 4755   2.153   1.364   9.405  0.0109 -0.6156 -0.4018
   35POPC  H12X 4756   2.089   1.327   9.322 -2.2041 -1.1168  1.4270
   35POPC  H12Y 4757   2.258   1.329   9.407  0.2833  0.2115  0.6457
   35POPC  C313 4758   2.164   1.507   9.362 -0.3933 -0.1409  0.2654
   35POPC  H13X 4759   2.198   1.567   9.450 -1.4054 -1.0052  1.2819
   35POPC  H13Y 4760   2.067   1.553   9.331  1.2835  2.1996 -1.8897
   35POPC  C314 4761   2.253   1.523   9.243  0.4103 -0.5998  0.5755
   35POPC  H14X 4762   2.194   1.485   9.158 -1.5468  0.6567  1.2923
   35POPC  H14Y 4763   2.351   1.477   9.265  1.0450  0.4172 -0.0494
   35POPC  C315 4764   2.278   1.673   9.206  0.0728  0.3160  0.7039
   35POPC  H15X 4765   2.334   1.721   9.289  0.2224  1.1328  0.1393
   35POPC  H15Y 4766   2.181   1.722   9.187 -0.4065 -0.9709 -0.4344
   35POPC  C316 4767   2.357   1.670   9.077 -0.4948 -0.9346 -0.3210
   35POPC  H16X 4768   2.289   1.640   8.994  0.0977 -2.4725 -0.2754
   35POPC  H16Y 4769   2.441   1.601   9.098  1.0185  0.4484 -1.5648
   35POPC  H16Z 4770   2.399   1.770   9.053 -1.3650  0.3751  3.0850
   36POPC     N 4771   2.142   6.538  11.084  0.4347 -0.1679 -0.3296
   36POPC   C12 4772   2.227   6.658  11.112  0.2438  0.1908 -0.7194
   36POPC  H12A 4773   2.186   6.724  11.186  1.9019  1.2417 -0.6847
   36POPC  H12B 4774   2.231   6.717  11.022  1.3002 -0.1745 -0.9244
   36POPC   C13 4775   2.181   6.463  10.962  0.3965  0.3798  0.0043
   36POPC  H13A 4776   2.276   6.416  10.978 -0.4369 -1.6784 -0.7880
   36POPC  H13B 4777   2.110   6.383  10.949 -1.6683  1.7315  2.0347
   36POPC  H13C 4778   2.179   6.525  10.873 -0.8371  0.2708 -0.0687
   36POPC   C14 4779   2.141   6.439  11.195 -0.5465 -0.0107  0.1888
   36POPC  H14A 4780   2.121   6.483  11.291 -4.0952 -0.7632 -0.0632
   36POPC  H14B 4781   2.073   6.357  11.176 -1.8004  0.8234  0.9583
   36POPC  H14C 4782   2.237   6.392  11.208  0.0647  1.2220  0.3022
   36POPC   C15 4783   2.003   6.596  11.061 -0.0256  0.6204  0.0602
   36POPC  H15A 4784   1.970   6.627  11.159 -0.4023 -0.5521  0.3285
   36POPC  H15B 4785   1.930   6.520  11.038 -0.7140  0.6504  1.9671
   36POPC  H15C 4786   1.995   6.678  10.992  1.5515 -0.5020 -1.5406
   36POPC   C11 4787   2.377   6.632  11.159  0.0794  0.1105  0.4333
   36POPC  H11A 4788   2.376   6.580  11.257 -0.9740 -1.1923 -0.2262
   36POPC  H11B 4789   2.423   6.732  11.172  0.7410 -0.2423  0.8056
   36POPC     P 4790   2.528   6.609  10.946  0.3344  0.1387  0.5772
   36POPC   O13 4791   2.605   6.493  10.901  0.3512 -0.0866  0.3536
   36POPC   O14 4792   2.608   6.729  10.981 -0.6332 -0.1084 -0.1107
   36POPC   O12 4793   2.446   6.550  11.068 -0.5213 -0.7940  0.1307
   36POPC   O11 4794   2.424   6.644  10.842  0.6946  0.5248  0.2895
   36POPC    C1 4795   2.467   6.679  10.709  0.2716  0.5061 -0.1396
   36POPC    HA 4796   2.531   6.597  10.668 -0.4070 -0.8517  1.4063
   36POPC    HB 4797   2.515   6.779  10.699  2.6401 -0.4407  1.0213
   36POPC    C2 4798   2.344   6.689  10.611  0.6536 -0.1751  0.6304
   36POPC    HS 4799   2.286   6.594  10.612 -0.0617  0.2017 -1.1255
   36POPC   O21 4800   2.396   6.714  10.481 -0.1872 -0.3071  0.5003
   36POPC   C21 4801   2.431   6.611  10.415  0.0130 -0.0559 -0.2342
   36POPC   O22 4802   2.413   6.495  10.447 -0.5098 -0.0552  0.3926
   36POPC   C22 4803   2.490   6.648  10.281  0.2912 -0.4927 -0.5021
   36POPC   H2R 4804   2.553   6.738  10.294 -0.7125  0.3554 -1.3194
   36POPC   H2S 4805   2.401   6.678  10.220  0.7712  1.3847 -0.3245
   36POPC    C3 4806   2.242   6.805  10.644  0.8002 -0.2630 -0.0671
   36POPC    HX 4807   2.290   6.899  10.611 -3.5719  2.8708  1.4761
   36POPC    HY 4808   2.226   6.817  10.754 -0.2352 -1.2666 -0.0832
   36POPC   O31 4809   2.115   6.800  10.578 -0.8390  0.2271 -0.4673
   36POPC   C31 4810   2.026   6.731  10.640  0.1801 -0.3512  0.6270
   36POPC   O32 4811   2.057   6.653  10.731  0.3272  0.4140  0.0010
   36POPC   C32 4812   1.879   6.752  10.586  0.3400 -0.3272  0.1634
   36POPC   H2X 4813   1.873   6.849  10.533 -1.8935  0.7973  2.3116
   36POPC   H2Y 4814   1.819   6.763  10.678  1.5620 -2.5816  1.3166
   36POPC   C23 4815   2.571   6.533  10.215  0.7882 -0.4472  0.4291
   36POPC   H3R 4816   2.509   6.440  10.214 -0.2298  0.2094 -0.9236
   36POPC   H3S 4817   2.661   6.519  10.278  1.1366 -0.1003  0.0086
   36POPC   C24 4818   2.593   6.563  10.070 -1.3782  0.2489  0.2796
   36POPC   H4R 4819   2.648   6.659  10.067 -0.2882 -0.2609  2.1743
   36POPC   H4S 4820   2.502   6.569  10.007 -1.1866  3.3163  0.1475
   36POPC   C25 4821   2.675   6.451  10.007 -0.4707  0.2133  0.5928
   36POPC   H5R 4822   2.595   6.375   9.998  1.0177 -1.1192 -3.8857
   36POPC   H5S 4823   2.752   6.419  10.081  0.5850  0.7767 -0.2341
   36POPC   C26 4824   2.733   6.475   9.866 -0.1807 -0.1086 -0.2570
   36POPC   H6R 4825   2.830   6.529   9.875  0.5747 -1.4134 -0.2844
   36POPC   H6S 4826   2.658   6.536   9.811 -2.2433 -1.7100  0.6517
   36POPC   C27 4827   2.771   6.352   9.793 -0.2995  0.1856  0.6114
   36POPC   H7R 4828   2.676   6.300   9.768  0.4884  0.4394 -3.7629
   36POPC   H7S 4829   2.834   6.281   9.850  0.3482  0.0202 -0.2791
   36POPC   C28 4830   2.832   6.367   9.651  0.4168  0.1597  0.8377
   36POPC   H8R 4831   2.862   6.270   9.606  5.3458  1.3176  1.0959
   36POPC   H8S 4832   2.933   6.413   9.658  0.8411 -0.8478  1.7476
   36POPC   C29 4833   2.749   6.452   9.566  0.0642 -0.1437 -0.6355
   36POPC   H91 4834   2.687   6.528   9.615 -2.4557 -1.4653 -1.5629
   36POPC  C210 4835   2.737   6.440   9.432  0.5366 -0.0458 -0.2757
   36POPC  H101 4836   2.660   6.499   9.381 -2.8499 -1.9554  2.2197
   36POPC  C211 4837   2.829   6.364   9.343 -0.3712  0.1221 -0.1334
   36POPC  H11R 4838   2.770   6.285   9.292 -2.4867 -0.5943  3.1647
   36POPC  H11S 4839   2.909   6.313   9.401 -0.8681  0.0421  0.4933
   36POPC  C212 4840   2.917   6.451   9.244  0.4561 -0.1499  0.0696
   36POPC  H12R 4841   2.963   6.544   9.283  0.9546  1.4575 -3.8528
   36POPC  H12S 4842   2.839   6.488   9.175 -0.2471 -1.2040  0.2714
   36POPC  C213 4843   3.017   6.373   9.157  0.1651  0.3685  0.1952
   36POPC  H13R 4844   2.957   6.280   9.154 -1.8522  1.6390 -0.6050
   36POPC  H13S 4845   3.121   6.364   9.197 -0.3685 -0.8493  1.4016
   36POPC  C214 4846   3.035   6.429   9.017 -0.5913  0.1278 -0.3574
   36POPC  H14R 4847   3.067   6.535   9.026 -0.0112 -0.1681  1.6970
   36POPC  H14S 4848   2.943   6.427   8.955 -0.8362  1.5671 -0.0917
   36POPC  C215 4849   3.138   6.349   8.929  0.1646  0.3604 -0.7243
   36POPC  H15R 4850   3.221   6.336   9.001 -0.3137  0.6468 -0.1054
   36POPC  H15S 4851   3.176   6.401   8.838 -0.7302 -0.4808 -1.6064
   36POPC  C216 4852   3.073   6.215   8.882  0.5094 -0.1532 -0.4079
   36POPC  H16R 4853   2.994   6.238   8.807  0.1059 -1.4459 -0.4021
   36POPC  H16S 4854   3.020   6.164   8.965 -0.2878 -2.0551 -2.0094
   36POPC  C217 4855   3.181   6.111   8.830 -0.1918  1.0187  0.4116
   36POPC  H17R 4856   3.143   6.007   8.817 -0.5725  1.2119 -0.0559
   36POPC  H17S 4857   3.257   6.100   8.911  1.0672  0.3034 -0.8253
   36POPC  C218 4858   3.248   6.146   8.699  0.0426  0.0258 -0.2978
   36POPC  H18R 4859   3.168   6.153   8.622  0.0103  0.6221 -0.2138
   36POPC  H18S 4860   3.322   6.067   8.674  0.4096  0.4289 -0.5234
   36POPC  H18T 4861   3.304   6.242   8.698  1.2333 -0.6488 -0.2953
   36POPC   C33 4862   1.836   6.633  10.501  0.8399  0.3132  0.0265
   36POPC   H3X 4863   1.727   6.653  10.488  0.9412  0.9613  0.1577
   36POPC   H3Y 4864   1.850   6.537  10.554 -0.7615  0.8030  1.4390
   36POPC   C34 4865   1.902   6.609  10.366 -0.1320  0.0066  0.0083
   36POPC   H4X 4866   1.874   6.507  10.332  1.2049  0.3088 -2.1620
   36POPC   H4Y 4867   2.011   6.625  10.380 -0.4193  1.3988  0.9199
   36POPC   C35 4868   1.855   6.708  10.255  0.0071 -0.2921 -0.2577
   36POPC   H5X 4869   1.886   6.808  10.294  1.2952 -1.1275  0.9580
   36POPC   H5Y 4870   1.745   6.713  10.241  0.0854 -0.1608 -0.8528
   36POPC   C36 4871   1.917   6.691  10.115 -0.1015  0.6303 -0.1178
   36POPC   H6X 4872   1.874   6.599  10.070 -0.8044  0.4392  0.9079
   36POPC   H6Y 4873   2.026   6.673  10.124 -0.2387 -0.2116 -0.0344
   36POPC   C37 4874   1.885   6.815  10.027 -0.0140 -0.5041 -0.4723
   36POPC   H7X 4875   1.924   6.907  10.077 -1.3383 -0.2503  0.1359
   36POPC   H7Y 4876   1.777   6.841  10.014 -0.4267 -1.0949  1.4487
   36POPC   C38 4877   1.944   6.807   9.889  0.5143 -0.5100  0.0002
   36POPC   H8X 4878   1.893   6.720   9.842  0.2846 -1.0093  1.1440
   36POPC   H8Y 4879   2.054   6.792   9.883  0.2279 -3.5133  0.8804
   36POPC   C39 4880   1.900   6.925   9.789 -0.3076 -0.8855  0.7601
   36POPC   H9X 4881   1.942   7.026   9.807 -0.5246 -0.4866 -0.8293
   36POPC   H9Y 4882   1.794   6.945   9.816 -1.3098 -0.6096 -2.7858
   36POPC  C310 4883   1.903   6.882   9.642  0.2403 -0.2282 -0.8034
   36POPC  H10X 4884   1.835   6.796   9.623 -0.3768 -0.2114  1.1417
   36POPC  H10Y 4885   2.007   6.850   9.618 -0.4241 -2.2566 -1.1996
   36POPC  C311 4886   1.839   6.993   9.559 -0.1531 -0.0017  0.1213
   36POPC  H11X 4887   1.905   7.080   9.580 -0.8223  0.4538  0.3429
   36POPC  H11Y 4888   1.740   7.012   9.605 -0.7702 -3.3234  0.4130
   36POPC  C312 4889   1.822   6.969   9.407 -0.3253  0.0194  0.6900
   36POPC  H12X 4890   1.749   7.043   9.369  0.5954  0.3731 -0.4316
   36POPC  H12Y 4891   1.777   6.868   9.396  3.2900 -1.4796 -2.9962
   36POPC  C313 4892   1.957   6.968   9.329  0.8575  0.1425 -0.2469
   36POPC  H13X 4893   2.042   6.925   9.387 -0.1305 -0.5085  0.7659
   36POPC  H13Y 4894   1.983   7.074   9.309  1.0190  0.3264  0.8646
   36POPC  C314 4895   1.942   6.888   9.195 -0.6373  0.0903  0.0613
   36POPC  H14X 4896   2.031   6.900   9.130 -0.9453 -1.8976 -0.7871
   36POPC  H14Y 4897   1.849   6.919   9.144 -0.9538 -2.9384 -1.3969
   36POPC  C315 4898   1.933   6.727   9.205 -0.8612  0.1059  0.7341
   36POPC  H15X 4899   1.847   6.691   9.266 -0.9371 -0.0233  0.5524
   36POPC  H15Y 4900   2.026   6.676   9.238  0.1973  0.9956 -0.7597
   36POPC  C316 4901   1.904   6.658   9.068 -0.2872  0.5198  0.8186
   36POPC  H16X 4902   1.922   6.549   9.082  2.6744  0.8577  0.3767
   36POPC  H16Y 4903   1.975   6.690   8.989  1.0900  0.6343  2.0474
   36POPC  H16Z 4904   1.801   6.673   9.031 -0.3045  0.1325  0.7084
   37POPC     N 4905   1.323   2.597   6.464  0.4356  0.3426  0.5500
   37POPC   C12 4906   1.343   2.583   6.619 -0.1274  0.5098  0.8090
   37POPC  H12A 4907   1.382   2.675   6.657  0.7320  0.7803 -0.6545
   37POPC  H12B 4908   1.422   2.513   6.639 -1.5040 -1.9847 -1.7015
   37POPC   C13 4909   1.256   2.471   6.412 -0.4893 -0.2928  0.4543
   37POPC  H13A 4910   1.160   2.453   6.459 -0.6678 -3.0821 -0.8066
   37POPC  H13B 4911   1.243   2.466   6.305  2.0472 -1.3173  0.1180
   37POPC  H13C 4912   1.316   2.384   6.436  0.6491  0.1926 -0.5821
   37POPC   C14 4913   1.229   2.706   6.444  0.1531  0.2272  0.3609
   37POPC  H14A 4914   1.273   2.798   6.479 -0.3733  0.5798  0.1045
   37POPC  H14B 4915   1.209   2.726   6.340 -0.4709 -0.1763  0.3969
   37POPC  H14C 4916   1.135   2.690   6.495  1.5028 -1.2146  2.5401
   37POPC   C15 4917   1.454   2.617   6.392  0.2417 -0.6456  0.3500
   37POPC  H15A 4918   1.511   2.526   6.399  0.7879 -0.2530  1.0383
   37POPC  H15B 4919   1.511   2.699   6.433  0.0699  0.3809 -1.3337
   37POPC  H15C 4920   1.429   2.651   6.292 -1.3867  1.0928  1.2735
   37POPC   C11 4921   1.219   2.544   6.700  0.1440  0.2993 -0.5586
   37POPC  H11A 4922   1.136   2.616   6.684  0.3454  1.7318  3.6215
   37POPC  H11B 4923   1.234   2.564   6.808 -0.1461 -0.7000 -0.3201
   37POPC     P 4924   1.216   2.284   6.751 -0.5408 -0.1230 -0.1142
   37POPC   O13 4925   1.366   2.291   6.752  0.0208  0.7220 -0.2043
   37POPC   O14 4926   1.155   2.171   6.680  0.2226 -0.1708  0.5526
   37POPC   O12 4927   1.167   2.413   6.682  0.1844 -0.2336  0.0001
   37POPC   O11 4928   1.163   2.296   6.897 -0.1999  0.2682  0.3897
   37POPC    C1 4929   1.032   2.285   6.943 -0.1559 -0.3279 -0.7514
   37POPC    HA 4930   0.999   2.180   6.930 -1.4640 -0.2003  1.1996
   37POPC    HB 4931   0.966   2.355   6.886  0.1251  0.7627  0.2263
   37POPC    C2 4932   1.016   2.312   7.100 -0.1032 -1.0902  0.2315
   37POPC    HS 4933   0.906   2.321   7.100 -0.2391 -1.2690 -3.2607
   37POPC   O21 4934   1.109   2.413   7.146  0.0902 -0.1797  0.5131
   37POPC   C21 4935   1.107   2.531   7.082 -0.7919  0.3900 -0.2749
   37POPC   O22 4936   1.042   2.570   6.990 -0.5241 -0.3556 -0.0129
   37POPC   C22 4937   1.224   2.613   7.139 -0.2686 -0.8164 -0.4568
   37POPC   H2R 4938   1.176   2.690   7.203 -0.0202  0.2995 -1.5741
   37POPC   H2S 4939   1.264   2.666   7.050 -1.3870  2.6687  0.9257
   37POPC    C3 4940   1.034   2.175   7.176 -0.4775 -0.1662 -0.1371
   37POPC    HX 4941   1.140   2.143   7.164 -0.3512  0.9574 -2.4270
   37POPC    HY 4942   0.973   2.096   7.127  1.0201 -1.1462 -0.4871
   37POPC   O31 4943   1.005   2.194   7.321  0.1335 -0.1109 -0.3083
   37POPC   C31 4944   1.097   2.166   7.405 -0.5817 -0.5606 -0.5852
   37POPC   O32 4945   1.207   2.112   7.382  0.3912 -0.1472  0.3763
   37POPC   C32 4946   1.046   2.197   7.548  0.0085 -0.1108  0.0598
   37POPC   H2X 4947   1.138   2.189   7.610 -0.1056  1.0383  0.3930
   37POPC   H2Y 4948   0.981   2.114   7.582  0.8498 -0.6857  0.2991
   37POPC   C23 4949   1.335   2.537   7.216  0.7891 -0.8027  0.4510
   37POPC   H3R 4950   1.280   2.463   7.279 -0.9082 -1.3817 -1.5982
   37POPC   H3S 4951   1.387   2.611   7.281  1.3987 -0.6143 -0.2384
   37POPC   C24 4952   1.426   2.468   7.118 -0.4229 -0.1392 -0.1727
   37POPC   H4R 4953   1.490   2.551   7.080 -1.9814  0.8643 -0.6838
   37POPC   H4S 4954   1.374   2.432   7.027 -2.2739 -1.8631  1.4521
   37POPC   C25 4955   1.522   2.360   7.176 -0.0054 -0.3461  0.0664
   37POPC   H5R 4956   1.603   2.355   7.100 -2.2739 -0.5150 -2.5114
   37POPC   H5S 4957   1.473   2.260   7.168  0.1677 -0.6046  1.9431
   37POPC   C26 4958   1.577   2.383   7.317  0.1236 -0.1552 -0.1603
   37POPC   H6R 4959   1.590   2.489   7.348  0.8259 -0.5645  1.0215
   37POPC   H6S 4960   1.676   2.334   7.308 -0.0729 -0.9005  1.4375
   37POPC   C27 4961   1.497   2.320   7.444  0.0852 -0.0914  0.6881
   37POPC   H7R 4962   1.478   2.217   7.406  1.6294 -1.2788  2.8865
   37POPC   H7S 4963   1.402   2.370   7.475  0.4927  0.3277  1.2820
   37POPC   C28 4964   1.589   2.297   7.570 -0.7374 -0.0343  0.5836
   37POPC   H8R 4965   1.666   2.221   7.546 -0.7974  0.2004 -0.3864
   37POPC   H8S 4966   1.525   2.242   7.642 -1.4477 -2.0450 -1.4698
   37POPC   C29 4967   1.649   2.424   7.627  0.0960 -0.2261  0.4742
   37POPC   H91 4968   1.662   2.505   7.554 -1.6759  0.2443  0.6360
   37POPC  C210 4969   1.661   2.457   7.754  0.9186  0.2571 -0.4921
   37POPC  H101 4970   1.726   2.538   7.791  0.7679  0.0776  0.1957
   37POPC  C211 4971   1.630   2.367   7.865  0.4303 -0.1340  0.4872
   37POPC  H11R 4972   1.685   2.271   7.872 -0.3665 -0.5124  1.9922
   37POPC  H11S 4973   1.523   2.336   7.858 -0.3694  2.0819  1.8700
   37POPC  C212 4974   1.637   2.432   8.007 -0.0920  0.4990 -0.5524
   37POPC  H12R 4975   1.594   2.535   7.997  0.4092  0.6361 -1.4469
   37POPC  H12S 4976   1.744   2.443   8.033 -0.3736 -0.3404  1.0925
   37POPC  C213 4977   1.587   2.356   8.131  0.7248 -0.0262  0.5293
   37POPC  H13R 4978   1.652   2.270   8.158 -0.4698 -1.7722 -1.7679
   37POPC  H13S 4979   1.488   2.311   8.109  0.4563 -1.5876  4.2284
   37POPC  C214 4980   1.550   2.447   8.246  0.4723 -0.0726  0.0829
   37POPC  H14R 4981   1.509   2.379   8.324  0.4796  0.8302  0.8879
   37POPC  H14S 4982   1.477   2.522   8.208  0.5666  0.0297  0.1077
   37POPC  C215 4983   1.669   2.534   8.302  0.3968  0.6478  0.2159
   37POPC  H15R 4984   1.704   2.598   8.219 -3.2366  0.0506 -2.0056
   37POPC  H15S 4985   1.753   2.464   8.320 -1.0022 -0.9896  0.6909
   37POPC  C216 4986   1.628   2.611   8.425 -0.6696  0.8819  0.3616
   37POPC  H16R 4987   1.556   2.551   8.486 -0.4185  0.1585 -0.0401
   37POPC  H16S 4988   1.575   2.705   8.397 -0.2761  1.7681  2.4644
   37POPC  C217 4989   1.744   2.650   8.511  0.2699  0.4779  0.4147
   37POPC  H17R 4990   1.823   2.710   8.462  1.8757 -1.1964  0.8594
   37POPC  H17S 4991   1.792   2.555   8.544 -0.3356  0.5100  1.4147
   37POPC  C218 4992   1.700   2.727   8.632  0.4895  0.0841 -0.9725
   37POPC  H18R 4993   1.778   2.747   8.708 -0.3187  0.7312 -0.2988
   37POPC  H18S 4994   1.609   2.693   8.686  0.4461  0.2455 -0.9431
   37POPC  H18T 4995   1.675   2.829   8.595  4.5298  3.0560  3.2929
   37POPC   C33 4996   0.985   2.332   7.559  0.5639  0.5298 -0.0371
   37POPC   H3X 4997   0.949   2.347   7.663 -0.4807 -0.1629 -0.2877
   37POPC   H3Y 4998   0.891   2.337   7.500  0.2670 -0.9222  0.2817
   37POPC   C34 4999   1.094   2.438   7.538  0.0018  0.2218  0.2043
   37POPC   H4X 5000   1.134   2.435   7.435 -2.3429 -1.7104 -0.7565
   37POPC   H4Y 5001   1.176   2.413   7.608 -0.4649 -0.8497  0.3794
   37POPC   C35 5002   1.036   2.579   7.566 -0.1940  0.3902  0.2841
   37POPC   H5X 5003   0.985   2.590   7.665 -1.5975  1.1609 -0.4939
   37POPC   H5Y 5004   0.960   2.602   7.489 -0.8090 -1.5962  0.2552
   37POPC   C36 5005   1.143   2.694   7.553 -0.2883 -0.6958 -0.8810
   37POPC   H6X 5006   1.211   2.685   7.466  3.9787  0.0169  2.0393
   37POPC   H6Y 5007   1.212   2.683   7.639 -1.7501 -3.8942  0.0203
   37POPC   C37 5008   1.081   2.836   7.556 -0.2973 -0.2142  0.3151
   37POPC   H7X 5009   1.051   2.849   7.663  0.5963  2.5441  0.2861
   37POPC   H7Y 5010   0.985   2.840   7.499 -0.1815 -0.5000  0.0973
   37POPC   C38 5011   1.171   2.953   7.530 -0.0177  0.0840 -0.5851
   37POPC   H8X 5012   1.272   2.940   7.575 -0.7816 -0.8111  0.9600
   37POPC   H8Y 5013   1.139   3.048   7.578  0.9793  0.0879  0.1125
   37POPC   C39 5014   1.189   2.975   7.375 -0.7539 -0.2599 -0.0007
   37POPC   H9X 5015   1.224   2.881   7.328  0.3437  0.8505 -1.4748
   37POPC   H9Y 5016   1.276   3.040   7.354  0.1512 -2.0041 -2.0971
   37POPC  C310 5017   1.060   3.024   7.302  0.2438  0.0836  0.7050
   37POPC  H10X 5018   1.017   3.110   7.358 -1.0613  0.2831 -0.5513
   37POPC  H10Y 5019   0.986   2.941   7.306  0.8288 -0.4267  1.3672
   37POPC  C311 5020   1.089   3.060   7.155  0.1938 -0.1882  0.0631
   37POPC  H11X 5021   1.107   2.966   7.099 -2.2312 -0.8566  0.2890
   37POPC  H11Y 5022   1.171   3.134   7.142  0.5056 -0.5799 -0.2057
   37POPC  C312 5023   0.966   3.112   7.080  0.4411  0.0960  0.0942
   37POPC  H12X 5024   0.986   3.106   6.971  1.6720 -0.7100  0.3357
   37POPC  H12Y 5025   0.926   3.210   7.114 -1.3343 -0.4684 -0.2826
   37POPC  C313 5026   0.848   3.012   7.087  0.5354 -0.1518  0.0492
   37POPC  H13X 5027   0.887   2.908   7.095 -1.6819 -1.1990 -1.5701
   37POPC  H13Y 5028   0.784   3.012   6.996  0.9131 -2.8046 -0.3108
   37POPC  C314 5029   0.746   3.058   7.193  0.6220 -0.5051 -0.1668
   37POPC  H14X 5030   0.705   3.160   7.181  1.6268  0.3686  3.0063
   37POPC  H14Y 5031   0.788   3.061   7.296 -0.3454 -0.9338  0.2564
   37POPC  C315 5032   0.627   2.958   7.207  0.0229 -0.5686  0.2279
   37POPC  H15X 5033   0.675   2.869   7.252  0.8914 -0.5155 -0.5571
   37POPC  H15Y 5034   0.590   2.934   7.105  1.3271  0.7486 -0.6083
   37POPC  C316 5035   0.515   3.006   7.295  0.3913  0.4998 -0.5405
   37POPC  H16X 5036   0.498   2.938   7.381  1.6213  1.6133  0.6115
   37POPC  H16Y 5037   0.416   3.016   7.246  0.3959 -1.5658 -1.0563
   37POPC  H16Z 5038   0.529   3.109   7.334  3.4767 -0.3676  0.9328
   38POPC     N 5039   3.528   6.074   6.269  0.3390  0.4788  0.4395
   38POPC   C12 5040   3.530   6.041   6.418  0.4846 -0.0227 -0.4968
   38POPC  H12A 5041   3.589   6.108   6.479 -1.5306  0.9552  0.4553
   38POPC  H12B 5042   3.570   5.942   6.432  1.2606 -0.0667 -2.6579
   38POPC   C13 5043   3.665   6.095   6.220  0.0714 -0.3345 -0.0591
   38POPC  H13A 5044   3.697   6.197   6.237  2.2409 -0.8094 -1.0340
   38POPC  H13B 5045   3.732   6.031   6.275 -0.0081 -0.2504  0.1347
   38POPC  H13C 5046   3.679   6.094   6.113  1.6702 -0.8629  0.1299
   38POPC   C14 5047   3.469   5.959   6.185  0.6950 -0.4520 -0.0568
   38POPC  H14A 5048   3.372   5.941   6.230 -0.5114  1.8833 -1.5789
   38POPC  H14B 5049   3.475   5.975   6.079  1.1257 -0.6025 -0.0550
   38POPC  H14C 5050   3.528   5.869   6.199 -1.9031 -2.5455 -1.4216
   38POPC   C15 5051   3.446   6.199   6.237 -0.6147  0.2558  0.3644
   38POPC  H15A 5052   3.348   6.193   6.282 -0.1421  2.1610  1.7617
   38POPC  H15B 5053   3.429   6.211   6.132 -1.2559 -0.0005  0.4375
   38POPC  H15C 5054   3.495   6.288   6.272  0.9371  1.1928 -3.6699
   38POPC   C11 5055   3.391   6.041   6.500  0.2697  0.0922 -0.3805
   38POPC  H11A 5056   3.370   6.149   6.507  1.1287  0.2353  0.1040
   38POPC  H11B 5057   3.404   6.008   6.605 -0.4304  1.1914  0.0638
   38POPC     P 5058   3.141   6.016   6.422 -0.1004 -0.2871 -0.2462
   38POPC   O13 5059   3.083   5.929   6.321 -0.1715  1.0991  0.1310
   38POPC   O14 5060   3.139   6.163   6.396 -0.4917  0.1306  0.1701
   38POPC   O12 5061   3.291   5.976   6.425 -0.8969 -0.6382  0.2419
   38POPC   O11 5062   3.097   5.982   6.578  0.4840 -0.7623  0.2134
   38POPC    C1 5063   3.095   5.843   6.610  0.7484  0.2761 -0.4036
   38POPC    HA 5064   3.088   5.829   6.720  1.4447 -3.4847 -0.7143
   38POPC    HB 5065   3.185   5.784   6.581  0.1680 -0.1191 -1.4649
   38POPC    C2 5066   2.958   5.778   6.565  0.2819  0.3445 -0.7788
   38POPC    HS 5067   2.931   5.811   6.462  0.0938  1.1232 -0.4920
   38POPC   O21 5068   2.857   5.817   6.660  0.1029  0.2536  0.6597
   38POPC   C21 5069   2.736   5.795   6.617 -0.0737  0.2066 -0.2059
   38POPC   O22 5070   2.695   5.749   6.513  0.6673 -0.3830 -0.0160
   38POPC   C22 5071   2.636   5.824   6.730 -0.1116  0.1973  0.7217
   38POPC   H2R 5072   2.585   5.727   6.747 -1.2625  0.6345 -0.1055
   38POPC   H2S 5073   2.544   5.875   6.693 -0.4626 -1.0341 -0.1661
   38POPC    C3 5074   2.966   5.621   6.563  0.0040 -0.7923  0.2692
   38POPC    HX 5075   3.036   5.604   6.478 -1.6470 -1.8914 -0.9226
   38POPC    HY 5076   2.870   5.572   6.538 -1.3905  1.6188  0.6130
   38POPC   O31 5077   3.016   5.560   6.682 -0.1634  0.3392  0.1888
   38POPC   C31 5078   2.937   5.541   6.786  0.4970  0.4048  0.0183
   38POPC   O32 5079   2.813   5.550   6.788 -0.1440  0.3486 -0.0231
   38POPC   C32 5080   3.025   5.507   6.907  0.5584  0.0522  0.2266
   38POPC   H2X 5081   3.125   5.556   6.900  1.3984 -1.5876  0.2320
   38POPC   H2Y 5082   3.044   5.398   6.910  1.4152  0.1378 -1.3027
   38POPC   C23 5083   2.682   5.890   6.864 -0.0210  0.2642  0.1381
   38POPC   H3R 5084   2.696   6.000   6.858 -1.7489  0.4781 -0.4461
   38POPC   H3S 5085   2.782   5.848   6.889 -0.2438  0.7792  2.0083
   38POPC   C24 5086   2.577   5.868   6.971  0.6185 -0.0482 -0.0206
   38POPC   H4R 5087   2.596   5.771   7.022  0.7400 -0.7317 -1.3061
   38POPC   H4S 5088   2.479   5.884   6.921 -0.1169  0.0180  1.3792
   38POPC   C25 5089   2.587   5.964   7.090  0.5324 -0.1293  0.9174
   38POPC   H5R 5090   2.496   5.938   7.149 -1.8553  0.2469 -2.3120
   38POPC   H5S 5091   2.574   6.072   7.069 -0.9537 -0.9018 -3.1866
   38POPC   C26 5092   2.712   5.927   7.180  0.1265  0.1491 -0.4392
   38POPC   H6R 5093   2.804   5.959   7.126 -0.2081 -0.7655 -1.6060
   38POPC   H6S 5094   2.719   5.816   7.176 -0.7163  0.0962 -0.7013
   38POPC   C27 5095   2.703   5.985   7.324  0.3345  0.2309 -0.5206
   38POPC   H7R 5096   2.598   5.966   7.355  0.1270  0.9320 -0.7870
   38POPC   H7S 5097   2.720   6.094   7.327 -2.5125  0.7413 -0.5159
   38POPC   C28 5098   2.790   5.929   7.430  0.2411  0.0765 -0.6123
   38POPC   H8R 5099   2.842   6.010   7.485 -0.8967 -0.5111  1.4243
   38POPC   H8S 5100   2.874   5.877   7.378  1.2593 -0.0430  1.0812
   38POPC   C29 5101   2.728   5.821   7.520 -0.0718 -0.4003 -0.9950
   38POPC   H91 5102   2.736   5.721   7.473  0.0373 -1.1115  0.4897
   38POPC  C210 5103   2.691   5.836   7.650  0.1773 -0.4658  0.3032
   38POPC  H101 5104   2.660   5.745   7.703 -1.2422 -1.2285 -1.6952
   38POPC  C211 5105   2.682   5.966   7.726 -0.0186 -0.7540  0.4741
   38POPC  H11R 5106   2.582   5.978   7.773 -0.1187 -0.0886  0.1018
   38POPC  H11S 5107   2.698   6.055   7.662  0.4730 -2.0703 -1.3245
   38POPC  C212 5108   2.790   5.967   7.834  0.0695 -0.4689 -0.0732
   38POPC  H12R 5109   2.890   5.954   7.787  0.8283  0.2249  1.2676
   38POPC  H12S 5110   2.767   5.879   7.897 -0.7824 -1.3962 -1.6247
   38POPC  C213 5111   2.785   6.098   7.918 -0.0160  0.3397  0.0251
   38POPC  H13R 5112   2.684   6.112   7.963 -0.0344 -1.0472  0.4708
   38POPC  H13S 5113   2.823   6.186   7.863 -1.8838  0.9984 -0.3001
   38POPC  C214 5114   2.876   6.079   8.042  0.1628  0.9718  0.0904
   38POPC  H14R 5115   2.971   6.043   7.997 -1.9356 -1.1414 -3.1263
   38POPC  H14S 5116   2.818   6.001   8.096 -1.4742  2.3096  0.3562
   38POPC  C215 5117   2.892   6.204   8.136  0.0348  0.2570  0.1442
   38POPC  H15R 5118   2.847   6.297   8.095  0.0814  1.1655  2.0485
   38POPC  H15S 5119   3.002   6.215   8.148  0.2522 -0.8772 -0.6992
   38POPC  C216 5120   2.840   6.165   8.280  0.0825  0.1824 -0.1686
   38POPC  H16R 5121   2.865   6.059   8.298 -1.8751 -0.3741 -0.4098
   38POPC  H16S 5122   2.730   6.148   8.273  0.5199 -2.2325 -2.5528
   38POPC  C217 5123   2.885   6.242   8.396  0.0101 -0.4567  0.3194
   38POPC  H17R 5124   2.831   6.339   8.397 -0.7705 -0.8853  1.0854
   38POPC  H17S 5125   2.993   6.259   8.373  0.1243 -0.3613  0.9169
   38POPC  C218 5126   2.866   6.163   8.526 -0.5858  0.1319 -0.3009
   38POPC  H18R 5127   2.812   6.221   8.604  1.0779  1.8915 -0.3916
   38POPC  H18S 5128   2.959   6.142   8.582 -0.9723 -1.5464 -0.2395
   38POPC  H18T 5129   2.818   6.063   8.520 -0.3934  0.1044 -1.8702
   38POPC   C33 5130   2.964   5.546   7.044  0.6308  0.5527  0.0915
   38POPC   H3X 5131   2.878   5.476   7.056  0.9159 -0.3774 -2.6910
   38POPC   H3Y 5132   2.930   5.652   7.049  0.5092  0.6890 -2.4477
   38POPC   C34 5133   3.062   5.534   7.151  0.2462  0.6402  0.2210
   38POPC   H4X 5134   3.161   5.584   7.144  0.6027 -0.1121 -0.3831
   38POPC   H4Y 5135   3.095   5.428   7.143  1.2372  0.9562 -0.0967
   38POPC   C35 5136   3.005   5.553   7.292 -0.5901  0.3109  0.0942
   38POPC   H5X 5137   2.929   5.480   7.329 -1.2107  0.2972 -1.1579
   38POPC   H5Y 5138   2.946   5.646   7.305 -1.8305 -0.4518  0.1664
   38POPC   C36 5139   3.123   5.556   7.396 -0.0111 -0.4501  0.3225
   38POPC   H6X 5140   3.202   5.622   7.356 -1.1077  1.5026  1.2127
   38POPC   H6Y 5141   3.177   5.459   7.405  0.2243 -0.5120 -1.4283
   38POPC   C37 5142   3.067   5.599   7.533  0.0583  0.0001 -0.7514
   38POPC   H7X 5143   3.017   5.515   7.585  2.9016 -1.6108 -0.4110
   38POPC   H7Y 5144   2.998   5.684   7.512  3.0204  2.9939  0.7910
   38POPC   C38 5145   3.175   5.632   7.638 -0.3290 -0.2084  0.0939
   38POPC   H8X 5146   3.236   5.714   7.595 -3.0703  0.1643 -3.5728
   38POPC   H8Y 5147   3.240   5.542   7.647 -1.8000 -1.1288  4.6834
   38POPC   C39 5148   3.114   5.671   7.776 -0.2862 -0.0213 -0.2634
   38POPC   H9X 5149   3.071   5.772   7.756  1.6517  1.1053  0.9521
   38POPC   H9Y 5150   3.195   5.690   7.849 -1.2078  0.2983  0.6950
   38POPC  C310 5151   3.016   5.571   7.840  0.8840  0.0819 -0.3092
   38POPC  H10X 5152   3.056   5.467   7.837 -0.0371 -0.2849 -0.0134
   38POPC  H10Y 5153   2.923   5.573   7.780 -0.0266 -0.8009  1.0354
   38POPC  C311 5154   2.976   5.612   7.981 -1.2951  0.5224  0.2119
   38POPC  H11X 5155   2.920   5.707   7.972 -0.2312  1.1549  0.0506
   38POPC  H11Y 5156   3.071   5.631   8.037 -0.8717 -1.4825  0.2515
   38POPC  C312 5157   2.898   5.513   8.064  0.2873  0.4312  0.0452
   38POPC  H12X 5158   2.810   5.482   8.004 -0.4892 -0.4355  1.5817
   38POPC  H12Y 5159   2.865   5.579   8.147 -1.9361  0.1241 -0.5463
   38POPC  C313 5160   2.974   5.388   8.113 -0.1022 -0.1805  0.3755
   38POPC  H13X 5161   3.018   5.335   8.026 -0.3080 -1.1912  0.8723
   38POPC  H13Y 5162   2.897   5.327   8.166  0.0243 -0.1578  0.5857
   38POPC  C314 5163   3.081   5.422   8.219 -0.6834  0.4056  1.5856
   38POPC  H14X 5164   3.042   5.511   8.272  0.8204  0.9087  1.9146
   38POPC  H14Y 5165   3.175   5.450   8.166  0.0917 -0.7761  2.2921
   38POPC  C315 5166   3.122   5.313   8.314 -0.0265  0.6597 -0.3662
   38POPC  H15X 5167   3.166   5.225   8.262  2.3289  0.3404  1.9385
   38POPC  H15Y 5168   3.035   5.280   8.375  1.0537 -0.0668  0.8156
   38POPC  C316 5169   3.230   5.364   8.408  0.2234 -0.2978 -0.0972
   38POPC  H16X 5170   3.320   5.401   8.354  0.7961 -2.1626 -0.4997
   38POPC  H16Y 5171   3.263   5.297   8.491 -0.2176  1.4468  1.5512
   38POPC  H16Z 5172   3.183   5.447   8.465  0.9519 -0.7774  1.2460
   39POPC     N 5173   6.200   3.494   5.886 -0.6597 -0.0361 -0.2911
   39POPC   C12 5174   6.087   3.400   5.905  0.0088 -0.0092  0.1486
   39POPC  H12A 5175   6.014   3.425   5.828  0.4120 -0.9401 -0.5531
   39POPC  H12B 5176   6.037   3.409   6.000  0.0312  2.1520 -0.0005
   39POPC   C13 5177   6.308   3.468   5.983  0.2995  1.0132 -0.0080
   39POPC  H13A 5178   6.387   3.541   5.986  0.9113  0.3486  0.5405
   39POPC  H13B 5179   6.271   3.457   6.085  0.1871  0.9257 -0.0572
   39POPC  H13C 5180   6.357   3.374   5.962 -0.9635 -0.3117  2.4906
   39POPC   C14 5181   6.245   3.490   5.745 -0.2013 -0.4172  0.0662
   39POPC  H14A 5182   6.157   3.500   5.683 -2.6650 -0.7480  3.2077
   39POPC  H14B 5183   6.304   3.580   5.741 -0.7218  0.0186  1.5659
   39POPC  H14C 5184   6.299   3.398   5.728  0.3888  0.3247 -2.3610
   39POPC   C15 5185   6.150   3.635   5.906 -0.4307  0.0155  0.3832
   39POPC  H15A 5186   6.083   3.646   5.991 -4.1771  2.6993 -2.5739
   39POPC  H15B 5187   6.079   3.653   5.827 -1.1561  0.8802  1.2006
   39POPC  H15C 5188   6.235   3.700   5.898 -0.1677 -0.4873 -1.1262
   39POPC   C11 5189   6.117   3.245   5.894 -0.0337 -0.2628  0.4467
   39POPC  H11A 5190   6.159   3.219   5.794 -1.7840 -0.5677 -0.2595
   39POPC  H11B 5191   6.020   3.190   5.892 -0.3454  0.2791 -1.0466
   39POPC     P 5192   6.164   3.161   6.135  0.0247 -0.0317 -0.2261
   39POPC   O13 5193   6.233   3.036   6.175 -0.0315 -0.7468 -0.3637
   39POPC   O14 5194   6.015   3.170   6.147 -0.3227  0.2077  0.4107
   39POPC   O12 5195   6.212   3.203   5.995  0.3464  0.1131 -0.1668
   39POPC   O11 5196   6.222   3.270   6.231  0.0914  0.2318  0.4645
   39POPC    C1 5197   6.356   3.279   6.266 -0.1933 -0.8153 -0.7391
   39POPC    HA 5198   6.390   3.383   6.247  3.0393 -1.3142  1.3626
   39POPC    HB 5199   6.424   3.215   6.205 -1.5591 -0.2375 -2.9704
   39POPC    C2 5200   6.383   3.258   6.417  0.3510  0.7964 -0.2240
   39POPC    HS 5201   6.366   3.151   6.439 -3.6666  0.9581 -1.7383
   39POPC   O21 5202   6.293   3.345   6.486  0.5560 -0.8669  0.5255
   39POPC   C21 5203   6.250   3.296   6.593 -0.0860  0.2451 -0.2740
   39POPC   O22 5204   6.299   3.207   6.661  0.4563 -0.1282 -0.1591
   39POPC   C22 5205   6.118   3.378   6.641  0.4246  0.1708  0.1058
   39POPC   H2R 5206   6.048   3.384   6.555  2.6448  1.5802 -1.7121
   39POPC   H2S 5207   6.154   3.480   6.668 -0.9800  1.2622 -1.9596
   39POPC    C3 5208   6.531   3.299   6.450 -0.3978  0.3896  0.0394
   39POPC    HX 5209   6.557   3.403   6.420 -0.8820  0.4746 -0.0855
   39POPC    HY 5210   6.600   3.231   6.394 -0.1826  1.0527 -0.5251
   39POPC   O31 5211   6.555   3.297   6.588 -0.0352 -0.2286 -0.5059
   39POPC   C31 5212   6.597   3.192   6.648  0.0924  0.0821  0.0537
   39POPC   O32 5213   6.626   3.090   6.588 -0.5018  0.2507  0.3693
   39POPC   C32 5214   6.609   3.199   6.799  0.6530 -0.8871 -0.0432
   39POPC   H2X 5215   6.708   3.246   6.816 -0.0773  0.8476 -0.3813
   39POPC   H2Y 5216   6.535   3.273   6.837  0.0832 -0.7150 -1.4409
   39POPC   C23 5217   6.054   3.327   6.773  0.4403 -0.1716 -0.2989
   39POPC   H3R 5218   6.135   3.318   6.849  0.0250 -1.3799  0.0227
   39POPC   H3S 5219   6.014   3.224   6.764  0.2929 -0.1427  0.0222
   39POPC   C24 5220   5.953   3.420   6.842 -0.3216 -0.1019  0.7984
   39POPC   H4R 5221   5.850   3.429   6.801  0.2561  1.1002 -0.4710
   39POPC   H4S 5222   6.002   3.520   6.839  3.0711 -1.5989  1.5031
   39POPC   C25 5223   5.935   3.389   6.989  0.1482  0.3869 -0.1283
   39POPC   H5R 5224   6.036   3.380   7.033 -0.3030  0.3161  0.9163
   39POPC   H5S 5225   5.879   3.294   7.000 -1.3962  1.1217 -1.2448
   39POPC   C26 5226   5.844   3.496   7.061  0.2204 -0.3329  0.1118
   39POPC   H6R 5227   5.738   3.483   7.030 -0.2777  3.4945 -0.2980
   39POPC   H6S 5228   5.872   3.594   7.018 -3.2130  0.1861 -1.3177
   39POPC   C27 5229   5.851   3.481   7.214 -0.3312 -0.1628 -0.0822
   39POPC   H7R 5230   5.834   3.582   7.257 -1.5217 -0.7230  0.7929
   39POPC   H7S 5231   5.954   3.443   7.232 -0.7810 -0.5752  1.7729
   39POPC   C28 5232   5.762   3.377   7.278  0.0647  0.2734 -0.1164
   39POPC   H8R 5233   5.789   3.373   7.386 -2.4088  1.3560  0.6322
   39POPC   H8S 5234   5.789   3.277   7.238  0.6762  0.4947 -0.2580
   39POPC   C29 5235   5.618   3.414   7.257  0.2471  0.1681 -0.1855
   39POPC   H91 5236   5.579   3.410   7.154  0.3528  1.5497 -0.2970
   39POPC  C210 5237   5.545   3.471   7.355  0.0312 -0.5101  0.1485
   39POPC  H101 5238   5.437   3.477   7.335  0.1738 -2.2382 -1.3898
   39POPC  C211 5239   5.580   3.489   7.499  0.0344  0.0318 -0.4988
   39POPC  H11R 5240   5.528   3.578   7.540 -4.2414 -2.8668  1.1646
   39POPC  H11S 5241   5.686   3.517   7.514  0.3378 -1.2493 -0.0808
   39POPC  C212 5242   5.535   3.390   7.606 -0.0073  0.2628 -0.0937
   39POPC  H12R 5243   5.582   3.291   7.585 -0.9060  0.4916 -3.7514
   39POPC  H12S 5244   5.431   3.358   7.582  0.5114 -0.5762 -1.3155
   39POPC  C213 5245   5.539   3.440   7.751 -0.6194  0.3094 -0.1176
   39POPC  H13R 5246   5.482   3.535   7.760 -2.1968 -0.7276  1.5732
   39POPC  H13S 5247   5.642   3.466   7.781 -1.3197 -0.6166  3.6631
   39POPC  C214 5248   5.482   3.339   7.851 -0.3013 -0.0125 -0.3348
   39POPC  H14R 5249   5.544   3.249   7.872 -3.3846 -2.0829  0.5986
   39POPC  H14S 5250   5.391   3.284   7.821  0.6963 -2.0216  0.1329
   39POPC  C215 5251   5.461   3.403   7.983 -0.3444  0.0330  0.9993
   39POPC  H15R 5252   5.396   3.494   7.985  1.1953  1.2675 -0.9956
   39POPC  H15S 5253   5.558   3.448   8.017 -0.4305  0.8329  0.2329
   39POPC  C216 5254   5.413   3.308   8.089 -0.0998  0.0984  0.0137
   39POPC  H16R 5255   5.482   3.221   8.094 -1.0868 -1.1635 -4.0192
   39POPC  H16S 5256   5.321   3.260   8.049  0.2824 -0.2273 -0.5025
   39POPC  C217 5257   5.394   3.373   8.220 -0.0489  0.6736 -0.8024
   39POPC  H17R 5258   5.312   3.326   8.279 -1.5504  3.6938 -0.2762
   39POPC  H17S 5259   5.356   3.477   8.211  1.1672  1.2174  0.0928
   39POPC  C218 5260   5.522   3.362   8.308  0.4557 -0.6389 -0.6497
   39POPC  H18R 5261   5.510   3.418   8.403  0.9103 -0.2681 -0.8098
   39POPC  H18S 5262   5.608   3.405   8.252  0.8184 -0.2870  0.1605
   39POPC  H18T 5263   5.543   3.255   8.327 -0.1718 -0.4639  1.2449
   39POPC   C33 5264   6.568   3.079   6.879  0.1580  0.2063  0.0932
   39POPC   H3X 5265   6.643   2.998   6.868  2.0898  2.0164 -0.7764
   39POPC   H3Y 5266   6.463   3.047   6.861 -0.1682  1.2143  0.1253
   39POPC   C34 5267   6.550   3.116   7.032  0.2534 -0.1584  0.5201
   39POPC   H4X 5268   6.474   3.197   7.037 -0.6927 -1.0002  0.1776
   39POPC   H4Y 5269   6.637   3.168   7.076  1.6174 -0.1214 -2.0184
   39POPC   C35 5270   6.502   3.001   7.119 -0.0604  0.4569  0.1943
   39POPC   H5X 5271   6.580   2.923   7.122 -1.1774 -0.7145 -0.4475
   39POPC   H5Y 5272   6.417   2.949   7.070  0.8227 -0.5100 -0.3471
   39POPC   C36 5273   6.465   3.057   7.261 -0.0056 -0.4053 -0.4502
   39POPC   H6X 5274   6.387   3.134   7.240 -1.0334 -1.4533 -0.5629
   39POPC   H6Y 5275   6.560   3.097   7.302 -1.2476  1.2549  0.9509
   39POPC   C37 5276   6.423   2.963   7.376 -0.3626  0.0601 -0.7860
   39POPC   H7X 5277   6.508   2.894   7.392 -0.4808  0.1376  0.2203
   39POPC   H7Y 5278   6.333   2.904   7.347 -2.1282  1.7578  0.9405
   39POPC   C38 5279   6.387   3.029   7.511  0.4474 -0.1208 -0.1582
   39POPC   H8X 5280   6.303   3.101   7.507 -0.4830 -1.2329 -1.7670
   39POPC   H8Y 5281   6.479   3.085   7.538 -0.2904 -0.1096  2.5928
   39POPC   C39 5282   6.362   2.926   7.625 -0.9394  0.1075  0.1350
   39POPC   H9X 5283   6.448   2.856   7.626  0.3567  1.6123  2.4578
   39POPC   H9Y 5284   6.264   2.876   7.609 -1.0005  0.3363 -0.2250
   39POPC  C310 5285   6.353   2.993   7.766 -0.5690 -0.8556 -0.4026
   39POPC  H10X 5286   6.258   3.052   7.763  0.8169  1.4789 -1.0058
   39POPC  H10Y 5287   6.442   3.054   7.790 -0.1824 -2.3325  2.2108
   39POPC  C311 5288   6.357   2.895   7.885  0.0163  0.1257  0.1554
   39POPC  H11X 5289   6.461   2.871   7.917  0.5600 -0.7960 -2.0995
   39POPC  H11Y 5290   6.305   2.801   7.857 -0.8901  0.2623  1.2857
   39POPC  C312 5291   6.278   2.954   8.003  0.6183 -0.7495  0.3331
   39POPC  H12X 5292   6.172   2.976   7.976  0.9267  1.2729  0.5841
   39POPC  H12Y 5293   6.320   3.052   8.034 -0.0763 -0.9292  1.9729
   39POPC  C313 5294   6.277   2.882   8.137 -0.3648  0.3257 -0.7406
   39POPC  H13X 5295   6.379   2.876   8.182 -1.4402  0.7434  1.9221
   39POPC  H13Y 5296   6.231   2.782   8.126  0.4236 -0.4708  2.4196
   39POPC  C314 5297   6.185   2.946   8.244 -0.3821  0.1518  0.4352
   39POPC  H14X 5298   6.100   2.997   8.193  1.0675  0.8643 -1.4401
   39POPC  H14Y 5299   6.251   3.019   8.296  1.7832 -2.2400  1.2798
   39POPC  C315 5300   6.130   2.856   8.355 -0.5058  0.2964 -0.7277
   39POPC  H15X 5301   6.092   2.912   8.443  0.4240 -2.3500  1.4792
   39POPC  H15Y 5302   6.212   2.791   8.392 -2.1292 -2.1805 -1.2147
   39POPC  C316 5303   6.013   2.764   8.320  0.5713  0.2336  0.2609
   39POPC  H16X 5304   6.047   2.679   8.257 -3.4161 -2.1246  0.9710
   39POPC  H16Y 5305   5.933   2.817   8.264  0.0707  0.8005  1.4698
   39POPC  H16Z 5306   5.977   2.723   8.417  1.1744  0.3305  0.5339
   40POPC     N 5307   5.023   0.528   6.102 -0.2683  0.2088  0.7474
   40POPC   C12 5308   5.062   0.514   6.251  0.1806  0.1547  0.3588
   40POPC  H12A 5309   4.976   0.483   6.309 -0.0467 -1.3282 -0.7238
   40POPC  H12B 5310   5.080   0.616   6.282 -0.3477  0.2628  0.3148
   40POPC   C13 5311   5.136   0.585   6.019 -0.1391  0.3991  0.3355
   40POPC  H13A 5312   5.226   0.525   6.022 -1.9588 -2.6612 -1.3372
   40POPC  H13B 5313   5.106   0.597   5.916 -1.2333  1.3456  0.7511
   40POPC  H13C 5314   5.156   0.685   6.055 -1.9864  1.0551 -0.3222
   40POPC   C14 5315   4.998   0.392   6.039 -0.4290  0.3051 -0.1957
   40POPC  H14A 5316   4.921   0.339   6.092 -0.4450  1.9631  1.5626
   40POPC  H14B 5317   4.990   0.403   5.932  0.0921  0.6084 -0.2094
   40POPC  H14C 5318   5.089   0.335   6.046 -0.7840 -0.4042 -1.1745
   40POPC   C15 5319   4.907   0.615   6.089 -0.5240  0.3123 -0.2788
   40POPC  H15A 5320   4.924   0.718   6.115  0.0693 -0.0856  0.9759
   40POPC  H15B 5321   4.822   0.581   6.147  0.2172  1.1595  1.3765
   40POPC  H15C 5322   4.869   0.622   5.988 -1.2436  0.9096  0.0256
   40POPC   C11 5323   5.181   0.425   6.287  0.4486  0.0222  0.0842
   40POPC  H11A 5324   5.180   0.338   6.218 -0.8751 -1.3051  1.6848
   40POPC  H11B 5325   5.172   0.385   6.391 -2.5748  1.0793  0.3126
   40POPC     P 5326   5.359   0.598   6.372 -0.0552 -0.2939  0.0035
   40POPC   O13 5327   5.408   0.719   6.306  0.8031  0.7277 -0.3529
   40POPC   O14 5328   5.454   0.524   6.452 -0.2867 -0.3914  0.2731
   40POPC   O12 5329   5.299   0.497   6.264  0.2119  0.6172  0.1424
   40POPC   O11 5330   5.234   0.644   6.465 -0.1288  0.1359 -0.2758
   40POPC    C1 5331   5.216   0.774   6.519  0.2681 -0.0868  0.2025
   40POPC    HA 5332   5.108   0.794   6.539  0.0919  1.8586 -2.1577
   40POPC    HB 5333   5.244   0.845   6.438  1.7588 -1.1437 -0.2451
   40POPC    C2 5334   5.301   0.797   6.643 -0.0625 -0.5781  0.7382
   40POPC    HS 5335   5.405   0.760   6.629  0.7053  2.2140 -2.4446
   40POPC   O21 5336   5.225   0.751   6.756 -0.4477 -0.4780  0.4169
   40POPC   C21 5337   5.295   0.673   6.840 -0.0737  0.0448 -0.0344
   40POPC   O22 5338   5.406   0.628   6.820  0.1567  0.3511  0.4019
   40POPC   C22 5339   5.220   0.672   6.967 -0.1984 -0.2671 -0.1957
   40POPC   H2R 5340   5.250   0.598   7.044 -0.0319 -1.9154 -1.7758
   40POPC   H2S 5341   5.114   0.647   6.946 -0.8777  0.4750  1.9989
   40POPC    C3 5342   5.328   0.950   6.666  0.0925 -0.1453  0.0077
   40POPC    HX 5343   5.231   0.986   6.706  0.7784  1.3211  0.4086
   40POPC    HY 5344   5.347   1.007   6.572 -1.4500  2.8639  1.3769
   40POPC   O31 5345   5.417   0.983   6.770 -0.0965  0.1385 -0.7982
   40POPC   C31 5346   5.533   1.036   6.733 -0.8399  0.8102  0.4649
   40POPC   O32 5347   5.580   1.034   6.620  0.7120  0.2420  0.6877
   40POPC   C32 5348   5.614   1.078   6.857 -0.0885 -0.2113 -0.2351
   40POPC   H2X 5349   5.558   1.163   6.902  1.4697  0.4333  0.5709
   40POPC   H2Y 5350   5.712   1.115   6.818 -0.9780  0.3667 -2.0930
   40POPC   C23 5351   5.221   0.805   7.045 -0.0046  0.4251  0.3589
   40POPC   H3R 5352   5.123   0.840   7.083 -0.4753  1.1834 -1.4584
   40POPC   H3S 5353   5.267   0.888   6.987 -0.2533  0.3892  0.1107
   40POPC   C24 5354   5.313   0.798   7.164 -0.2034  0.1465 -0.4242
   40POPC   H4R 5355   5.340   0.901   7.196  0.2005  0.1758 -0.8422
   40POPC   H4S 5356   5.410   0.743   7.159  0.2725  0.9889 -0.5844
   40POPC   C25 5357   5.234   0.741   7.289  0.3107 -0.0952  0.0806
   40POPC   H5R 5358   5.196   0.641   7.257  1.4261 -0.7334  0.7024
   40POPC   H5S 5359   5.147   0.811   7.296  0.1651 -0.4594  2.8314
   40POPC   C26 5360   5.301   0.730   7.426 -0.0388 -0.1062  0.4652
   40POPC   H6R 5361   5.344   0.831   7.445 -0.1085 -0.1455  0.8318
   40POPC   H6S 5362   5.387   0.661   7.429  1.3800  1.5837  0.3724
   40POPC   C27 5363   5.210   0.696   7.540 -0.3824  0.5758  0.0363
   40POPC   H7R 5364   5.193   0.588   7.556  0.2423  0.4897  0.1497
   40POPC   H7S 5365   5.107   0.732   7.521 -0.6289 -0.3661 -0.4804
   40POPC   C28 5366   5.246   0.762   7.674 -0.0691 -0.1518 -0.2498
   40POPC   H8R 5367   5.250   0.873   7.667  0.1319  0.0023  1.6294
   40POPC   H8S 5368   5.354   0.739   7.684 -0.2987 -2.1369 -1.8338
   40POPC   C29 5369   5.155   0.725   7.789  0.4627  0.5770  0.1744
   40POPC   H91 5370   5.051   0.760   7.792  0.3721  0.3295 -0.0910
   40POPC  C210 5371   5.199   0.638   7.884  0.2898 -0.5413 -0.7670
   40POPC  H101 5372   5.126   0.617   7.964  0.0580  0.2795 -0.7448
   40POPC  C211 5373   5.332   0.579   7.895 -0.0251 -0.3467 -0.9851
   40POPC  H11R 5374   5.413   0.634   7.844  0.0904  0.3873 -0.0477
   40POPC  H11S 5375   5.328   0.482   7.842 -0.1490 -0.4755 -0.7443
   40POPC  C212 5376   5.374   0.561   8.044 -0.3065 -0.5237 -0.4402
   40POPC  H12R 5377   5.316   0.474   8.085 -2.7371 -0.1754 -2.8604
   40POPC  H12S 5378   5.341   0.643   8.111 -2.4239 -0.8090 -1.0595
   40POPC  C213 5379   5.524   0.534   8.069  0.2471 -0.2974 -0.0899
   40POPC  H13R 5380   5.589   0.623   8.065  0.2314 -0.2438  0.7221
   40POPC  H13S 5381   5.553   0.460   7.991  1.7452 -0.1355  0.2924
   40POPC  C214 5382   5.548   0.473   8.206 -0.0951  0.3202  0.2326
   40POPC  H14R 5383   5.657   0.469   8.227 -0.1330  0.0499  0.3913
   40POPC  H14S 5384   5.506   0.370   8.205 -0.0114  0.2789  0.7159
   40POPC  C215 5385   5.483   0.546   8.320  0.1530  1.0115 -0.7721
   40POPC  H15R 5386   5.455   0.471   8.399  2.8856  0.4769 -0.2031
   40POPC  H15S 5387   5.380   0.574   8.289  0.1157 -0.9600 -2.6646
   40POPC  C216 5388   5.572   0.657   8.380 -0.0084 -0.0018 -0.0225
   40POPC  H16R 5389   5.592   0.741   8.312  0.0387 -0.1133 -0.1463
   40POPC  H16S 5390   5.672   0.619   8.409 -0.8924 -2.6530 -0.1738
   40POPC  C217 5391   5.505   0.718   8.501 -0.0713  0.3625  0.1112
   40POPC  H17R 5392   5.516   0.649   8.587 -0.4361 -0.0869 -0.1947
   40POPC  H17S 5393   5.394   0.716   8.493 -0.4237 -0.1843  3.5396
   40POPC  C218 5394   5.545   0.863   8.535 -0.3964  0.5592 -0.3711
   40POPC  H18R 5395   5.492   0.932   8.466 -0.2923  2.9119  1.7699
   40POPC  H18S 5396   5.652   0.892   8.525 -0.4463  0.5570 -0.9628
   40POPC  H18T 5397   5.510   0.894   8.636 -0.2512  1.0135 -0.4544
   40POPC   C33 5398   5.633   0.971   6.967  0.1884  0.2507  0.2446
   40POPC   H3X 5399   5.728   0.916   6.952 -0.8332 -1.3947 -0.4669
   40POPC   H3Y 5400   5.545   0.904   6.975  2.0650 -2.1965  1.8531
   40POPC   C34 5401   5.646   1.026   7.115 -0.1778 -0.3695  0.0545
   40POPC   H4X 5402   5.551   1.059   7.163 -0.0097 -2.3947  1.9328
   40POPC   H4Y 5403   5.712   1.115   7.111 -1.3282  0.5110  0.1181
   40POPC   C35 5404   5.713   0.918   7.210  0.5638  0.2831  0.1016
   40POPC   H5X 5405   5.811   0.885   7.171  0.2855 -1.0455  0.4981
   40POPC   H5Y 5406   5.650   0.826   7.208  2.0733 -0.8354  1.7589
   40POPC   C36 5407   5.720   0.955   7.358  0.1719 -0.0645  0.0126
   40POPC   H6X 5408   5.630   1.018   7.374 -0.7602 -1.3114 -0.1934
   40POPC   H6Y 5409   5.813   1.005   7.392 -0.2484 -0.5899  2.0429
   40POPC   C37 5410   5.703   0.836   7.452  0.2505  0.2716 -0.5368
   40POPC   H7X 5411   5.781   0.759   7.433 -0.4975 -0.9736  1.1660
   40POPC   H7Y 5412   5.605   0.787   7.430 -0.1544  1.0779 -0.5443
   40POPC   C38 5413   5.708   0.878   7.599  0.3917  0.2933 -0.2615
   40POPC   H8X 5414   5.622   0.943   7.622  0.3554  0.1447  0.0242
   40POPC   H8Y 5415   5.802   0.930   7.625 -1.2972  3.3953  0.0751
   40POPC   C39 5416   5.674   0.755   7.691  0.3160 -0.1984 -0.5269
   40POPC   H9X 5417   5.738   0.675   7.649  2.1914  1.2002 -0.4281
   40POPC   H9Y 5418   5.569   0.724   7.668 -0.0925  0.9803 -0.3107
   40POPC  C310 5419   5.702   0.792   7.836  0.6874  0.9351  0.2410
   40POPC  H10X 5420   5.811   0.812   7.846  0.6669  0.0734  3.2435
   40POPC  H10Y 5421   5.693   0.701   7.899  0.1695  2.7164  2.9505
   40POPC  C311 5422   5.618   0.902   7.890  0.5003  0.0707 -0.5577
   40POPC  H11X 5423   5.509   0.878   7.883  0.8573 -1.6690 -0.4841
   40POPC  H11Y 5424   5.630   0.990   7.823 -1.1332 -0.2573 -1.3447
   40POPC  C312 5425   5.648   0.945   8.038  0.4660 -0.3550  0.6041
   40POPC  H12X 5426   5.750   0.987   8.039 -0.5369  2.4403 -1.7808
   40POPC  H12Y 5427   5.644   0.855   8.104 -2.2847  1.0086  2.5039
   40POPC  C313 5428   5.545   1.047   8.093  0.0192  0.0277 -0.5801
   40POPC  H13X 5429   5.438   1.020   8.100 -0.1337  1.0809  2.7913
   40POPC  H13Y 5430   5.536   1.139   8.031  0.9990  0.9683  0.6341
   40POPC  C314 5431   5.574   1.100   8.230 -0.8705  0.0124 -0.2749
   40POPC  H14X 5432   5.674   1.146   8.239 -0.8494  0.0430 -0.6562
   40POPC  H14Y 5433   5.561   1.024   8.311 -1.5355  1.3858  0.9643
   40POPC  C315 5434   5.467   1.212   8.270  0.3440  0.7985  0.6386
   40POPC  H15X 5435   5.368   1.162   8.268  0.5585  0.3579  1.0072
   40POPC  H15Y 5436   5.453   1.287   8.189 -3.7896 -1.2701 -0.8426
   40POPC  C316 5437   5.494   1.264   8.404 -1.0407  0.6519  0.3008
   40POPC  H16X 5438   5.408   1.324   8.441 -0.6333  1.2750  0.2566
   40POPC  H16Y 5439   5.593   1.316   8.405 -0.1274 -0.9549 -0.9493
   40POPC  H16Z 5440   5.511   1.180   8.475 -1.5657 -0.1247 -0.4670
   41CHL1    C3 5441   4.234   3.810  10.111 -0.7065  0.0361 -0.6090
   41CHL1    H3 5442   4.342   3.795  10.090 -0.4745 -1.3750  1.2600
   41CHL1    O3 5443   4.229   3.756  10.244  0.0932  0.1432 -0.6827
   41CHL1   H3' 5444   4.144   3.777  10.283  0.1272 -0.3977 -0.3035
   41CHL1    C4 5445   4.203   3.958  10.116 -0.1633 -0.2702  0.8075
   41CHL1   H4A 5446   4.101   3.983  10.152 -1.5727 -1.7118 -1.8985
   41CHL1   H4B 5447   4.276   4.009  10.183 -0.8333  2.6085 -0.5043
   41CHL1    C5 5448   4.220   4.026   9.978  0.5870  0.0442 -0.1902
   41CHL1    C6 5449   4.310   4.123   9.957 -0.0587 -0.5657 -0.4160
   41CHL1    H6 5450   4.355   4.169  10.045 -0.1185 -2.6561  0.7698
   41CHL1    C7 5451   4.332   4.191   9.823  0.3935 -0.9567 -0.5932
   41CHL1   H7A 5452   4.325   4.302   9.834 -0.3023 -0.9195 -1.3241
   41CHL1   H7B 5453   4.433   4.158   9.789  0.8801 -0.9924  0.8189
   41CHL1    C8 5454   4.229   4.153   9.715 -0.1776 -0.1947  0.0188
   41CHL1    H8 5455   4.136   4.213   9.732  0.2402  0.1902  1.0526
   41CHL1   C14 5456   4.281   4.181   9.572  0.1157 -0.1805 -0.8185
   41CHL1   H14 5457   4.367   4.112   9.559 -0.9385 -2.2493  2.1366
   41CHL1   C15 5458   4.339   4.324   9.530 -0.5352 -0.2461 -0.4066
   41CHL1  H15A 5459   4.292   4.411   9.581 -2.1313 -0.9271 -0.6404
   41CHL1  H15B 5460   4.445   4.310   9.558 -1.0714 -2.5099  0.8153
   41CHL1   C16 5461   4.324   4.335   9.376  0.4729 -0.7363 -0.3155
   41CHL1  H16A 5462   4.255   4.418   9.350 -0.2523 -1.0521  0.5436
   41CHL1  H16B 5463   4.422   4.347   9.325 -0.3389 -0.9922 -2.0067
   41CHL1   C17 5464   4.258   4.199   9.336 -0.5497  0.3124  0.0692
   41CHL1   H17 5465   4.341   4.126   9.327  0.1059  0.9009  1.1711
   41CHL1   C13 5466   4.179   4.144   9.456 -0.8627  0.6661 -0.5189
   41CHL1   C18 5467   4.048   4.229   9.469 -0.5610  0.5765 -0.3757
   41CHL1  H18A 5468   4.005   4.204   9.568  2.5594 -2.9465  0.2939
   41CHL1  H18B 5469   4.084   4.335   9.469  1.9523 -0.1755 -2.4556
   41CHL1  H18C 5470   3.969   4.210   9.393 -1.5927 -2.0918  1.2436
   41CHL1   C12 5471   4.141   3.996   9.459  0.7497 -0.6774 -0.0261
   41CHL1  H12A 5472   4.057   3.972   9.390  0.7406 -1.9748  0.3978
   41CHL1  H12B 5473   4.232   3.935   9.441  2.7841  0.7097  4.1929
   41CHL1   C11 5474   4.099   3.952   9.604  0.1363 -0.3190  0.3457
   41CHL1  H11A 5475   3.998   3.992   9.628  0.1422 -0.9297  1.4380
   41CHL1  H11B 5476   4.097   3.841   9.603  1.3089 -0.3617 -1.1841
   41CHL1    C9 5477   4.197   4.001   9.718  0.3724  0.6279  0.2829
   41CHL1    H9 5478   4.290   3.944   9.695  1.2380  2.6077 -1.4076
   41CHL1   C10 5479   4.151   3.955   9.860  0.1251 -0.4296 -0.8223
   41CHL1   C19 5480   4.000   3.985   9.881  0.6678  0.0227 -0.0812
   41CHL1  H19A 5481   3.985   4.093   9.858  1.3328  0.5692  1.8588
   41CHL1  H19B 5482   3.937   3.917   9.819 -1.1739 -0.3474  2.0657
   41CHL1  H19C 5483   3.971   3.961   9.985  1.9344 -1.5602 -0.0578
   41CHL1    C1 5484   4.182   3.805   9.871  0.4223  0.8279  0.2279
   41CHL1   H1A 5485   4.120   3.753   9.795  1.0414  0.7027 -0.2022
   41CHL1   H1B 5486   4.292   3.787   9.866  0.1919 -0.9831  1.0234
   41CHL1    C2 5487   4.144   3.740  10.009  0.6407 -0.3848  0.3032
   41CHL1   H2A 5488   4.174   3.633  10.007  0.5425 -0.6488  4.3504
   41CHL1   H2B 5489   4.036   3.738  10.032  0.0786 -0.6150 -2.0870
   41CHL1   C20 5490   4.192   4.209   9.198 -0.9087 -0.3116 -0.5610
   41CHL1   H20 5491   4.095   4.260   9.214  0.6611  2.6312  0.5113
   41CHL1   C21 5492   4.182   4.074   9.132  0.6411  0.0168  0.5480
   41CHL1  H21A 5493   4.285   4.040   9.110  1.1415  2.3937 -1.0592
   41CHL1  H21B 5494   4.116   4.089   9.044  0.5808 -1.9540  0.2059
   41CHL1  H21C 5495   4.142   3.996   9.201  2.5296  1.1437  3.0804
   41CHL1   C22 5496   4.249   4.312   9.099  0.0383 -0.1335  0.0214
   41CHL1  H22A 5497   4.199   4.318   9.000  1.1487 -0.4066 -0.5707
   41CHL1  H22B 5498   4.249   4.411   9.149  0.4317  0.6114 -1.3969
   41CHL1   C23 5499   4.391   4.278   9.041  0.3196  0.3016  0.3877
   41CHL1  H23A 5500   4.435   4.379   9.027 -0.2644  0.8639  2.3906
   41CHL1  H23B 5501   4.458   4.225   9.113 -0.4826  1.3350  1.9440
   41CHL1   C24 5502   4.393   4.204   8.905  0.3366 -0.1424  0.6001
   41CHL1  H24A 5503   4.328   4.114   8.911 -2.3481  1.5339 -1.1917
   41CHL1  H24B 5504   4.337   4.263   8.830  1.8893  0.2234 -0.3081
   41CHL1   C25 5505   4.534   4.189   8.846  0.3759  0.3712  0.1955
   41CHL1   H25 5506   4.594   4.134   8.922 -1.3195  0.3234  1.5477
   41CHL1   C26 5507   4.522   4.110   8.715 -0.0828 -0.3658 -0.5419
   41CHL1  H26A 5508   4.455   4.166   8.646 -0.8636  0.3959  0.7868
   41CHL1  H26B 5509   4.622   4.100   8.667  0.6395  0.5810  0.7100
   41CHL1  H26C 5510   4.476   4.010   8.731 -0.4712 -0.3112 -1.2542
   41CHL1   C27 5511   4.605   4.328   8.824 -0.2000  0.5742  0.2390
   41CHL1  H27A 5512   4.619   4.381   8.920 -1.2244 -0.1540  0.8118
   41CHL1  H27B 5513   4.701   4.303   8.775  0.3127  0.2408  1.3894
   41CHL1  H27C 5514   4.548   4.388   8.750  1.1330  1.4062 -0.1360
   42CHL1    C3 5515   3.804   3.482   9.781  0.2366  0.7324  0.3888
   42CHL1    H3 5516   3.840   3.384   9.745  0.5009  0.7210  0.6780
   42CHL1    O3 5517   3.791   3.479   9.920 -0.1299 -0.1257 -0.2164
   42CHL1   H3' 5518   3.751   3.565   9.934 -2.7598 -1.1200 -1.0272
   42CHL1    C4 5519   3.902   3.587   9.737 -0.7367 -0.3306  0.0236
   42CHL1   H4A 5520   3.884   3.685   9.787  1.3295  0.1330 -0.0639
   42CHL1   H4B 5521   3.993   3.538   9.777  0.1999  0.3737 -1.1793
   42CHL1    C5 5522   3.908   3.602   9.585 -0.5531 -0.1997 -0.6732
   42CHL1    C6 5523   4.031   3.587   9.528 -0.3475  0.3948  0.3016
   42CHL1    H6 5524   4.120   3.572   9.592  0.5341  0.8918 -0.7828
   42CHL1    C7 5525   4.057   3.603   9.380  0.8021  0.4635  0.0864
   42CHL1   H7A 5526   4.142   3.666   9.349 -0.8487  1.6897 -2.2836
   42CHL1   H7B 5527   4.078   3.505   9.334 -2.0228  0.1848 -0.8491
   42CHL1    C8 5528   3.933   3.664   9.308 -0.4877  0.1302  0.1582
   42CHL1    H8 5529   3.940   3.772   9.333 -0.4796 -0.3200  2.3467
   42CHL1   C14 5530   3.937   3.650   9.157 -0.4343 -0.1185 -0.1289
   42CHL1   H14 5531   3.913   3.543   9.135 -1.3842 -0.1012  0.7204
   42CHL1   C15 5532   4.061   3.692   9.074  0.8391 -0.1006 -0.2009
   42CHL1  H15A 5533   4.097   3.792   9.106 -1.6531  0.2871  1.7199
   42CHL1  H15B 5534   4.149   3.624   9.072 -0.1453 -1.5612  2.0743
   42CHL1   C16 5535   4.011   3.702   8.926 -0.9402  0.2393 -0.6355
   42CHL1  H16A 5536   4.031   3.801   8.879 -1.9331  0.2038 -1.1482
   42CHL1  H16B 5537   4.063   3.619   8.873 -0.4941  0.6779 -0.8938
   42CHL1   C17 5538   3.856   3.673   8.932  0.4710 -0.0554 -0.3201
   42CHL1   H17 5539   3.833   3.565   8.925  0.5593 -0.0907 -0.0693
   42CHL1   C13 5540   3.823   3.712   9.081 -0.7125 -0.6899  0.8540
   42CHL1   C18 5541   3.826   3.865   9.095  0.1410  0.2845  0.0479
   42CHL1  H18A 5542   3.739   3.918   9.051  0.0821  0.9451  0.9340
   42CHL1  H18B 5543   3.837   3.892   9.202 -0.3051 -1.1095  0.4744
   42CHL1  H18C 5544   3.906   3.915   9.037 -0.8215 -1.4900 -3.0320
   42CHL1   C12 5545   3.698   3.637   9.128 -0.4258 -0.1369  0.0627
   42CHL1  H12A 5546   3.604   3.662   9.074 -0.0867  1.4115  0.1455
   42CHL1  H12B 5547   3.715   3.528   9.114 -1.8323 -0.2084 -1.3316
   42CHL1   C11 5548   3.679   3.663   9.281  0.1452  0.4991 -0.4481
   42CHL1  H11A 5549   3.677   3.773   9.294 -1.9846  0.2769  1.8440
   42CHL1  H11B 5550   3.582   3.610   9.298 -0.1622  0.5177 -1.9388
   42CHL1    C9 5551   3.803   3.609   9.362  0.4827  0.4361 -0.5373
   42CHL1    H9 5552   3.810   3.499   9.350  0.8248  0.2737  0.9761
   42CHL1   C10 5553   3.774   3.624   9.512  0.7203 -0.6034  0.3030
   42CHL1   C19 5554   3.738   3.770   9.539 -0.3916 -0.3306  0.0267
   42CHL1  H19A 5555   3.635   3.792   9.504 -1.2548 -2.1079  1.3269
   42CHL1  H19B 5556   3.742   3.800   9.646 -0.1407  2.0669 -0.5953
   42CHL1  H19C 5557   3.808   3.839   9.487  0.5585 -0.4526  1.1027
   42CHL1    C1 5558   3.672   3.517   9.562 -0.6221  0.2296 -0.1720
   42CHL1   H1A 5559   3.567   3.520   9.527 -1.0286 -4.2830  0.0503
   42CHL1   H1B 5560   3.710   3.417   9.532  0.8578  1.0322 -1.0774
   42CHL1    C2 5561   3.664   3.519   9.721 -0.1199 -0.3809 -0.0133
   42CHL1   H2A 5562   3.587   3.442   9.742 -0.9521  1.0671  2.7366
   42CHL1   H2B 5563   3.638   3.623   9.753  1.7188  0.5377 -1.2932
   42CHL1   C20 5564   3.785   3.737   8.813  0.3734 -0.4247 -0.1090
   42CHL1   H20 5565   3.803   3.847   8.810 -1.6355  0.1034  3.0239
   42CHL1   C21 5566   3.629   3.732   8.826  0.3719 -0.0764 -0.2761
   42CHL1  H21A 5567   3.596   3.786   8.917 -1.0380 -3.0596  1.1255
   42CHL1  H21B 5568   3.595   3.627   8.839  0.8723 -0.2402 -0.2895
   42CHL1  H21C 5569   3.588   3.770   8.730  0.7940  0.3909 -0.2742
   42CHL1   C22 5570   3.821   3.689   8.671  0.2023  0.0549 -0.1896
   42CHL1  H22A 5571   3.752   3.742   8.604  0.8339  0.4400 -0.5431
   42CHL1  H22B 5572   3.927   3.706   8.640 -0.5479  0.6918 -2.5467
   42CHL1   C23 5573   3.804   3.531   8.659  0.3136 -0.9772 -0.0644
   42CHL1  H23A 5574   3.879   3.478   8.723 -1.6038 -3.8096  0.0267
   42CHL1  H23B 5575   3.699   3.504   8.684 -1.1012  2.2369 -1.8754
   42CHL1   C24 5576   3.825   3.471   8.518 -0.0884  1.0018  0.6058
   42CHL1  H24A 5577   3.742   3.516   8.460 -0.2510  2.8268  2.1679
   42CHL1  H24B 5578   3.920   3.510   8.475  0.1713 -1.0855 -0.8537
   42CHL1   C25 5579   3.821   3.324   8.506  0.2958 -0.7531  0.1348
   42CHL1   H25 5580   3.721   3.305   8.550 -0.1337  2.9636  1.0924
   42CHL1   C26 5581   3.817   3.281   8.355 -0.0150  0.3051  0.1168
   42CHL1  H26A 5582   3.915   3.298   8.305  0.5276 -2.0206  0.2555
   42CHL1  H26B 5583   3.793   3.173   8.342  1.1986  0.0284  0.0401
   42CHL1  H26C 5584   3.753   3.347   8.293 -1.5533 -0.3098  0.9994
   42CHL1   C27 5585   3.930   3.248   8.582 -0.4981 -0.1899 -0.7473
   42CHL1  H27A 5586   3.905   3.139   8.577  2.2980 -0.9033 -0.4842
   42CHL1  H27B 5587   4.028   3.248   8.530  0.1128 -0.6607  0.3683
   42CHL1  H27C 5588   3.935   3.284   8.687 -1.3505  1.0064 -1.0910
   43CHL1    C3 5589   4.662   3.530   9.978 -0.0949  0.3215  0.6435
   43CHL1    H3 5590   4.764   3.575   9.975  0.9126 -1.5230  3.2153
   43CHL1    O3 5591   4.637   3.492  10.112  0.0213  0.3926 -0.0737
   43CHL1   H3' 5592   4.546   3.518  10.132 -0.7741 -1.9108 -0.3660
   43CHL1    C4 5593   4.550   3.617   9.912 -0.5833  0.3988 -0.0671
   43CHL1   H4A 5594   4.446   3.584   9.930  0.3576 -2.2345  1.0538
   43CHL1   H4B 5595   4.566   3.715   9.963  0.2605 -0.1706  0.8052
   43CHL1    C5 5596   4.558   3.639   9.763  0.5351  0.2438  0.1803
   43CHL1    C6 5597   4.557   3.767   9.717 -1.3682 -0.6109 -0.0430
   43CHL1    H6 5598   4.557   3.850   9.789 -0.5143 -1.8599  1.4597
   43CHL1    C7 5599   4.571   3.812   9.573  0.1094 -0.9312 -0.0535
   43CHL1   H7A 5600   4.489   3.885   9.557  0.9399 -0.3869 -2.1293
   43CHL1   H7B 5601   4.671   3.858   9.556  0.5488 -2.3478 -1.5014
   43CHL1    C8 5602   4.538   3.688   9.487 -0.5038 -0.3835  0.5759
   43CHL1    H8 5603   4.428   3.674   9.481 -0.3024 -1.4637 -3.3725
   43CHL1   C14 5604   4.575   3.713   9.339 -0.4308  0.3472 -0.3319
   43CHL1   H14 5605   4.685   3.725   9.346 -0.4210  1.3226 -1.8913
   43CHL1   C15 5606   4.527   3.846   9.279  0.8988  0.4745 -0.6345
   43CHL1  H15A 5607   4.417   3.846   9.293  1.1001  1.3685  1.3633
   43CHL1  H15B 5608   4.575   3.939   9.319  0.3237 -0.5437  2.7776
   43CHL1   C16 5609   4.551   3.821   9.130  0.1369 -0.5425  0.6399
   43CHL1  H16A 5610   4.458   3.827   9.071  1.0371  1.6795 -0.6681
   43CHL1  H16B 5611   4.628   3.887   9.083  0.1224 -1.8726 -1.3562
   43CHL1   C17 5612   4.612   3.682   9.124  0.1275  0.5619  0.2658
   43CHL1   H17 5613   4.717   3.705   9.152 -0.2895  0.0106  2.4850
   43CHL1   C13 5614   4.550   3.599   9.239 -0.3282  0.2414 -0.2724
   43CHL1   C18 5615   4.397   3.576   9.221  0.0453  0.0298  0.2249
   43CHL1  H18A 5616   4.390   3.503   9.137  0.2404  2.9412 -2.5420
   43CHL1  H18B 5617   4.338   3.551   9.311 -1.2445 -0.1739 -0.6468
   43CHL1  H18C 5618   4.357   3.670   9.177  0.1649  0.5948  1.3019
   43CHL1   C12 5619   4.624   3.469   9.283 -0.2016 -0.9469  0.4743
   43CHL1  H12A 5620   4.597   3.384   9.216  1.0237 -2.2228  1.5580
   43CHL1  H12B 5621   4.730   3.500   9.286 -0.4641  0.2324 -0.7683
   43CHL1   C11 5622   4.585   3.433   9.423 -0.3216  0.5052 -0.8725
   43CHL1  H11A 5623   4.478   3.407   9.441  0.6184 -3.9403 -0.6798
   43CHL1  H11B 5624   4.643   3.347   9.463  0.2754  2.1341  2.0604
   43CHL1    C9 5625   4.609   3.555   9.531 -0.5836  0.5437  0.0058
   43CHL1    H9 5626   4.717   3.579   9.525  0.0420 -2.1312 -1.1030
   43CHL1   C10 5627   4.578   3.513   9.681  0.9587 -0.5635  0.4713
   43CHL1   C19 5628   4.445   3.435   9.689  0.4290 -0.1176  0.3260
   43CHL1  H19A 5629   4.379   3.473   9.608  0.7334 -3.5791 -1.7658
   43CHL1  H19B 5630   4.453   3.327   9.667 -1.8013 -0.0383 -1.2174
   43CHL1  H19C 5631   4.388   3.444   9.783 -0.2390  0.4146 -0.1174
   43CHL1    C1 5632   4.690   3.435   9.748  0.0823 -0.5684  0.6244
   43CHL1   H1A 5633   4.697   3.336   9.699  0.2372  0.2614 -1.1103
   43CHL1   H1B 5634   4.789   3.481   9.726 -0.0310 -0.6229 -0.0322
   43CHL1    C2 5635   4.677   3.406   9.893  0.1934  0.5897 -0.1321
   43CHL1   H2A 5636   4.766   3.350   9.931  0.1619  0.6724  0.0673
   43CHL1   H2B 5637   4.593   3.337   9.913 -0.0286  0.7322 -0.5605
   43CHL1   C20 5638   4.628   3.621   8.982 -0.3359 -0.0876 -0.1615
   43CHL1   H20 5639   4.639   3.512   9.003  1.3657  0.5484  2.9400
   43CHL1   C21 5640   4.760   3.674   8.916 -0.5477 -0.5324  0.8978
   43CHL1  H21A 5641   4.844   3.659   8.986 -0.4920 -0.6800  0.8006
   43CHL1  H21B 5642   4.759   3.781   8.888  0.3313 -0.2217  1.9898
   43CHL1  H21C 5643   4.783   3.618   8.823  1.9801 -0.7983  1.6144
   43CHL1   C22 5644   4.512   3.641   8.878 -0.1716  0.0638 -0.0717
   43CHL1  H22A 5645   4.414   3.617   8.923 -1.3411  0.6116 -2.1989
   43CHL1  H22B 5646   4.508   3.746   8.843  1.3928  0.4140  0.6727
   43CHL1   C23 5647   4.523   3.549   8.759 -1.0462  0.0541 -0.7501
   43CHL1  H23A 5648   4.606   3.590   8.699  0.2710  0.1299  1.0279
   43CHL1  H23B 5649   4.534   3.440   8.779  0.7502  0.3762  0.2691
   43CHL1   C24 5650   4.396   3.565   8.675  0.3413 -0.5625  0.5414
   43CHL1  H24A 5651   4.315   3.522   8.737  0.1793  2.6576  2.7639
   43CHL1  H24B 5652   4.372   3.673   8.673  1.2448 -0.3449  0.9387
   43CHL1   C25 5653   4.393   3.492   8.540  0.0162 -0.3343 -0.5385
   43CHL1   H25 5654   4.416   3.386   8.561  0.9049  0.0361  0.4397
   43CHL1   C26 5655   4.250   3.497   8.481  0.1066  0.0803  0.0356
   43CHL1  H26A 5656   4.225   3.605   8.470 -1.3813 -0.1498  0.9140
   43CHL1  H26B 5657   4.247   3.452   8.380 -0.5080 -0.8520  0.4564
   43CHL1  H26C 5658   4.181   3.451   8.555 -0.9454  0.3440 -0.7604
   43CHL1   C27 5659   4.489   3.553   8.433 -0.4238  0.0462  0.3774
   43CHL1  H27A 5660   4.593   3.527   8.462 -0.5464  0.0110  0.7889
   43CHL1  H27B 5661   4.469   3.515   8.331 -4.3983 -1.4925  1.5596
   43CHL1  H27C 5662   4.472   3.663   8.426  0.0225  0.0401 -1.3340
   44CHL1    C3 5663   4.785   4.039  10.226  0.3206 -0.5124 -0.3245
   44CHL1    H3 5664   4.844   3.951  10.191 -0.3816 -1.2261  0.2185
   44CHL1    O3 5665   4.757   4.041  10.369  0.1348  0.0124 -0.4475
   44CHL1   H3' 5666   4.751   3.950  10.397  0.8482  0.0652 -0.1080
   44CHL1    C4 5667   4.873   4.163  10.199  0.0821 -0.6097 -0.1002
   44CHL1   H4A 5668   4.829   4.253  10.246  1.3935  0.7711 -1.3994
   44CHL1   H4B 5669   4.963   4.142  10.261 -1.0336 -3.6891  0.6504
   44CHL1    C5 5670   4.894   4.186  10.052  0.3977  0.3853 -0.4374
   44CHL1    C6 5671   5.015   4.200  10.000 -0.8755 -0.3507 -0.4178
   44CHL1    H6 5672   5.107   4.206  10.061 -0.3842 -0.4908 -1.1398
   44CHL1    C7 5673   5.050   4.224   9.853  0.1480 -0.0530  0.3954
   44CHL1   H7A 5674   5.133   4.297   9.841 -0.0089  0.1234  0.3755
   44CHL1   H7B 5675   5.088   4.127   9.814  0.6611  0.7673 -1.2329
   44CHL1    C8 5676   4.930   4.250   9.762 -0.0921 -0.5691 -0.2250
   44CHL1    H8 5677   4.899   4.355   9.779  0.4403 -0.3172 -0.7888
   44CHL1   C14 5678   4.965   4.234   9.612  0.4417  0.4125 -0.0560
   44CHL1   H14 5679   5.005   4.130   9.605 -1.6250 -0.4773  0.7083
   44CHL1   C15 5680   5.071   4.326   9.548  0.0186  0.1773  0.6434
   44CHL1  H15A 5681   5.053   4.429   9.583 -1.3840  0.1699  0.0067
   44CHL1  H15B 5682   5.173   4.287   9.566  1.0644  0.4577 -3.5814
   44CHL1   C16 5683   5.041   4.319   9.394 -0.0869 -0.5918 -0.5931
   44CHL1  H16A 5684   5.017   4.424   9.367 -1.6801 -0.5740  0.7325
   44CHL1  H16B 5685   5.134   4.298   9.336 -0.9453  1.4940 -2.9005
   44CHL1   C17 5686   4.909   4.241   9.385 -0.5125  0.5934  0.2055
   44CHL1   H17 5687   4.948   4.137   9.379 -1.4725  0.2985 -2.0800
   44CHL1   C13 5688   4.847   4.254   9.522 -0.2683  0.4723 -0.3172
   44CHL1   C18 5689   4.786   4.400   9.527  0.3743  0.0068 -0.0545
   44CHL1  H18A 5690   4.775   4.425   9.635  2.2384 -2.2946  0.7650
   44CHL1  H18B 5691   4.850   4.476   9.477  0.7386 -1.0666 -1.3020
   44CHL1  H18C 5692   4.695   4.405   9.463  1.6832  0.6557 -1.9627
   44CHL1   C12 5693   4.741   4.145   9.562  0.5853 -0.1272 -0.0058
   44CHL1  H12A 5694   4.647   4.172   9.508  0.3476  4.2075  2.1086
   44CHL1  H12B 5695   4.787   4.048   9.532  3.2902  1.5078 -1.5898
   44CHL1   C11 5696   4.698   4.159   9.710  0.6364  0.3753 -0.3431
   44CHL1  H11A 5697   4.642   4.252   9.733  0.6998 -0.2686  2.8271
   44CHL1  H11B 5698   4.625   4.081   9.739 -0.4642  1.2622 -0.6613
   44CHL1    C9 5699   4.812   4.161   9.811  0.0143 -0.3919  0.0280
   44CHL1    H9 5700   4.852   4.058   9.800  1.1240 -0.0160  0.3879
   44CHL1   C10 5701   4.771   4.183   9.966 -0.7983  0.0347 -0.4733
   44CHL1   C19 5702   4.687   4.316   9.980  0.1966  0.5730  1.0282
   44CHL1  H19A 5703   4.678   4.350  10.085  1.4992  1.5508  0.8433
   44CHL1  H19B 5704   4.726   4.400   9.919 -0.1862  1.3741  1.8689
   44CHL1  H19C 5705   4.586   4.308   9.934 -0.0138  2.3171  1.1201
   44CHL1    C1 5706   4.683   4.060  10.003 -0.2463  0.2163  0.5334
   44CHL1   H1A 5707   4.590   4.073   9.944 -0.5101 -2.4636  0.2070
   44CHL1   H1B 5708   4.734   3.969   9.966 -0.4767  0.5870 -0.7317
   44CHL1    C2 5709   4.654   4.039  10.151 -0.0313  0.2766  0.1832
   44CHL1   H2A 5710   4.603   3.940  10.160  0.3621  0.1153  0.6423
   44CHL1   H2B 5711   4.574   4.112  10.176  0.0392 -0.0261  1.3455
   44CHL1   C20 5712   4.830   4.270   9.251  0.2241 -0.4677 -0.2502
   44CHL1   H20 5713   4.790   4.373   9.254 -2.0652 -1.3294  0.1740
   44CHL1   C21 5714   4.729   4.159   9.234  0.1351  0.5562 -0.0799
   44CHL1  H21A 5715   4.756   4.058   9.271  0.5025  1.1002  1.1704
   44CHL1  H21B 5716   4.696   4.151   9.128  0.3781 -1.3639 -0.0432
   44CHL1  H21C 5717   4.641   4.181   9.299  0.4596 -1.3506  1.0803
   44CHL1   C22 5718   4.920   4.281   9.130  0.3223 -0.4194  0.1476
   44CHL1  H22A 5719   4.851   4.298   9.044 -0.8822 -2.2500  0.7156
   44CHL1  H22B 5720   4.993   4.366   9.131  0.8917 -0.7705 -2.5671
   44CHL1   C23 5721   5.007   4.159   9.099  0.0049  0.2851  0.1503
   44CHL1  H23A 5722   5.069   4.141   9.190 -1.0888 -1.3486  0.6248
   44CHL1  H23B 5723   4.933   4.078   9.082 -1.7368  1.7707  0.4816
   44CHL1   C24 5724   5.100   4.187   8.980  0.0883  0.4444 -0.3791
   44CHL1  H24A 5725   5.153   4.282   9.000  2.4119 -0.9178  0.3247
   44CHL1  H24B 5726   5.179   4.111   8.961 -1.4561 -1.4829  0.5434
   44CHL1   C25 5727   5.033   4.204   8.841  0.7613  0.7611  0.1124
   44CHL1   H25 5728   4.966   4.293   8.848  0.0010  0.1782  0.4620
   44CHL1   C26 5729   5.137   4.228   8.729 -0.1642  0.1897  0.4074
   44CHL1  H26A 5730   5.210   4.147   8.705  1.4250  1.7291 -0.1816
   44CHL1  H26B 5731   5.082   4.257   8.637  0.6749 -0.8121 -0.4344
   44CHL1  H26C 5732   5.203   4.313   8.755 -1.6356  1.3577  0.4485
   44CHL1   C27 5733   4.950   4.078   8.807 -0.1132 -0.4479 -0.4499
   44CHL1  H27A 5734   5.014   3.990   8.780  1.0229  0.2003  0.0586
   44CHL1  H27B 5735   4.886   4.046   8.891  0.1134 -1.1953 -0.5505
   44CHL1  H27C 5736   4.882   4.104   8.723 -1.6809 -2.9536 -0.0483
   45CHL1    C3 5737   1.451   2.683  10.295  0.8278  0.9153 -0.2298
   45CHL1    H3 5738   1.541   2.676  10.360 -0.6120 -5.2739  1.7415
   45CHL1    O3 5739   1.340   2.683  10.390 -0.6256  0.1041  0.0338
   45CHL1   H3' 5740   1.265   2.725  10.347 -0.5134 -0.5804 -0.8479
   45CHL1    C4 5741   1.457   2.821  10.220 -0.5516  0.7301  0.5895
   45CHL1   H4A 5742   1.355   2.849  10.186 -1.1036 -1.2833  0.4554
   45CHL1   H4B 5743   1.488   2.886  10.305  2.0307  2.2098 -1.2942
   45CHL1    C5 5744   1.550   2.826  10.096 -0.2518  0.0563 -0.0363
   45CHL1    C6 5745   1.652   2.915  10.088  0.3615  0.2502  0.0333
   45CHL1    H6 5746   1.660   2.993  10.165 -1.8776 -0.1818  0.7951
   45CHL1    C7 5747   1.745   2.925   9.971  0.2267  0.3780  1.3265
   45CHL1   H7A 5748   1.723   3.026   9.931 -2.1372 -0.1555  1.1023
   45CHL1   H7B 5749   1.852   2.925  10.001  0.5235 -1.4879  0.4168
   45CHL1    C8 5750   1.717   2.818   9.858 -0.2026 -0.7006 -0.3171
   45CHL1    H8 5751   1.819   2.806   9.816  0.1867 -2.6449  1.0734
   45CHL1   C14 5752   1.651   2.871   9.728 -0.1860 -0.2612  0.7922
   45CHL1   H14 5753   1.552   2.913   9.755 -1.2476  0.3298 -3.2856
   45CHL1   C15 5754   1.740   2.980   9.661  0.3996  0.0831  1.2787
   45CHL1  H15A 5755   1.681   3.049   9.598  2.3052  0.9791  0.3929
   45CHL1  H15B 5756   1.793   3.042   9.737 -1.8615  0.4134  2.6826
   45CHL1   C16 5757   1.836   2.908   9.560 -0.3923 -0.3029  0.2374
   45CHL1  H16A 5758   1.852   2.980   9.478  1.2478 -0.8362  0.0646
   45CHL1  H16B 5759   1.940   2.896   9.598 -0.3643 -0.8739 -0.0040
   45CHL1   C17 5760   1.782   2.762   9.546  0.2546 -0.6434 -0.2759
   45CHL1   H17 5761   1.833   2.705   9.626 -1.2052  0.4816  1.5365
   45CHL1   C13 5762   1.635   2.769   9.611 -0.1017  0.2245  0.1542
   45CHL1   C18 5763   1.529   2.828   9.513 -0.4482  0.3199  0.2710
   45CHL1  H18A 5764   1.457   2.883   9.577 -0.0371  1.4714 -0.2158
   45CHL1  H18B 5765   1.560   2.905   9.439  0.5719 -0.5390 -0.2147
   45CHL1  H18C 5766   1.476   2.746   9.461 -0.2053 -0.6294  1.4880
   45CHL1   C12 5767   1.586   2.627   9.668  0.8830 -0.3419 -0.0387
   45CHL1  H12A 5768   1.475   2.632   9.677  0.6833 -0.7290 -1.9013
   45CHL1  H12B 5769   1.600   2.548   9.591 -2.2723 -0.3450 -0.7366
   45CHL1   C11 5770   1.665   2.589   9.800  0.3501 -0.3853  0.0522
   45CHL1  H11A 5771   1.618   2.494   9.834 -0.0105  0.3204  1.5656
   45CHL1  H11B 5772   1.769   2.559   9.775  1.3157  2.4249  0.3735
   45CHL1    C9 5773   1.666   2.690   9.909 -0.0591  0.5066  0.0053
   45CHL1    H9 5774   1.748   2.660   9.979  0.0877  0.4388 -0.1940
   45CHL1   C10 5775   1.539   2.701  10.007 -0.8229  0.1314 -0.0071
   45CHL1   C19 5776   1.411   2.693   9.929  0.4331  0.1989  0.0427
   45CHL1  H19A 5777   1.330   2.730   9.995 -0.4197  2.0917 -1.9404
   45CHL1  H19B 5778   1.407   2.769   9.848  0.1056  0.5406  0.3778
   45CHL1  H19C 5779   1.391   2.589   9.896  1.2124  0.7683 -2.4086
   45CHL1    C1 5780   1.555   2.577  10.105  0.1783 -0.4490 -0.2095
   45CHL1   H1A 5781   1.549   2.484  10.044 -0.6953 -2.3140  2.5474
   45CHL1   H1B 5782   1.657   2.581  10.149  0.7898 -2.4628 -1.3198
   45CHL1    C2 5783   1.443   2.569  10.202  0.1797  0.5600 -0.0164
   45CHL1   H2A 5784   1.442   2.473  10.258 -0.8084  0.9828  0.7398
   45CHL1   H2B 5785   1.345   2.577  10.152 -1.1545  0.1086  2.3643
   45CHL1   C20 5786   1.803   2.696   9.416 -0.0669 -0.8281 -0.9551
   45CHL1   H20 5787   1.700   2.679   9.376 -0.4711  1.3017 -0.9588
   45CHL1   C21 5788   1.846   2.551   9.444 -0.1790 -0.6994  0.3101
   45CHL1  H21A 5789   1.840   2.488   9.353  3.1433 -1.9472  0.8097
   45CHL1  H21B 5790   1.779   2.524   9.528 -0.3414  2.6499  1.4351
   45CHL1  H21C 5791   1.953   2.549   9.473 -0.2520 -0.0765  0.6427
   45CHL1   C22 5792   1.890   2.761   9.301 -0.9612 -0.0317 -0.3363
   45CHL1  H22A 5793   1.982   2.808   9.343 -0.1975  0.4780 -2.4744
   45CHL1  H22B 5794   1.922   2.681   9.231 -0.2473  0.2373 -0.3272
   45CHL1   C23 5795   1.809   2.861   9.215  0.1706  0.4903  0.2386
   45CHL1  H23A 5796   1.706   2.820   9.205 -0.0078  1.0663 -0.3307
   45CHL1  H23B 5797   1.795   2.953   9.276 -1.5370  0.1620  0.4158
   45CHL1   C24 5798   1.875   2.885   9.076 -0.5801  0.0764  0.1585
   45CHL1  H24A 5799   1.982   2.917   9.081 -0.8322  1.8389 -2.7364
   45CHL1  H24B 5800   1.885   2.788   9.024 -0.4676  1.5555 -2.8144
   45CHL1   C25 5801   1.815   2.996   8.990  0.1673  0.2729  0.1428
   45CHL1   H25 5802   1.815   3.093   9.045 -0.9674 -1.3120  3.1916
   45CHL1   C26 5803   1.900   3.019   8.860  0.7097  0.1597  0.4145
   45CHL1  H26A 5804   1.923   2.925   8.806  1.4283  2.3026 -3.3088
   45CHL1  H26B 5805   1.860   3.095   8.790  2.5427 -0.9672 -1.9671
   45CHL1  H26C 5806   2.003   3.055   8.879  2.6823 -4.0379 -1.1051
   45CHL1   C27 5807   1.671   2.974   8.939 -0.2890 -0.1527 -0.1924
   45CHL1  H27A 5808   1.623   3.049   8.873  0.9578  0.3578 -0.5276
   45CHL1  H27B 5809   1.677   2.884   8.874  0.9437  0.1010 -0.4531
   45CHL1  H27C 5810   1.601   2.952   9.023 -4.1811  0.9143 -2.8777
   46CHL1    C3 5811   4.741   0.125  10.060 -0.6349  0.5657  0.2574
   46CHL1    H3 5812   4.822   0.068  10.010 -2.7702 -2.1253 -0.4083
   46CHL1    O3 5813   4.772   0.149  10.202  0.5302 -0.3950  0.8426
   46CHL1   H3' 5814   4.781   0.061  10.239  2.0015 -1.1029 -1.0046
   46CHL1    C4 5815   4.743   0.262   9.990  0.5470  0.2927  0.2656
   46CHL1   H4A 5816   4.658   0.317  10.035  0.7979  1.6812 -0.9062
   46CHL1   H4B 5817   4.837   0.316  10.014 -1.1176  2.8544  1.4028
   46CHL1    C5 5818   4.721   0.260   9.837  0.6285 -0.2193 -0.6857
   46CHL1    C6 5819   4.812   0.305   9.755  0.1754  0.0948 -0.5625
   46CHL1    H6 5820   4.902   0.358   9.790 -0.1136  1.1891 -1.4034
   46CHL1    C7 5821   4.811   0.288   9.606 -0.2636  0.0958 -0.2513
   46CHL1   H7A 5822   4.824   0.383   9.550 -1.7324  1.0651  0.9716
   46CHL1   H7B 5823   4.894   0.222   9.575 -0.6850  0.6892 -2.9739
   46CHL1    C8 5824   4.683   0.215   9.551 -0.9403 -0.1819 -0.0835
   46CHL1    H8 5825   4.609   0.295   9.533  0.4998  0.8730 -1.5230
   46CHL1   C14 5826   4.726   0.143   9.430 -0.4969  0.2178  0.1778
   46CHL1   H14 5827   4.797   0.065   9.465 -0.9381  0.3304  1.3663
   46CHL1   C15 5828   4.804   0.213   9.318 -0.5435 -0.6331 -0.8762
   46CHL1  H15A 5829   4.756   0.313   9.308 -1.2092 -0.9027 -0.4491
   46CHL1  H15B 5830   4.913   0.221   9.338 -0.1182 -2.7696 -2.0100
   46CHL1   C16 5831   4.786   0.125   9.193  0.5093  0.1990  0.4558
   46CHL1  H16A 5832   4.745   0.187   9.111 -0.6738 -0.3303  0.6294
   46CHL1  H16B 5833   4.883   0.077   9.166 -0.2602 -0.3945 -1.4048
   46CHL1   C17 5834   4.678   0.016   9.231  0.8343 -0.5629 -0.8264
   46CHL1   H17 5835   4.731  -0.078   9.255  2.2350 -0.0836 -1.8847
   46CHL1   C13 5836   4.607   0.078   9.356  0.0477 -0.1937  0.1897
   46CHL1   C18 5837   4.501   0.188   9.320  0.7700 -0.6541 -0.3407
   46CHL1  H18A 5838   4.447   0.213   9.414  0.7276 -0.8390 -0.3167
   46CHL1  H18B 5839   4.546   0.269   9.259 -0.8385 -0.7189 -1.6740
   46CHL1  H18C 5840   4.411   0.148   9.269 -0.6830  1.5914  0.3030
   46CHL1   C12 5841   4.549  -0.028   9.456  0.3094  0.3062 -0.4401
   46CHL1  H12A 5842   4.454  -0.075   9.423  0.7560 -0.8699 -0.0932
   46CHL1  H12B 5843   4.622  -0.111   9.466 -1.6558 -1.4082  0.4185
   46CHL1   C11 5844   4.507   0.030   9.593  0.7589 -0.0042  0.1069
   46CHL1  H11A 5845   4.413   0.089   9.589  0.5420 -0.2538  1.1570
   46CHL1  H11B 5846   4.491  -0.056   9.660 -0.1673 -0.4609 -0.6896
   46CHL1    C9 5847   4.626   0.110   9.647  0.2266  0.0171 -0.4961
   46CHL1    H9 5848   4.707   0.036   9.670 -1.3941 -1.3308  1.2322
   46CHL1   C10 5849   4.603   0.172   9.795  0.6889  0.1369 -0.0494
   46CHL1   C19 5850   4.475   0.265   9.805 -0.0320  0.6213 -0.3095
   46CHL1  H19A 5851   4.469   0.341   9.725 -1.1814 -1.1300 -1.9543
   46CHL1  H19B 5852   4.378   0.210   9.808 -0.2583  0.8228  4.7236
   46CHL1  H19C 5853   4.477   0.316   9.904 -1.0495 -1.0958  0.6511
   46CHL1    C1 5854   4.587   0.038   9.884  0.5864  0.2316 -1.2618
   46CHL1   H1A 5855   4.478   0.019   9.873  0.2849  1.3275 -0.3801
   46CHL1   H1B 5856   4.644  -0.053   9.858 -1.5584 -1.2477 -1.0644
   46CHL1    C2 5857   4.604   0.053  10.039 -0.3986  0.3758 -0.1488
   46CHL1   H2A 5858   4.608  -0.052  10.077  1.8311 -0.2224 -1.8266
   46CHL1   H2B 5859   4.521   0.118  10.075  0.4372  2.7648 -2.2315
   46CHL1   C20 5860   4.591  -0.027   9.103 -1.0022  0.0115  0.4433
   46CHL1   H20 5861   4.530   0.056   9.060 -0.1510  0.1193 -0.6090
   46CHL1   C21 5862   4.488  -0.124   9.153  0.1098 -0.1524  0.4080
   46CHL1  H21A 5863   4.404  -0.078   9.209 -1.5871 -4.1667  1.4751
   46CHL1  H21B 5864   4.532  -0.201   9.220  0.1873 -0.8508 -0.4259
   46CHL1  H21C 5865   4.450  -0.169   9.059 -0.8123 -1.3009  1.3162
   46CHL1   C22 5866   4.678  -0.096   8.998  0.0651 -1.0471  0.7632
   46CHL1  H22A 5867   4.762  -0.028   8.974  0.7948 -1.2544  2.5537
   46CHL1  H22B 5868   4.716  -0.194   9.032  2.3193  0.0842  1.6919
   46CHL1   C23 5869   4.611  -0.123   8.864 -0.1007 -1.0712 -0.0506
   46CHL1  H23A 5870   4.513  -0.175   8.878 -1.1593  0.5430 -1.1903
   46CHL1  H23B 5871   4.593  -0.033   8.802 -0.6596 -0.7710  0.5337
   46CHL1   C24 5872   4.706  -0.196   8.768 -0.1281  0.2521  0.0112
   46CHL1  H24A 5873   4.795  -0.132   8.779  2.2956 -2.8797  0.0970
   46CHL1  H24B 5874   4.734  -0.296   8.807  0.7101  0.1104 -0.9280
   46CHL1   C25 5875   4.651  -0.207   8.622 -0.2597 -0.0973  0.8463
   46CHL1   H25 5876   4.552  -0.257   8.630  0.6015 -1.6683  2.1655
   46CHL1   C26 5877   4.640  -0.082   8.536  0.6721  0.0369  0.1190
   46CHL1  H26A 5878   4.565  -0.012   8.579  0.2011  0.0043 -0.6317
   46CHL1  H26B 5879   4.739  -0.032   8.525  0.9646  0.5063  3.7447
   46CHL1  H26C 5880   4.594  -0.110   8.438  1.2031  1.0170 -0.4259
   46CHL1   C27 5881   4.747  -0.296   8.530  1.2263  0.3882 -0.3722
   46CHL1  H27A 5882   4.837  -0.243   8.493  0.5355  2.9624  1.3815
   46CHL1  H27B 5883   4.785  -0.382   8.590  0.0135  2.0037  2.9660
   46CHL1  H27C 5884   4.697  -0.319   8.434  2.3770  1.9681 -1.4019
   47CHL1    C3 5885   5.198   3.623  10.061  0.0071  0.7414 -0.1043
   47CHL1    H3 5886   5.303   3.610  10.030  0.2211 -3.2387  1.6824
   47CHL1    O3 5887   5.203   3.604  10.203 -0.1035  0.0721 -0.2766
   47CHL1   H3' 5888   5.116   3.570  10.226  0.9232 -2.4933  0.1163
   47CHL1    C4 5889   5.139   3.763  10.027 -0.1455  0.3783  0.3314
   47CHL1   H4A 5890   5.033   3.772  10.056 -0.6263 -2.7796 -0.1130
   47CHL1   H4B 5891   5.188   3.839  10.092 -0.0013  0.3932  0.2064
   47CHL1    C5 5892   5.144   3.791   9.878  0.1250 -0.4895 -0.1535
   47CHL1    C6 5893   5.222   3.888   9.825 -0.3765  0.0121 -0.2995
   47CHL1    H6 5894   5.290   3.946   9.889 -1.7122  1.1845  0.1115
   47CHL1    C7 5895   5.248   3.916   9.683 -0.4582 -0.1380  0.0950
   47CHL1   H7A 5896   5.243   4.023   9.654 -0.5159 -0.4155 -0.9696
   47CHL1   H7B 5897   5.349   3.877   9.658  0.6824  2.5914  0.1806
   47CHL1    C8 5898   5.147   3.833   9.594 -0.0572 -0.1385 -0.3295
   47CHL1    H8 5899   5.059   3.898   9.573 -0.3141 -1.0129 -2.2155
   47CHL1   C14 5900   5.206   3.822   9.452  0.5067  0.1797  0.3311
   47CHL1   H14 5901   5.297   3.758   9.462 -1.2134 -2.7173 -1.1375
   47CHL1   C15 5902   5.244   3.948   9.380 -0.5804  0.5319 -0.0559
   47CHL1  H15A 5903   5.164   4.018   9.413  0.0304  0.4936  1.6421
   47CHL1  H15B 5904   5.344   3.985   9.412 -0.2935  1.3799 -1.8138
   47CHL1   C16 5905   5.253   3.906   9.234 -0.1005  0.3134 -0.2663
   47CHL1  H16A 5906   5.203   3.983   9.171  1.2753  0.6760 -0.9817
   47CHL1  H16B 5907   5.360   3.904   9.201  0.8536 -0.3399  2.5600
   47CHL1   C17 5908   5.202   3.765   9.227 -0.1686  0.5243 -0.2654
   47CHL1   H17 5909   5.294   3.705   9.241 -1.0109 -0.5946  0.7382
   47CHL1   C13 5910   5.119   3.748   9.356  0.7465 -0.4403 -0.3180
   47CHL1   C18 5911   4.981   3.826   9.341 -0.2539 -0.1354 -1.0239
   47CHL1  H18A 5912   4.913   3.753   9.291  2.7331 -1.9483 -2.7809
   47CHL1  H18B 5913   4.925   3.846   9.435  0.8415  0.0606 -0.4027
   47CHL1  H18C 5914   4.986   3.914   9.273  2.0432 -0.1554 -0.9500
   47CHL1   C12 5915   5.087   3.604   9.407 -0.5206  0.3527 -0.0235
   47CHL1  H12A 5916   5.019   3.555   9.333  1.2933 -0.9949 -0.8949
   47CHL1  H12B 5917   5.184   3.550   9.400  0.1784  1.6451 -0.7826
   47CHL1   C11 5918   5.027   3.608   9.547  0.1023 -0.4846  0.2409
   47CHL1  H11A 5919   4.925   3.653   9.544  0.1594 -0.3951 -1.0401
   47CHL1  H11B 5920   5.016   3.505   9.586 -0.5910 -0.4696  0.1024
   47CHL1    C9 5921   5.117   3.694   9.645 -0.2346 -0.6432 -0.7040
   47CHL1    H9 5922   5.219   3.650   9.646  0.8437  1.6779  1.1162
   47CHL1   C10 5923   5.067   3.688   9.795  0.2256  0.4364  0.9465
   47CHL1   C19 5924   4.921   3.738   9.800 -0.0794 -0.0795  1.0234
   47CHL1  H19A 5925   4.880   3.732   9.903  1.1591 -0.1318  1.5360
   47CHL1  H19B 5926   4.914   3.844   9.767 -2.2897 -1.4143 -3.8807
   47CHL1  H19C 5927   4.854   3.683   9.730  0.2487  2.9793 -1.9670
   47CHL1    C1 5928   5.076   3.547   9.845  0.4927  0.0290 -1.0256
   47CHL1   H1A 5929   4.983   3.492   9.822  0.4174 -1.3142  2.0556
   47CHL1   H1B 5930   5.167   3.502   9.798  0.2128 -1.2056 -0.4274
   47CHL1    C2 5931   5.094   3.526  10.004  0.2347  0.0959  0.5772
   47CHL1   H2A 5932   5.109   3.416  10.015 -3.8932 -0.6068  0.7615
   47CHL1   H2B 5933   4.997   3.535  10.056 -0.2062 -0.8840 -0.0455
   47CHL1   C20 5934   5.148   3.725   9.082 -0.1962  0.0818 -0.2577
   47CHL1   H20 5935   5.065   3.797   9.068  1.4836  2.4020  1.0052
   47CHL1   C21 5936   5.081   3.588   9.077 -0.4469 -0.3967 -0.0024
   47CHL1  H21A 5937   5.138   3.518   9.142 -0.1436 -0.0884  0.0666
   47CHL1  H21B 5938   5.078   3.532   8.981 -0.3573 -1.6016  0.6892
   47CHL1  H21C 5939   4.978   3.592   9.118 -0.9259  0.0015 -1.1852
   47CHL1   C22 5940   5.259   3.744   8.970  1.0879  0.7181 -0.6985
   47CHL1  H22A 5941   5.204   3.741   8.873  0.0950  0.3870 -0.1355
   47CHL1  H22B 5942   5.306   3.843   8.986  1.5462  0.2298  1.3185
   47CHL1   C23 5943   5.368   3.631   8.976 -0.3974  0.9482  0.1402
   47CHL1  H23A 5944   5.407   3.633   9.080 -1.3910  0.9240  0.5224
   47CHL1  H23B 5945   5.329   3.529   8.955  2.3507 -0.8166  2.7539
   47CHL1   C24 5946   5.477   3.662   8.873 -0.7970 -0.1836  0.3230
   47CHL1  H24A 5947   5.425   3.691   8.779  0.5665 -1.8746 -1.0142
   47CHL1  H24B 5948   5.536   3.748   8.912 -0.7753  0.1719 -0.4724
   47CHL1   C25 5949   5.568   3.554   8.831  0.6387 -0.4279 -0.3963
   47CHL1   H25 5950   5.510   3.468   8.791  0.8176 -0.3632 -0.8019
   47CHL1   C26 5951   5.669   3.605   8.721 -0.1098 -0.3539  0.5688
   47CHL1  H26A 5952   5.613   3.641   8.632  1.8935 -1.2539 -1.1572
   47CHL1  H26B 5953   5.717   3.513   8.679 -0.3137  0.5534 -1.8280
   47CHL1  H26C 5954   5.736   3.691   8.744  0.0642 -0.1435 -0.6502
   47CHL1   C27 5955   5.653   3.505   8.953 -0.0828 -0.2030 -0.4593
   47CHL1  H27A 5956   5.723   3.425   8.923  1.2511  1.2674 -1.4037
   47CHL1  H27B 5957   5.724   3.582   8.991  0.0625 -0.0179 -1.0946
   47CHL1  H27C 5958   5.584   3.470   9.033  0.5867  0.3933  0.4005
   48CHL1    C3 5959   5.961   4.244  10.098  0.0486  0.5992 -0.4806
   48CHL1    H3 5960   5.853   4.222  10.089  0.0159  1.2667 -1.9053
   48CHL1    O3 5961   5.998   4.208  10.231  0.6632  0.1524  0.6059
   48CHL1   H3' 5962   6.093   4.194  10.222  0.4481 -0.6813 -0.7588
   48CHL1    C4 5963   6.034   4.139  10.009 -0.0395 -0.0483  0.0532
   48CHL1   H4A 5964   6.141   4.148  10.037 -0.5641  0.7954  1.9552
   48CHL1   H4B 5965   5.984   4.045  10.040 -2.0879  0.1905 -2.2372
   48CHL1    C5 5966   6.009   4.170   9.865 -0.3060 -0.3861  1.1783
   48CHL1    C6 5967   5.953   4.082   9.785 -0.1162 -0.3565 -0.1304
   48CHL1    H6 5968   5.919   3.989   9.833 -0.4901 -0.0312  0.2375
   48CHL1    C7 5969   5.926   4.106   9.635 -0.2753  0.3848  0.3854
   48CHL1   H7A 5970   5.952   4.011   9.583 -1.4323  0.2609  0.0102
   48CHL1   H7B 5971   5.818   4.124   9.615  0.1129  0.7564 -1.5298
   48CHL1    C8 5972   6.008   4.224   9.577 -0.5525  0.6893  0.4479
   48CHL1    H8 5973   6.113   4.189   9.575 -0.9105 -0.5691  1.8588
   48CHL1   C14 5974   5.960   4.249   9.436 -0.9757 -0.1101 -0.7530
   48CHL1   H14 5975   5.850   4.267   9.433 -1.1153 -0.9813 -0.9045
   48CHL1   C15 5976   5.975   4.139   9.335 -0.1533  0.1887 -0.0664
   48CHL1  H15A 5977   6.077   4.093   9.340  0.0725  0.6063 -0.7259
   48CHL1  H15B 5978   5.894   4.064   9.327 -0.2537  0.5249 -3.5384
   48CHL1   C16 5979   5.979   4.213   9.197 -0.4517 -0.0611  0.0652
   48CHL1  H16A 5980   6.074   4.181   9.151 -0.4163  2.2672 -1.6938
   48CHL1  H16B 5981   5.894   4.175   9.136  0.3664 -2.4475  0.3238
   48CHL1   C17 5982   5.961   4.366   9.233  0.2952  0.4373 -0.0473
   48CHL1   H17 5983   5.851   4.372   9.246  0.3707  0.8547  0.4463
   48CHL1   C13 5984   6.015   4.384   9.381 -0.4603  0.1887  0.7055
   48CHL1   C18 5985   6.172   4.374   9.375 -0.7409 -0.0504 -0.8775
   48CHL1  H18A 5986   6.202   4.284   9.317  0.3442  0.1266 -0.6080
   48CHL1  H18B 5987   6.211   4.457   9.311 -0.7307  0.6191 -0.0165
   48CHL1  H18C 5988   6.215   4.367   9.477 -1.7418 -1.2645 -0.5120
   48CHL1   C12 5989   5.975   4.506   9.471 -0.2457  0.0614  0.1842
   48CHL1  H12A 5990   5.984   4.608   9.428 -0.9032  0.3731  0.7565
   48CHL1  H12B 5991   5.865   4.499   9.491  0.0946 -0.0592  2.2063
   48CHL1   C11 5992   6.028   4.486   9.616  0.6667  0.0358 -0.1462
   48CHL1  H11A 5993   6.138   4.498   9.623  0.6633 -0.8036  2.5980
   48CHL1  H11B 5994   5.989   4.567   9.681 -1.8915 -0.2408 -1.2105
   48CHL1    C9 5995   5.990   4.342   9.673 -0.1836 -0.7605  0.1484
   48CHL1    H9 5996   5.880   4.349   9.688  0.0607  2.6422  1.1310
   48CHL1   C10 5997   6.048   4.304   9.813  0.2240  0.2200  0.0330
   48CHL1   C19 5998   6.197   4.326   9.825  0.1433 -0.3301 -0.4893
   48CHL1  H19A 5999   6.237   4.290   9.922  0.5936 -0.8431 -0.8617
   48CHL1  H19B 6000   6.252   4.274   9.744 -0.0206  0.5743 -1.2013
   48CHL1  H19C 6001   6.220   4.435   9.818 -0.6322 -0.1614 -0.5853
   48CHL1    C1 6002   5.981   4.406   9.916 -0.4541 -0.5172 -0.1441
   48CHL1   H1A 6003   6.026   4.505   9.891 -2.6764  0.6107  0.1400
   48CHL1   H1B 6004   5.875   4.419   9.888 -0.4458  4.3696  1.1357
   48CHL1    C2 6005   6.009   4.377  10.062 -0.6315 -0.1069  0.2353
   48CHL1   H2A 6006   5.956   4.459  10.115  3.8210  1.5635  2.5981
   48CHL1   H2B 6007   6.116   4.395  10.085 -0.1094 -2.9314  0.3460
   48CHL1   C20 6008   5.994   4.476   9.142  0.9410 -0.0208  0.0309
   48CHL1   H20 6009   6.084   4.537   9.163  0.8064  1.0408 -2.1738
   48CHL1   C21 6010   5.875   4.583   9.147  0.5440 -0.6034 -0.5835
   48CHL1  H21A 6011   5.829   4.598   9.247 -0.4574 -0.6193 -1.0301
   48CHL1  H21B 6012   5.791   4.540   9.088 -0.2524 -0.2599  0.2705
   48CHL1  H21C 6013   5.909   4.679   9.103  2.2662 -0.3577  1.1630
   48CHL1   C22 6014   6.002   4.413   8.997  0.3539  0.2207 -0.2073
   48CHL1  H22A 6015   6.079   4.333   8.995 -0.1988 -0.3137 -2.4205
   48CHL1  H22B 6016   5.905   4.363   8.976  1.6002 -1.5274 -2.1364
   48CHL1   C23 6017   6.040   4.513   8.895 -0.1222 -0.2974  0.2127
   48CHL1  H23A 6018   5.945   4.565   8.868  0.3297 -0.1866 -1.2361
   48CHL1  H23B 6019   6.097   4.598   8.938 -0.1296  0.3695 -1.0327
   48CHL1   C24 6020   6.107   4.451   8.771  0.4801 -0.3873 -0.8684
   48CHL1  H24A 6021   6.202   4.410   8.811 -0.0022 -0.9980 -0.3133
   48CHL1  H24B 6022   6.043   4.371   8.727 -1.4761  1.2672 -1.1838
   48CHL1   C25 6023   6.143   4.568   8.677 -1.0096  0.2375 -0.4387
   48CHL1   H25 6024   6.167   4.648   8.750 -0.6906 -1.1216  0.9927
   48CHL1   C26 6025   6.269   4.549   8.598  0.6398 -0.0733 -0.0613
   48CHL1  H26A 6026   6.344   4.511   8.671 -0.1505 -0.9730  0.2945
   48CHL1  H26B 6027   6.248   4.469   8.524 -2.7792 -0.9400  1.6385
   48CHL1  H26C 6028   6.309   4.645   8.557  0.5570  0.3703  0.8655
   48CHL1   C27 6029   6.026   4.618   8.592 -0.5666 -0.0069 -1.0039
   48CHL1  H27A 6030   5.992   4.543   8.517  1.4877  1.4207 -3.5553
   48CHL1  H27B 6031   5.950   4.662   8.660  1.4663  2.3034 -0.0788
   48CHL1  H27C 6032   6.057   4.708   8.535  1.2783  0.0676  0.0297
   49CHL1    C3 6033   4.210   6.461  10.068  0.8056  0.8495  0.0122
   49CHL1    H3 6034   4.190   6.351  10.068  0.7095  0.7321 -3.7834
   49CHL1    O3 6035   4.255   6.498  10.200 -0.9154  0.7234  0.5987
   49CHL1   H3' 6036   4.179   6.476  10.254 -0.5117  1.0991  1.3345
   49CHL1    C4 6037   4.311   6.495   9.954 -0.7870 -0.1331  0.1117
   49CHL1   H4A 6038   4.349   6.598   9.973  0.1580 -0.8702  2.5746
   49CHL1   H4B 6039   4.403   6.436   9.975 -0.9371 -0.5374 -0.3580
   49CHL1    C5 6040   4.257   6.488   9.809  0.0160  0.2257 -0.6491
   49CHL1    C6 6041   4.302   6.409   9.712  0.1926 -0.6301 -0.5457
   49CHL1    H6 6042   4.383   6.337   9.734  1.4946  0.8611 -0.2421
   49CHL1    C7 6043   4.265   6.426   9.567 -0.4154  0.0550 -0.8402
   49CHL1   H7A 6044   4.364   6.441   9.519  0.8422 -1.1484  1.1788
   49CHL1   H7B 6045   4.218   6.331   9.534  0.9096 -0.0698 -2.4910
   49CHL1    C8 6046   4.183   6.548   9.535  0.3897 -0.4974 -1.1044
   49CHL1    H8 6047   4.250   6.636   9.537  0.4353 -0.4902  1.6453
   49CHL1   C14 6048   4.111   6.538   9.401  0.3696 -0.4442 -0.0121
   49CHL1   H14 6049   4.048   6.447   9.406  1.1848 -1.1858 -2.0370
   49CHL1   C15 6050   4.188   6.496   9.273  0.2792  0.2022 -0.1329
   49CHL1  H15A 6051   4.293   6.533   9.263 -0.2364  1.4652 -1.2499
   49CHL1  H15B 6052   4.215   6.389   9.266 -0.2759  0.0793 -0.4218
   49CHL1   C16 6053   4.098   6.539   9.152  0.3848 -0.5281  0.2144
   49CHL1  H16A 6054   4.145   6.613   9.084 -1.3723  1.2821  0.8638
   49CHL1  H16B 6055   4.076   6.452   9.087  2.7579 -1.2977  0.3533
   49CHL1   C17 6056   3.971   6.598   9.230 -0.6701  0.1289  0.0088
   49CHL1   H17 6057   3.907   6.508   9.235 -1.4017  0.6805  1.1439
   49CHL1   C13 6058   4.012   6.654   9.364 -0.2703  0.9824  0.1204
   49CHL1   C18 6059   4.088   6.790   9.343  0.1991  0.2228 -0.0850
   49CHL1  H18A 6060   4.016   6.873   9.325  1.2295  1.1446 -0.0316
   49CHL1  H18B 6061   4.159   6.822   9.422  3.1249 -2.5404 -1.3835
   49CHL1  H18C 6062   4.160   6.787   9.259 -1.2254 -0.9453 -1.3312
   49CHL1   C12 6063   3.908   6.671   9.477 -0.3665 -0.0733 -0.5135
   49CHL1  H12A 6064   3.850   6.765   9.469 -0.0634  0.0012 -2.2080
   49CHL1  H12B 6065   3.837   6.585   9.474  1.4878 -1.6878 -0.0992
   49CHL1   C11 6066   3.972   6.691   9.617  0.2674 -0.4607  0.0941
   49CHL1  H11A 6067   4.026   6.786   9.636 -0.8469 -0.3955  3.7621
   49CHL1  H11B 6068   3.886   6.687   9.687  1.5304 -0.6185  1.6927
   49CHL1    C9 6069   4.075   6.574   9.648 -1.3763  0.2122 -0.1177
   49CHL1    H9 6070   4.020   6.478   9.659  1.4298 -1.4518  0.4005
   49CHL1   C10 6071   4.146   6.588   9.785  0.4060 -0.0842  0.1986
   49CHL1   C19 6072   4.198   6.736   9.803  0.0022  0.7189 -0.2174
   49CHL1  H19A 6073   4.250   6.757   9.899  0.8371 -0.4622 -0.3990
   49CHL1  H19B 6074   4.260   6.768   9.717  2.7953  0.0698  1.4296
   49CHL1  H19C 6075   4.111   6.805   9.804 -0.9143 -0.4150  0.3907
   49CHL1    C1 6076   4.038   6.549   9.892 -0.0232 -0.5542  0.0988
   49CHL1   H1A 6077   3.947   6.613   9.882 -1.2948 -2.3774 -0.6100
   49CHL1   H1B 6078   4.005   6.448   9.861  0.5520 -0.6037 -0.3556
   49CHL1    C2 6079   4.085   6.550  10.042 -0.3580 -1.1022  0.1013
   49CHL1   H2A 6080   4.013   6.503  10.112  0.5235 -0.7218  1.3082
   49CHL1   H2B 6081   4.102   6.653  10.078  0.4896 -1.4213  0.6571
   49CHL1   C20 6082   3.900   6.704   9.136  1.0387 -0.5046 -0.6718
   49CHL1   H20 6083   3.972   6.782   9.103  0.5223 -0.0109 -0.6383
   49CHL1   C21 6084   3.780   6.767   9.209  0.1298 -0.1184  0.2727
   49CHL1  H21A 6085   3.737   6.842   9.139  1.4109  0.2144 -0.2050
   49CHL1  H21B 6086   3.812   6.821   9.301  1.2932 -0.3772  0.0458
   49CHL1  H21C 6087   3.705   6.691   9.236  0.8350 -1.1787 -0.6670
   49CHL1   C22 6088   3.838   6.631   9.010  0.0673 -0.0054 -0.5357
   49CHL1  H22A 6089   3.921   6.572   8.965  0.9877  0.4708  0.5033
   49CHL1  H22B 6090   3.756   6.558   9.028 -0.4039  0.3232 -1.2980
   49CHL1   C23 6091   3.793   6.729   8.893 -0.0012 -0.4125  0.0577
   49CHL1  H23A 6092   3.702   6.779   8.930  0.8420  0.4390  1.0689
   49CHL1  H23B 6093   3.869   6.806   8.866 -0.4469 -0.2157 -0.6556
   49CHL1   C24 6094   3.764   6.631   8.772 -0.1559 -0.5285 -0.0547
   49CHL1  H24A 6095   3.862   6.584   8.750 -0.5944 -0.5067 -2.3079
   49CHL1  H24B 6096   3.691   6.551   8.797 -0.2619 -0.1488  0.8881
   49CHL1   C25 6097   3.735   6.703   8.642 -0.0096 -0.7114 -0.1474
   49CHL1   H25 6098   3.644   6.766   8.654 -0.3556 -1.3355  0.5885
   49CHL1   C26 6099   3.848   6.799   8.605 -0.0783 -0.2960 -0.5728
   49CHL1  H26A 6100   3.822   6.868   8.522  0.8312  3.0313  1.6980
   49CHL1  H26B 6101   3.889   6.871   8.678  2.2062  0.4837 -2.4743
   49CHL1  H26C 6102   3.942   6.742   8.587  0.0899  0.0229 -0.7053
   49CHL1   C27 6103   3.709   6.608   8.533  0.3686 -0.3333  0.2174
   49CHL1  H27A 6104   3.624   6.544   8.565  0.7417 -0.1533  1.6634
   49CHL1  H27B 6105   3.669   6.660   8.444  0.1393  1.2663  1.2132
   49CHL1  H27C 6106   3.799   6.547   8.513  1.9099  1.6101  0.8997
   50CHL1    C3 6107   0.652   1.780  10.092 -0.1665 -0.0681 -0.1249
   50CHL1    H3 6108   0.592   1.688  10.106 -1.4679  1.0436  2.0382
   50CHL1    O3 6109   0.688   1.821  10.224  0.4494 -0.8027 -0.1449
   50CHL1   H3' 6110   0.617   1.876  10.258  0.9135 -0.0965 -0.2915
   50CHL1    C4 6111   0.776   1.760  10.003 -0.1677  0.6624  0.2837
   50CHL1   H4A 6112   0.830   1.856  10.017  0.6163  0.4476 -1.1190
   50CHL1   H4B 6113   0.837   1.677  10.045  1.3234  0.7592 -1.5862
   50CHL1    C5 6114   0.761   1.721   9.860  0.3136  0.0523  0.0315
   50CHL1    C6 6115   0.811   1.609   9.807  0.2799  0.2327 -0.4712
   50CHL1    H6 6116   0.857   1.537   9.877 -0.2328 -1.0556 -1.4120
   50CHL1    C7 6117   0.808   1.582   9.663  0.8135  0.6466 -0.4956
   50CHL1   H7A 6118   0.912   1.563   9.629  0.9662  1.1446 -0.3213
   50CHL1   H7B 6119   0.748   1.491   9.642  0.0492  0.9547  0.3161
   50CHL1    C8 6120   0.747   1.699   9.573  0.3450  0.6821 -0.4904
   50CHL1    H8 6121   0.830   1.771   9.553 -0.0102  1.4645  0.7148
   50CHL1   C14 6122   0.694   1.648   9.436 -0.6398  0.8792 -0.5326
   50CHL1   H14 6123   0.614   1.576   9.464  0.2242  0.0622 -0.1355
   50CHL1   C15 6124   0.792   1.572   9.342 -0.5004  0.2577  0.5578
   50CHL1  H15A 6125   0.882   1.638   9.338 -0.9037  0.8083 -3.7599
   50CHL1  H15B 6126   0.817   1.477   9.395  1.0558  0.7077  0.6955
   50CHL1   C16 6127   0.723   1.565   9.206 -0.3740 -0.5657 -1.1231
   50CHL1  H16A 6128   0.785   1.610   9.126  0.4868  2.3273  0.9953
   50CHL1  H16B 6129   0.676   1.468   9.180 -2.8194  0.6962 -1.6964
   50CHL1   C17 6130   0.606   1.662   9.220 -0.2369  0.1322 -0.0825
   50CHL1   H17 6131   0.526   1.589   9.245  0.7107 -0.8636  0.1318
   50CHL1   C13 6132   0.633   1.752   9.339 -0.1468  0.1636  0.0966
   50CHL1   C18 6133   0.736   1.859   9.301  0.2679 -0.0474 -0.0283
   50CHL1  H18A 6134   0.822   1.829   9.238 -1.8579  0.2360 -3.3081
   50CHL1  H18B 6135   0.693   1.938   9.235 -0.2634  0.3648  0.7905
   50CHL1  H18C 6136   0.768   1.909   9.395 -1.0088  0.2199  0.2941
   50CHL1   C12 6137   0.510   1.814   9.420  0.2380  0.3184  0.1933
   50CHL1  H12A 6138   0.467   1.897   9.360  1.5906  0.0338 -1.2613
   50CHL1  H12B 6139   0.432   1.736   9.435  1.0035 -0.6764 -0.8114
   50CHL1   C11 6140   0.556   1.875   9.555  0.3124 -0.4169 -0.3378
   50CHL1  H11A 6141   0.617   1.968   9.547 -0.5499  0.2599  0.6271
   50CHL1  H11B 6142   0.458   1.904   9.598  0.8879 -0.0522  0.7637
   50CHL1    C9 6143   0.631   1.771   9.649 -0.3244  0.1741 -0.8558
   50CHL1    H9 6144   0.552   1.693   9.661  1.8317 -2.1838 -1.1914
   50CHL1   C10 6145   0.668   1.823   9.789  0.7646  0.1077  0.1281
   50CHL1   C19 6146   0.734   1.965   9.777  0.0761 -1.1324  0.0691
   50CHL1  H19A 6147   0.659   2.041   9.748 -0.8145 -2.5679 -1.6187
   50CHL1  H19B 6148   0.783   1.999   9.870  3.6469 -0.1982 -1.9572
   50CHL1  H19C 6149   0.819   1.962   9.705 -1.2418  1.5492 -1.7917
   50CHL1    C1 6150   0.534   1.836   9.871 -0.1905 -0.0429 -0.0279
   50CHL1   H1A 6151   0.457   1.901   9.822  0.5502  0.8093 -0.0878
   50CHL1   H1B 6152   0.482   1.739   9.880  0.6673 -0.6414 -1.2829
   50CHL1    C2 6153   0.551   1.878  10.022 -0.4698 -0.1960 -0.8340
   50CHL1   H2A 6154   0.447   1.878  10.061 -0.4200 -1.0624 -0.6787
   50CHL1   H2B 6155   0.597   1.978  10.036  2.4562 -1.9096  4.8239
   50CHL1   C20 6156   0.564   1.729   9.090  0.4639 -0.4525  0.1579
   50CHL1   H20 6157   0.654   1.767   9.037  0.6690 -1.1267  0.0120
   50CHL1   C21 6158   0.466   1.846   9.095 -0.1925  0.4394 -0.2306
   50CHL1  H21A 6159   0.369   1.810   9.134  0.1032  1.8973  1.9938
   50CHL1  H21B 6160   0.459   1.891   8.993 -1.9957  0.6359 -0.0517
   50CHL1  H21C 6161   0.489   1.935   9.157 -3.1042  0.4889  0.9098
   50CHL1   C22 6162   0.521   1.622   8.980 -0.3973 -0.2021  0.0805
   50CHL1  H22A 6163   0.537   1.676   8.884  1.6328  0.6401  0.8299
   50CHL1  H22B 6164   0.602   1.546   8.970  1.9374  2.3382 -1.9651
   50CHL1   C23 6165   0.388   1.551   9.015  0.1942  0.5845  0.4604
   50CHL1  H23A 6166   0.380   1.526   9.123 -0.9989 -2.3248 -0.2020
   50CHL1  H23B 6167   0.302   1.620   9.003  0.6980  1.1450  0.0467
   50CHL1   C24 6168   0.373   1.417   8.938  0.1190  0.1946  0.1606
   50CHL1  H24A 6169   0.453   1.342   8.955 -0.4249 -0.4148  0.0752
   50CHL1  H24B 6170   0.284   1.375   8.990  1.9851  0.6687  4.1408
   50CHL1   C25 6171   0.356   1.421   8.786  0.2350  0.2213 -0.0842
   50CHL1   H25 6172   0.451   1.459   8.743 -0.1554  0.7948 -0.4615
   50CHL1   C26 6173   0.332   1.279   8.725 -0.9934  0.6165  0.3399
   50CHL1  H26A 6174   0.406   1.208   8.767 -0.3364 -1.9519 -4.4834
   50CHL1  H26B 6175   0.229   1.241   8.740 -0.0381 -1.7344  1.4016
   50CHL1  H26C 6176   0.348   1.272   8.616  0.1524  1.2165  0.4480
   50CHL1   C27 6177   0.240   1.509   8.744 -0.3013 -0.2068 -0.2054
   50CHL1  H27A 6178   0.141   1.460   8.760  0.5911 -1.2056  2.8810
   50CHL1  H27B 6179   0.238   1.614   8.782 -2.7081 -0.2721  0.0058
   50CHL1  H27C 6180   0.260   1.521   8.635  1.4057 -1.7795 -0.1048
   51CHL1    C3 6181   1.610   4.156  10.297 -0.1830 -0.7924 -0.8800
   51CHL1    H3 6182   1.554   4.072  10.251 -0.0280 -0.3513 -1.8892
   51CHL1    O3 6183   1.663   4.125  10.429  0.5903  0.2746 -0.2133
   51CHL1   H3' 6184   1.708   4.208  10.448 -2.1859  2.1274 -0.9550
   51CHL1    C4 6185   1.717   4.219  10.215 -0.2161  0.1777  0.3147
   51CHL1   H4A 6186   1.757   4.310  10.265  1.0671  1.4988 -2.8378
   51CHL1   H4B 6187   1.805   4.151  10.211  0.8848  1.6050 -2.2719
   51CHL1    C5 6188   1.662   4.258  10.079  0.5301  0.2577  0.0221
   51CHL1    C6 6189   1.714   4.215   9.970  0.1779  0.1390  0.1535
   51CHL1    H6 6190   1.801   4.149   9.982 -0.7760 -1.1769 -0.0247
   51CHL1    C7 6191   1.666   4.248   9.831 -0.2241  0.2377 -0.5479
   51CHL1   H7A 6192   1.754   4.276   9.770  0.3364  2.6969  1.2538
   51CHL1   H7B 6193   1.613   4.158   9.793  0.5732 -1.5043  2.1327
   51CHL1    C8 6194   1.573   4.375   9.838  0.1668  1.1124 -1.1524
   51CHL1    H8 6195   1.646   4.455   9.862 -0.1267  0.5581  2.0275
   51CHL1   C14 6196   1.498   4.385   9.712  0.0645  0.1505 -0.2019
   51CHL1   H14 6197   1.423   4.303   9.715 -0.0955  0.3032  0.0270
   51CHL1   C15 6198   1.571   4.370   9.583  1.0601  0.2302 -0.2937
   51CHL1  H15A 6199   1.673   4.414   9.585  1.2467 -0.1617 -0.9281
   51CHL1  H15B 6200   1.585   4.261   9.571  3.2442  0.2119  1.6904
   51CHL1   C16 6201   1.485   4.442   9.471 -0.0776 -0.1247 -0.3007
   51CHL1  H16A 6202   1.548   4.521   9.425  0.3374 -0.6596 -0.6591
   51CHL1  H16B 6203   1.441   4.381   9.389  1.1975 -0.3560 -0.8297
   51CHL1   C17 6204   1.374   4.524   9.560  0.2483  0.4261 -0.4153
   51CHL1   H17 6205   1.283   4.460   9.560 -0.6609  1.6510  0.9084
   51CHL1   C13 6206   1.423   4.520   9.702 -0.4718  0.2624 -0.0947
   51CHL1   C18 6207   1.534   4.627   9.726 -0.1911 -0.0416  0.3089
   51CHL1  H18A 6208   1.626   4.608   9.667 -0.4321 -0.4358  0.0538
   51CHL1  H18B 6209   1.491   4.720   9.683 -0.2303 -0.5950 -0.8789
   51CHL1  H18C 6210   1.560   4.656   9.830 -1.7124 -1.2484  1.0716
   51CHL1   C12 6211   1.308   4.520   9.807 -0.1104  0.3883 -0.8635
   51CHL1  H12A 6212   1.240   4.609   9.801 -0.9738 -0.2108 -0.2915
   51CHL1  H12B 6213   1.243   4.432   9.788  1.9893 -1.1106 -1.3415
   51CHL1   C11 6214   1.364   4.493   9.950 -0.7693  0.0492  0.0465
   51CHL1  H11A 6215   1.414   4.579   9.999 -3.0472  0.5917  1.5901
   51CHL1  H11B 6216   1.278   4.466  10.015 -0.1594  1.3488  1.4700
   51CHL1    C9 6217   1.468   4.373   9.952  0.4341 -0.6442 -0.1416
   51CHL1    H9 6218   1.395   4.289   9.943 -1.6570  1.0167  0.4780
   51CHL1   C10 6219   1.538   4.358  10.087  0.2643  0.1268  0.0986
   51CHL1   C19 6220   1.609   4.496  10.134  0.1414  0.3104 -0.4107
   51CHL1  H19A 6221   1.670   4.496  10.227 -1.6331 -0.1722  0.8057
   51CHL1  H19B 6222   1.683   4.545  10.067 -0.9842  2.4993 -0.1402
   51CHL1  H19C 6223   1.537   4.574  10.167 -0.5993 -0.4459 -0.2248
   51CHL1    C1 6224   1.429   4.307  10.185 -0.1306  1.0321 -0.1179
   51CHL1   H1A 6225   1.351   4.383  10.207 -2.2510 -0.4394 -2.0712
   51CHL1   H1B 6226   1.360   4.230  10.142  0.5006  0.6993 -0.5423
   51CHL1    C2 6227   1.494   4.263  10.319  0.4015  0.6051 -0.2823
   51CHL1   H2A 6228   1.416   4.215  10.381  0.2855 -1.4583 -1.9105
   51CHL1   H2B 6229   1.524   4.357  10.370 -0.8853  0.4514  0.8225
   51CHL1   C20 6230   1.333   4.657   9.490  0.4410  0.3617  0.0638
   51CHL1   H20 6231   1.424   4.718   9.470 -0.4489  2.7226  2.5156
   51CHL1   C21 6232   1.240   4.759   9.573  0.1631  0.2915  0.1694
   51CHL1  H21A 6233   1.219   4.857   9.527 -0.3436 -0.1116 -0.4662
   51CHL1  H21B 6234   1.291   4.805   9.661 -1.0590  0.4368  0.8332
   51CHL1  H21C 6235   1.143   4.717   9.608 -0.2756  1.7788  0.8056
   51CHL1   C22 6236   1.272   4.626   9.350  0.4942  0.2564 -0.1609
   51CHL1  H22A 6237   1.332   4.555   9.290 -0.8336 -1.1397  0.1196
   51CHL1  H22B 6238   1.172   4.578   9.360  0.7963 -0.4801 -0.6312
   51CHL1   C23 6239   1.234   4.756   9.258 -0.6960  1.4441 -1.3894
   51CHL1  H23A 6240   1.153   4.719   9.191 -0.3629 -1.3607 -0.3806
   51CHL1  H23B 6241   1.195   4.842   9.317  1.4306  1.2441  0.4358
   51CHL1   C24 6242   1.343   4.780   9.164 -0.0271 -1.0238 -0.1099
   51CHL1  H24A 6243   1.439   4.787   9.218  1.1975 -0.1422 -2.2586
   51CHL1  H24B 6244   1.357   4.706   9.082 -0.0027 -1.5705  0.3834
   51CHL1   C25 6245   1.317   4.914   9.086  0.3184  0.3428 -0.3213
   51CHL1   H25 6246   1.212   4.915   9.052 -0.3019  0.6043  1.4921
   51CHL1   C26 6247   1.337   5.029   9.176  0.3319 -0.4882  0.4732
   51CHL1  H26A 6248   1.252   5.057   9.241  0.5245  0.9896  0.1258
   51CHL1  H26B 6249   1.414   5.005   9.253 -1.7891  0.4600  3.0745
   51CHL1  H26C 6250   1.356   5.126   9.125  0.3077  0.0908  1.5390
   51CHL1   C27 6251   1.390   4.933   8.947  0.1639  0.7070 -0.0294
   51CHL1  H27A 6252   1.501   4.929   8.949  0.2720  0.7957 -2.4248
   51CHL1  H27B 6253   1.356   4.850   8.882 -0.9218  1.4754 -0.4640
   51CHL1  H27C 6254   1.364   5.028   8.896  0.0049 -0.0746 -1.4483
   52CHL1    C3 6255   5.523   3.215   9.981  0.0841  0.1456  0.0676
   52CHL1    H3 6256   5.420   3.176   9.999 -0.9105  2.1630 -0.9421
   52CHL1    O3 6257   5.598   3.245  10.100 -0.1346 -0.3517 -0.1028
   52CHL1   H3' 6258   5.536   3.305  10.143  1.5478  0.4834  1.2800
   52CHL1    C4 6259   5.599   3.109   9.893  0.4043 -0.5184  0.3970
   52CHL1   H4A 6260   5.697   3.160   9.879 -1.0676  1.6949 -3.5964
   52CHL1   H4B 6261   5.611   3.021   9.959 -2.9259 -1.1303  0.3274
   52CHL1    C5 6262   5.532   3.087   9.763 -0.5837  0.3012 -0.4264
   52CHL1    C6 6263   5.486   2.966   9.729  0.5314  0.2620 -0.2767
   52CHL1    H6 6264   5.502   2.875   9.789 -2.6450 -1.1289 -1.3411
   52CHL1    C7 6265   5.417   2.936   9.598  0.1283  0.3730 -0.4242
   52CHL1   H7A 6266   5.460   2.839   9.564  0.3149  0.1266  0.4970
   52CHL1   H7B 6267   5.309   2.921   9.617  0.1184  0.7006 -0.2083
   52CHL1    C8 6268   5.436   3.046   9.495 -0.0323  0.1825  0.6257
   52CHL1    H8 6269   5.534   3.027   9.446 -0.0562 -2.3074  1.4480
   52CHL1   C14 6270   5.330   3.032   9.383  0.0260  0.3109 -0.2769
   52CHL1   H14 6271   5.233   3.050   9.434 -0.1932 -1.7955  0.1205
   52CHL1   C15 6272   5.320   2.892   9.317 -0.0028  0.4403  0.7103
   52CHL1  H15A 6273   5.420   2.856   9.287  0.6844  1.2417  1.9474
   52CHL1  H15B 6274   5.273   2.820   9.389 -1.8126 -0.1504 -0.9734
   52CHL1   C16 6275   5.241   2.917   9.189 -0.1684  0.1004  0.2969
   52CHL1  H16A 6276   5.295   2.871   9.104 -0.3566  1.7350 -0.7255
   52CHL1  H16B 6277   5.143   2.866   9.200 -0.2706  0.0539 -0.7878
   52CHL1   C17 6278   5.227   3.076   9.180 -0.0017 -0.3742 -0.2752
   52CHL1   H17 6279   5.135   3.117   9.229  1.0860  0.5993  1.0558
   52CHL1   C13 6280   5.343   3.134   9.267 -0.0546 -0.2796  0.8780
   52CHL1   C18 6281   5.476   3.118   9.178 -0.2216  0.1278  0.0126
   52CHL1  H18A 6282   5.566   3.133   9.242 -1.0684 -3.0455  2.1554
   52CHL1  H18B 6283   5.476   3.015   9.138 -0.3180 -0.0008  0.3379
   52CHL1  H18C 6284   5.471   3.198   9.101  0.5127  1.8398  1.6588
   52CHL1   C12 6285   5.329   3.274   9.322 -0.9688 -0.1430  0.4049
   52CHL1  H12A 6286   5.355   3.345   9.240  2.5057 -1.8110 -0.1511
   52CHL1  H12B 6287   5.231   3.303   9.364 -1.1759 -0.7721  0.3762
   52CHL1   C11 6288   5.431   3.292   9.441  0.4580 -0.4728 -1.1937
   52CHL1  H11A 6289   5.527   3.290   9.386  0.5405 -1.8533 -1.0418
   52CHL1  H11B 6290   5.408   3.388   9.493  0.5560 -1.5694  0.9912
   52CHL1    C9 6291   5.422   3.182   9.555  0.4083 -0.5073 -0.8139
   52CHL1    H9 6292   5.318   3.188   9.593  0.9501 -3.0805  1.4040
   52CHL1   C10 6293   5.513   3.207   9.673  0.7676  0.1989 -0.4362
   52CHL1   C19 6294   5.657   3.245   9.619  0.4626 -0.3893 -0.2990
   52CHL1  H19A 6295   5.691   3.171   9.543  0.1101 -0.7025 -0.1533
   52CHL1  H19B 6296   5.656   3.338   9.558 -2.6531  0.4304  0.8314
   52CHL1  H19C 6297   5.736   3.259   9.697  2.5548 -0.7284 -2.2376
   52CHL1    C1 6298   5.447   3.320   9.762  0.4273  0.4919  0.2586
   52CHL1   H1A 6299   5.444   3.415   9.704 -1.3032  1.3064  1.5712
   52CHL1   H1B 6300   5.340   3.294   9.774  0.7938 -1.2834 -0.0386
   52CHL1    C2 6301   5.509   3.342   9.903  0.5088 -0.5855  0.0440
   52CHL1   H2A 6302   5.448   3.415   9.960  1.6590  1.2002 -0.9328
   52CHL1   H2B 6303   5.611   3.386   9.895  1.5084 -2.8336 -0.4866
   52CHL1   C20 6304   5.215   3.120   9.034 -0.1172 -0.2996 -0.0071
   52CHL1   H20 6305   5.310   3.088   8.986  0.8760 -0.0069  1.6556
   52CHL1   C21 6306   5.191   3.269   9.023 -0.0771 -0.4829 -0.1557
   52CHL1  H21A 6307   5.109   3.298   9.092 -1.4802 -2.0645 -1.0825
   52CHL1  H21B 6308   5.171   3.306   8.920  1.0261  0.8846  0.0937
   52CHL1  H21C 6309   5.278   3.331   9.055 -1.3983  1.0451  0.6111
   52CHL1   C22 6310   5.102   3.049   8.959 -0.1712  0.5134 -0.2449
   52CHL1  H22A 6311   5.117   3.068   8.851  0.1506  0.1215 -0.2690
   52CHL1  H22B 6312   5.110   2.940   8.973 -3.0771  0.5222  2.7917
   52CHL1   C23 6313   4.954   3.087   8.995  0.0639 -1.1526 -0.3547
   52CHL1  H23A 6314   4.922   3.017   9.075  2.7657 -2.2348 -0.1237
   52CHL1  H23B 6315   4.943   3.190   9.034  0.1998 -1.1904 -0.2173
   52CHL1   C24 6316   4.869   3.071   8.873  0.0869  0.2461 -0.0703
   52CHL1  H24A 6317   4.908   3.123   8.783 -1.6195 -1.1457 -1.7057
   52CHL1  H24B 6318   4.870   2.966   8.837  0.4213 -0.0052  0.6400
   52CHL1   C25 6319   4.717   3.106   8.884  0.0841  0.3002  0.1966
   52CHL1   H25 6320   4.663   3.039   8.954  0.5808 -1.6830 -1.2516
   52CHL1   C26 6321   4.683   3.246   8.932 -0.8255 -0.2339 -0.8447
   52CHL1  H26A 6322   4.572   3.255   8.933 -0.8775 -0.8595  0.4348
   52CHL1  H26B 6323   4.719   3.251   9.037 -1.0719 -0.9604 -0.7195
   52CHL1  H26C 6324   4.739   3.316   8.866  1.8707 -0.6842  0.8240
   52CHL1   C27 6325   4.651   3.083   8.745  0.2385  0.4128 -0.2284
   52CHL1  H27A 6326   4.713   3.141   8.674 -0.9102  0.1479 -1.5023
   52CHL1  H27B 6327   4.656   2.979   8.706  0.8270  0.3729 -0.0452
   52CHL1  H27C 6328   4.544   3.114   8.750  0.1324  0.4092 -1.9002
   53CHL1    C3 6329   6.433   2.404  10.023  0.0896 -0.4617 -0.5371
   53CHL1    H3 6330   6.531   2.351  10.021  0.7549  0.7383 -1.0371
   53CHL1    O3 6331   6.394   2.415  10.161  0.1188 -0.6448  0.0788
   53CHL1   H3' 6332   6.436   2.336  10.195  2.5043  0.1189 -0.9278
   53CHL1    C4 6333   6.434   2.548   9.960  0.0605  0.0628  0.1764
   53CHL1   H4A 6334   6.336   2.594   9.987  0.3593  1.5734 -1.1417
   53CHL1   H4B 6335   6.507   2.615  10.009  0.9313 -0.2122 -0.7201
   53CHL1    C5 6336   6.462   2.549   9.809 -0.8099 -0.0438 -0.1587
   53CHL1    C6 6337   6.553   2.631   9.761 -0.0826  0.2737  0.4565
   53CHL1    H6 6338   6.611   2.694   9.829 -0.4878 -0.4000  1.4425
   53CHL1    C7 6339   6.573   2.646   9.611 -0.0984 -0.1948  0.3077
   53CHL1   H7A 6340   6.594   2.745   9.566  0.1370 -0.3694  0.0258
   53CHL1   H7B 6341   6.666   2.585   9.604 -0.2810 -1.1472  3.8989
   53CHL1    C8 6342   6.471   2.577   9.521  0.3675  0.8366  0.4600
   53CHL1    H8 6343   6.380   2.640   9.513  0.2428  0.4141 -2.9650
   53CHL1   C14 6344   6.522   2.562   9.378  0.6383 -0.4400 -0.6348
   53CHL1   H14 6345   6.602   2.485   9.387 -1.6626 -2.8280  0.8156
   53CHL1   C15 6346   6.577   2.688   9.312  0.6583 -0.3157 -0.1013
   53CHL1  H15A 6347   6.499   2.765   9.331  0.9095 -0.5891  2.3629
   53CHL1  H15B 6348   6.681   2.710   9.345  0.9999  1.2994 -2.0637
   53CHL1   C16 6349   6.585   2.634   9.169 -0.0440  0.1229 -0.0910
   53CHL1  H16A 6350   6.537   2.709   9.102 -0.3735 -0.4400 -0.4996
   53CHL1  H16B 6351   6.687   2.624   9.125 -0.4095  2.4957 -1.6757
   53CHL1   C17 6352   6.509   2.499   9.162 -0.6383  0.1258 -0.2092
   53CHL1   H17 6353   6.584   2.418   9.165 -0.4215  0.2983 -0.7914
   53CHL1   C13 6354   6.421   2.486   9.287  0.5179 -0.7124  0.2088
   53CHL1   C18 6355   6.284   2.559   9.280 -0.4719 -0.0590 -0.1329
   53CHL1  H18A 6356   6.230   2.563   9.377  1.0321  0.7241  0.7052
   53CHL1  H18B 6357   6.306   2.667   9.264 -0.6640 -0.3331 -2.7741
   53CHL1  H18C 6358   6.217   2.527   9.197 -0.0261 -0.3982 -0.3626
   53CHL1   C12 6359   6.405   2.340   9.349  0.4667 -0.4324  0.1434
   53CHL1  H12A 6360   6.321   2.298   9.290  0.3103  2.1296 -1.6508
   53CHL1  H12B 6361   6.505   2.293   9.348  0.4172 -0.5672  0.8725
   53CHL1   C11 6362   6.359   2.333   9.498  0.7094 -0.4117  1.0475
   53CHL1  H11A 6363   6.255   2.371   9.503  0.6781 -0.6722  2.8537
   53CHL1  H11B 6364   6.390   2.236   9.543  1.9157 -1.4452 -1.7834
   53CHL1    C9 6365   6.440   2.439   9.585  0.5207  0.1935  0.0243
   53CHL1    H9 6366   6.541   2.395   9.599  1.7314  0.3960 -5.6835
   53CHL1   C10 6367   6.377   2.454   9.727 -0.0634  0.3591 -0.1028
   53CHL1   C19 6368   6.228   2.503   9.721 -0.2699 -0.0963 -0.1233
   53CHL1  H19A 6369   6.205   2.524   9.828 -2.2161  0.2965 -0.5788
   53CHL1  H19B 6370   6.222   2.604   9.673  0.8605 -0.0963 -0.2851
   53CHL1  H19C 6371   6.151   2.432   9.683 -1.3005 -0.0185  1.6871
   53CHL1    C1 6372   6.379   2.309   9.793  0.8556  0.1995 -0.6224
   53CHL1   H1A 6373   6.299   2.242   9.756 -0.3305  0.1490  1.8493
   53CHL1   H1B 6374   6.479   2.262   9.779  0.4731 -0.6732 -0.4579
   53CHL1    C2 6375   6.343   2.313   9.942  0.0960  0.2012 -0.2121
   53CHL1   H2A 6376   6.341   2.209   9.981 -0.2546 -0.0094 -0.7825
   53CHL1   H2B 6377   6.246   2.364   9.957  0.5538  1.5045 -1.4167
   53CHL1   C20 6378   6.439   2.473   9.028  0.2220 -0.0830 -0.0027
   53CHL1   H20 6379   6.365   2.555   9.016  0.4363  0.2083  0.5772
   53CHL1   C21 6380   6.383   2.336   9.015  0.8403  0.3676 -0.3510
   53CHL1  H21A 6381   6.456   2.261   9.051 -0.8858 -0.9599  0.5591
   53CHL1  H21B 6382   6.354   2.310   8.911  1.3979  0.5584 -0.5575
   53CHL1  H21C 6383   6.284   2.332   9.067  0.6723 -0.9008 -0.7395
   53CHL1   C22 6384   6.538   2.495   8.907 -0.1566  0.8985  0.0735
   53CHL1  H22A 6385   6.584   2.596   8.917  0.0517  0.8013  0.1000
   53CHL1  H22B 6386   6.617   2.418   8.919 -1.0311 -0.0343 -0.0491
   53CHL1   C23 6387   6.473   2.495   8.772  0.1159  0.4170 -0.1432
   53CHL1  H23A 6388   6.463   2.389   8.740 -0.2778 -0.2658  2.0510
   53CHL1  H23B 6389   6.377   2.543   8.801 -0.5186 -1.8855  1.8809
   53CHL1   C24 6390   6.539   2.583   8.661 -0.4980  0.4403  0.3729
   53CHL1  H24A 6391   6.558   2.683   8.706 -0.3283  0.2738  0.6703
   53CHL1  H24B 6392   6.647   2.558   8.650 -0.6305 -0.3222  0.7591
   53CHL1   C25 6393   6.448   2.603   8.542 -0.0540 -0.4739  1.0475
   53CHL1   H25 6394   6.355   2.651   8.579  0.1673 -0.7723  2.0256
   53CHL1   C26 6395   6.510   2.704   8.439 -0.1045  0.2758  0.4910
   53CHL1  H26A 6396   6.445   2.716   8.350 -0.4342  0.7723  0.7907
   53CHL1  H26B 6397   6.527   2.800   8.492  2.4714 -0.1543  0.5743
   53CHL1  H26C 6398   6.610   2.661   8.419 -0.6417 -0.6839 -0.2155
   53CHL1   C27 6399   6.419   2.475   8.463  0.5263 -0.3562 -0.0299
   53CHL1  H27A 6400   6.507   2.440   8.404  1.2636 -1.0378  1.4106
   53CHL1  H27B 6401   6.403   2.400   8.543  1.1815  1.2189  1.6578
   53CHL1  H27C 6402   6.322   2.485   8.411  0.8374 -1.3533 -0.8092
   54CHL1    C3 6403   6.281   3.844  10.132  0.3324 -0.1185  0.2610
   54CHL1    H3 6404   6.192   3.908  10.114  1.2971  1.4444  0.8830
   54CHL1    O3 6405   6.280   3.773  10.261 -0.0970  0.1745  0.2866
   54CHL1   H3' 6406   6.216   3.701  10.252  0.0708 -0.2050  1.8229
   54CHL1    C4 6407   6.281   3.727  10.036  0.1848 -1.0536  0.0854
   54CHL1   H4A 6408   6.370   3.661  10.049 -0.4131 -1.8851  0.0135
   54CHL1   H4B 6409   6.186   3.671  10.048 -1.1691  1.0815 -0.2274
   54CHL1    C5 6410   6.283   3.774   9.888  0.3531  0.1220 -0.1951
   54CHL1    C6 6411   6.178   3.739   9.806 -0.2369 -0.8688 -0.1660
   54CHL1    H6 6412   6.099   3.672   9.843  0.8575 -1.4897  1.0880
   54CHL1    C7 6413   6.180   3.790   9.669 -0.3071  0.0978  0.1007
   54CHL1   H7A 6414   6.116   3.728   9.603 -0.6183  2.0548 -1.5495
   54CHL1   H7B 6415   6.119   3.883   9.673 -1.5659 -0.7389  1.5612
   54CHL1    C8 6416   6.316   3.838   9.606 -0.2986 -0.2050 -0.0417
   54CHL1    H8 6417   6.376   3.745   9.596  3.0176  1.8472 -1.1041
   54CHL1   C14 6418   6.303   3.904   9.472  0.0306 -0.8890  0.4502
   54CHL1   H14 6419   6.253   4.001   9.491 -0.4716 -1.2015  0.7537
   54CHL1   C15 6420   6.229   3.830   9.361 -0.0803 -0.6653  0.0725
   54CHL1  H15A 6421   6.270   3.727   9.349 -1.6216 -1.3472  0.4228
   54CHL1  H15B 6422   6.118   3.832   9.360 -0.0872  1.8360 -1.6103
   54CHL1   C16 6423   6.268   3.894   9.231  0.7224 -0.5185 -0.6068
   54CHL1  H16A 6424   6.288   3.814   9.157  0.0522 -0.1938 -1.1482
   54CHL1  H16B 6425   6.181   3.947   9.187 -0.3000 -1.4848  0.2017
   54CHL1   C17 6426   6.392   3.984   9.271 -0.7851  0.0518 -0.1824
   54CHL1   H17 6427   6.337   4.079   9.289  0.3561  0.5382  0.8288
   54CHL1   C13 6428   6.436   3.950   9.418 -1.0625  0.7977  0.1874
   54CHL1   C18 6429   6.541   3.829   9.410 -0.1241 -0.5313  0.8274
   54CHL1  H18A 6430   6.642   3.866   9.382 -0.1350 -0.7302  0.5198
   54CHL1  H18B 6431   6.548   3.767   9.501  1.1952 -0.2240  0.9618
   54CHL1  H18C 6432   6.514   3.764   9.324  0.6876  1.2605 -0.8670
   54CHL1   C12 6433   6.498   4.059   9.504  0.4838 -0.3268 -0.8369
   54CHL1  H12A 6434   6.595   4.094   9.463  1.3191  1.2587  2.1793
   54CHL1  H12B 6435   6.427   4.144   9.500 -1.0104 -1.5638 -1.7452
   54CHL1   C11 6436   6.513   4.007   9.644 -0.1083  0.0596  0.0427
   54CHL1  H11A 6437   6.593   3.930   9.646 -0.2545 -0.1566 -1.2574
   54CHL1  H11B 6438   6.556   4.072   9.723  0.4392  1.6237 -1.4853
   54CHL1    C9 6439   6.392   3.933   9.705  0.0858  0.5516  0.3987
   54CHL1    H9 6440   6.331   4.025   9.719  1.5638  1.3648  1.7719
   54CHL1   C10 6441   6.404   3.865   9.843 -0.0314 -0.0502  0.8487
   54CHL1   C19 6442   6.532   3.771   9.833  0.5880  0.0850  1.0452
   54CHL1  H19A 6443   6.621   3.837   9.828 -0.2140  1.1258 -1.0380
   54CHL1  H19B 6444   6.540   3.709   9.925  0.4080 -0.6621  0.5618
   54CHL1  H19C 6445   6.530   3.690   9.757  3.4277  1.5891 -0.7990
   54CHL1    C1 6446   6.417   3.968   9.960  0.0284  0.5310  0.4081
   54CHL1   H1A 6447   6.500   4.038   9.935 -0.4590  0.3993 -1.8409
   54CHL1   H1B 6448   6.332   4.039   9.965 -1.7525 -1.5539  1.5725
   54CHL1    C2 6449   6.413   3.921  10.105 -0.2872 -0.9628  0.2224
   54CHL1   H2A 6450   6.431   4.006  10.174  0.6011 -2.0006  1.3276
   54CHL1   H2B 6451   6.503   3.856  10.117 -0.4613 -1.6471 -1.7819
   54CHL1   C20 6452   6.500   4.019   9.166  0.7148  0.6291 -0.3725
   54CHL1   H20 6453   6.599   4.038   9.214 -0.7672  0.6594  3.0010
   54CHL1   C21 6454   6.457   4.150   9.088  0.0908  0.8532  0.2031
   54CHL1  H21A 6455   6.382   4.134   9.008  0.3907  0.5809 -0.0273
   54CHL1  H21B 6456   6.547   4.179   9.030 -1.1391  0.9752 -1.7112
   54CHL1  H21C 6457   6.444   4.241   9.151  0.5923  2.7210 -2.2223
   54CHL1   C22 6458   6.513   3.905   9.066 -0.6049  0.2056  0.0323
   54CHL1  H22A 6459   6.502   3.799   9.098 -3.8670  0.1266 -0.9595
   54CHL1  H22B 6460   6.430   3.914   8.992 -1.6852 -1.5197  0.9608
   54CHL1   C23 6461   6.655   3.909   8.989 -0.8536  0.0307  0.0000
   54CHL1  H23A 6462   6.653   3.996   8.920 -0.9325 -1.1235 -1.5186
   54CHL1  H23B 6463   6.730   3.926   9.068 -1.6692  2.3780  0.3468
   54CHL1   C24 6464   6.674   3.771   8.913 -0.7544  0.6451 -0.5183
   54CHL1  H24A 6465   6.684   3.694   8.993 -1.1916  0.4746 -0.6263
   54CHL1  H24B 6466   6.579   3.742   8.863 -0.1473 -2.5317 -0.0377
   54CHL1   C25 6467   6.799   3.754   8.821 -0.0248 -0.1849 -0.5854
   54CHL1   H25 6468   6.802   3.648   8.786 -3.8994 -0.0666 -1.7997
   54CHL1   C26 6469   6.778   3.837   8.696  0.7265 -0.7557 -0.5062
   54CHL1  H26A 6470   6.846   3.801   8.616  0.6838  1.7847 -1.7603
   54CHL1  H26B 6471   6.672   3.819   8.667  0.2659 -0.1389  0.7497
   54CHL1  H26C 6472   6.793   3.946   8.705  2.1662 -0.8442 -1.4962
   54CHL1   C27 6473   6.930   3.789   8.894 -0.7533  0.2859  0.0835
   54CHL1  H27A 6474   7.013   3.724   8.860  0.1296  0.8570  1.0804
   54CHL1  H27B 6475   6.942   3.899   8.885 -0.6386  0.5069  2.2697
   54CHL1  H27C 6476   6.912   3.783   9.004  0.0133  0.3545  0.2104
   55CHL1    C3 6477   0.090   1.537  10.074  0.8094  0.3721  0.1023
   55CHL1    H3 6478  -0.020   1.544  10.083  0.6621  0.0178 -1.3389
   55CHL1    O3 6479   0.150   1.527  10.202 -0.2884  0.0029 -0.0960
   55CHL1   H3' 6480   0.126   1.609  10.245  2.6080  0.7580  0.3065
   55CHL1    C4 6481   0.122   1.415   9.985  0.8567  0.5623  0.3766
   55CHL1   H4A 6482   0.231   1.402   9.996  0.8554 -0.2782 -0.4100
   55CHL1   H4B 6483   0.063   1.326  10.018 -0.0005  0.4618 -1.2727
   55CHL1    C5 6484   0.089   1.448   9.839  0.0270 -0.4764 -0.5197
   55CHL1    C6 6485   0.007   1.367   9.768  0.2831 -0.9702  0.0921
   55CHL1    H6 6486  -0.027   1.280   9.826  1.6346 -1.3373  0.3887
   55CHL1    C7 6487  -0.029   1.386   9.622 -0.3556 -0.7226 -0.1324
   55CHL1   H7A 6488  -0.018   1.288   9.572  1.4036  0.1114 -1.4963
   55CHL1   H7B 6489  -0.135   1.419   9.623  0.8648  3.9796 -0.1247
   55CHL1    C8 6490   0.060   1.487   9.553  0.3476 -0.6291 -0.0931
   55CHL1    H8 6491   0.155   1.432   9.539  0.5517 -0.4508  0.5425
   55CHL1   C14 6492  -0.008   1.516   9.424 -0.5703 -0.3842 -0.1081
   55CHL1   H14 6493  -0.105   1.564   9.450 -1.3830 -0.7936 -2.2136
   55CHL1   C15 6494  -0.024   1.398   9.337 -0.2853 -0.8279  0.1368
   55CHL1  H15A 6495   0.069   1.338   9.332 -0.3522 -0.8548 -2.8754
   55CHL1  H15B 6496  -0.104   1.325   9.363 -0.6498 -0.7871 -0.8155
   55CHL1   C16 6497  -0.044   1.461   9.197  0.1444  0.8201  0.2839
   55CHL1  H16A 6498   0.023   1.411   9.124 -0.7251 -0.7454  0.5153
   55CHL1  H16B 6499  -0.151   1.454   9.168  0.2877  0.1864 -0.1074
   55CHL1   C17 6500  -0.020   1.613   9.214 -0.3544 -0.0188  0.4779
   55CHL1   H17 6501  -0.119   1.653   9.244 -0.5237  1.1762 -1.5505
   55CHL1   C13 6502   0.068   1.622   9.343  0.2765 -0.1404  1.0027
   55CHL1   C18 6503   0.213   1.570   9.313  0.1781 -0.2120  0.5901
   55CHL1  H18A 6504   0.279   1.650   9.273  1.7335 -2.3530 -1.4479
   55CHL1  H18B 6505   0.263   1.532   9.404  0.1710  0.6343  0.9592
   55CHL1  H18C 6506   0.203   1.489   9.238  1.0759  0.4867 -0.3159
   55CHL1   C12 6507   0.067   1.758   9.423 -0.1410 -0.5851 -0.1335
   55CHL1  H12A 6508   0.139   1.820   9.364 -1.6437  1.8719  0.4884
   55CHL1  H12B 6509  -0.036   1.798   9.425 -0.3828 -1.2056  0.6538
   55CHL1   C11 6510   0.125   1.736   9.556 -0.3413  0.6878 -0.3109
   55CHL1  H11A 6511   0.235   1.722   9.555 -0.5539 -1.4816 -2.5862
   55CHL1  H11B 6512   0.094   1.824   9.617  0.0026  0.1855  0.6029
   55CHL1    C9 6513   0.068   1.610   9.635 -0.7433  0.4400  0.4917
   55CHL1    H9 6514  -0.040   1.634   9.651 -1.0856  0.9480 -2.1090
   55CHL1   C10 6515   0.135   1.573   9.770  0.7355  0.7711 -0.6479
   55CHL1   C19 6516   0.286   1.544   9.745  0.3287  0.4999  0.6017
   55CHL1  H19A 6517   0.347   1.628   9.707  0.0310  0.5100  0.1416
   55CHL1  H19B 6518   0.342   1.503   9.832  3.4070 -1.7418 -2.1820
   55CHL1  H19C 6519   0.301   1.455   9.680  0.4752 -0.9176  2.4822
   55CHL1    C1 6520   0.121   1.691   9.870 -0.0602  0.1693  0.4562
   55CHL1   H1A 6521   0.179   1.776   9.827 -0.3814 -1.2042 -2.9841
   55CHL1   H1B 6522   0.015   1.714   9.851 -0.0640 -0.6798 -0.6385
   55CHL1    C2 6523   0.151   1.669  10.014  0.0242  0.0455 -0.3253
   55CHL1   H2A 6524   0.117   1.750  10.082  0.4664 -0.7798  0.9097
   55CHL1   H2B 6525   0.261   1.662  10.028  0.0189 -1.4573 -0.8550
   55CHL1   C20 6526   0.021   1.685   9.081 -0.2619  0.5021  0.1693
   55CHL1   H20 6527   0.098   1.624   9.030 -1.1000  0.7272 -1.4215
   55CHL1   C21 6528   0.061   1.829   9.107  0.5104  0.2282 -0.3307
   55CHL1  H21A 6529   0.075   1.879   9.009 -0.5865 -3.0571 -2.3120
   55CHL1  H21B 6530   0.155   1.833   9.167 -1.4327 -2.3759  3.2798
   55CHL1  H21C 6531  -0.013   1.890   9.162 -2.1287 -0.8450 -2.4412
   55CHL1   C22 6532  -0.101   1.697   8.987  0.4779  0.1583  0.2073
   55CHL1  H22A 6533  -0.134   1.592   8.971  0.7525  0.2296 -0.8808
   55CHL1  H22B 6534  -0.187   1.754   9.031 -1.4564 -0.9965 -1.8692
   55CHL1   C23 6535  -0.065   1.742   8.837 -0.8665  0.3327  0.7064
   55CHL1  H23A 6536  -0.020   1.843   8.836  1.9725 -0.8382 -0.9065
   55CHL1  H23B 6537   0.014   1.669   8.811 -0.3005  1.2903 -0.3145
   55CHL1   C24 6538  -0.187   1.740   8.746 -0.4989  0.0282 -0.9692
   55CHL1  H24A 6539  -0.214   1.635   8.722  4.9282 -1.6802 -0.7995
   55CHL1  H24B 6540  -0.271   1.794   8.795  0.2494  2.0718 -1.8011
   55CHL1   C25 6541  -0.166   1.812   8.613 -0.5758  0.1835  0.0239
   55CHL1   H25 6542  -0.253   1.791   8.548  1.1797 -0.1512 -2.3930
   55CHL1   C26 6543  -0.158   1.965   8.629 -0.7481 -0.4411 -0.8325
   55CHL1  H26A 6544  -0.255   1.997   8.672 -1.4025 -2.9199 -0.3327
   55CHL1  H26B 6545  -0.076   1.997   8.697  0.6579  1.1903 -3.1351
   55CHL1  H26C 6546  -0.118   2.007   8.534  0.3067 -0.9067 -0.6173
   55CHL1   C27 6547  -0.040   1.762   8.530 -0.1926  0.9888  0.2561
   55CHL1  H27A 6548  -0.039   1.653   8.510  0.8992  1.3721 -2.0611
   55CHL1  H27B 6549  -0.030   1.806   8.429  0.3172 -0.8059 -0.5058
   55CHL1  H27C 6550   0.054   1.779   8.588 -1.4645 -1.0809  3.2032
   56CHL1    C3 6551   4.843   6.454  10.060 -0.2022  0.1434  0.4232
   56CHL1    H3 6552   4.950   6.428  10.077 -0.2063  0.0463  0.3054
   56CHL1    O3 6553   4.771   6.485  10.177  0.4159 -0.1849  0.4535
   56CHL1   H3' 6554   4.681   6.452  10.172  0.1006  0.7364 -0.1805
   56CHL1    C4 6555   4.845   6.575   9.964  0.5406 -0.0508  0.0404
   56CHL1   H4A 6556   4.742   6.617   9.966  0.5911  0.0684  0.1403
   56CHL1   H4B 6557   4.916   6.645  10.013  0.5860 -0.9173  1.2343
   56CHL1    C5 6558   4.881   6.544   9.816 -0.2818 -0.7162 -0.2156
   56CHL1    C6 6559   4.983   6.613   9.757  0.2772  0.4971  0.2652
   56CHL1    H6 6560   5.034   6.696   9.807  1.0988  0.5276 -0.6052
   56CHL1    C7 6561   5.026   6.580   9.616  0.0369 -0.3289  0.3578
   56CHL1   H7A 6562   5.042   6.670   9.553  0.1549 -1.0464 -0.6526
   56CHL1   H7B 6563   5.125   6.531   9.625  1.1250  1.7963  0.7527
   56CHL1    C8 6564   4.937   6.482   9.531 -0.5066  0.4070  0.3546
   56CHL1    H8 6565   4.837   6.522   9.504 -0.3625  0.4195 -0.1661
   56CHL1   C14 6566   5.020   6.419   9.418 -0.0869 -0.3122  0.3594
   56CHL1   H14 6567   5.101   6.356   9.461  1.3461  0.2671 -1.3897
   56CHL1   C15 6568   5.090   6.513   9.324  0.2687  0.0845  0.2307
   56CHL1  H15A 6569   5.029   6.601   9.294  0.7776 -0.2785 -2.0408
   56CHL1  H15B 6570   5.189   6.542   9.364  0.3836 -0.3962  0.2937
   56CHL1   C16 6571   5.111   6.429   9.198  0.5070 -0.0076 -0.0008
   56CHL1  H16A 6572   5.070   6.485   9.111 -0.4580 -2.8278 -1.4941
   56CHL1  H16B 6573   5.222   6.425   9.185  0.3305  0.2460 -1.8672
   56CHL1   C17 6574   5.040   6.291   9.212  0.2594 -0.8680  0.2789
   56CHL1   H17 6575   5.116   6.218   9.248  0.9970  0.4625  1.5161
   56CHL1   C13 6576   4.940   6.322   9.324  0.0605  0.0542 -0.0651
   56CHL1   C18 6577   4.803   6.398   9.277  0.1486 -0.0884  0.5519
   56CHL1  H18A 6578   4.745   6.321   9.221 -1.2519 -0.8238  2.8763
   56CHL1  H18B 6579   4.743   6.426   9.367 -0.7671  0.1854 -0.1290
   56CHL1  H18C 6580   4.830   6.489   9.220 -1.3837 -0.8320 -1.4577
   56CHL1   C12 6581   4.902   6.204   9.410 -0.5554 -0.1799  0.0153
   56CHL1  H12A 6582   4.838   6.129   9.358 -0.4849 -0.0206 -0.2989
   56CHL1  H12B 6583   4.987   6.134   9.429 -0.9506 -0.4122  1.0344
   56CHL1   C11 6584   4.824   6.253   9.544 -0.9170  0.0744  1.0633
   56CHL1  H11A 6585   4.716   6.270   9.524 -1.0406 -0.1386  1.5436
   56CHL1  H11B 6586   4.823   6.165   9.612  2.2069 -1.1944 -0.3406
   56CHL1    C9 6587   4.894   6.366   9.622  0.5076  0.1784 -0.4570
   56CHL1    H9 6588   4.993   6.328   9.655  0.6671  0.2979 -0.7963
   56CHL1   C10 6589   4.820   6.420   9.752 -0.6589  0.4577 -0.3773
   56CHL1   C19 6590   4.673   6.453   9.716 -0.5063  0.4299 -0.2939
   56CHL1  H19A 6591   4.619   6.515   9.790 -0.0577 -0.8155  1.1066
   56CHL1  H19B 6592   4.660   6.497   9.615  2.3762 -0.1300 -1.0171
   56CHL1  H19C 6593   4.614   6.359   9.709  0.4157 -0.1887 -0.0308
   56CHL1    C1 6594   4.818   6.306   9.859  0.0562 -0.2925 -0.6981
   56CHL1   H1A 6595   4.752   6.223   9.824 -1.4508  1.3270 -1.9501
   56CHL1   H1B 6596   4.915   6.254   9.872  2.3543  3.5865 -0.5291
   56CHL1    C2 6597   4.763   6.343   9.996 -0.6941 -0.2297  0.2296
   56CHL1   H2A 6598   4.758   6.253  10.060 -1.6203  0.6315  1.4308
   56CHL1   H2B 6599   4.655   6.370   9.986 -0.4601  0.0413 -2.2377
   56CHL1   C20 6600   4.992   6.229   9.077 -0.9342  0.8033 -0.4812
   56CHL1   H20 6601   4.907   6.285   9.032 -0.5393  2.4438  0.7162
   56CHL1   C21 6602   4.955   6.084   9.113  0.6156  0.5636 -0.7552
   56CHL1  H21A 6603   5.021   6.038   9.190  0.4421  1.1362 -0.2595
   56CHL1  H21B 6604   4.962   6.018   9.024 -0.0718 -2.0168  0.9869
   56CHL1  H21C 6605   4.852   6.079   9.154  0.8850 -2.1586 -0.2097
   56CHL1   C22 6606   5.112   6.245   8.978 -0.6266 -0.4596 -0.3979
   56CHL1  H22A 6607   5.164   6.343   8.980 -2.2644  0.4584 -1.0025
   56CHL1  H22B 6608   5.191   6.172   9.008  0.3594  0.7881  0.1262
   56CHL1   C23 6609   5.069   6.232   8.837  0.4014 -0.0735  0.4878
   56CHL1  H23A 6610   5.008   6.140   8.826  0.7080 -0.1314 -0.8285
   56CHL1  H23B 6611   4.998   6.317   8.827  0.5387 -0.0698 -0.5732
   56CHL1   C24 6612   5.183   6.233   8.737  0.1086 -0.2003 -0.2818
   56CHL1  H24A 6613   5.244   6.326   8.745 -0.7164  0.3293  0.0176
   56CHL1  H24B 6614   5.244   6.146   8.767 -1.0655 -1.1595 -0.6032
   56CHL1   C25 6615   5.134   6.201   8.591 -0.1014  0.4168 -0.2651
   56CHL1   H25 6616   5.078   6.106   8.584 -0.4185  0.7234 -4.1166
   56CHL1   C26 6617   5.047   6.303   8.531  0.1866  0.3232 -0.4677
   56CHL1  H26A 6618   5.015   6.276   8.428 -0.0611  0.0160 -0.3116
   56CHL1  H26B 6619   4.950   6.300   8.585  1.6660 -0.5725  2.3388
   56CHL1  H26C 6620   5.101   6.400   8.532  0.7141  0.0419 -1.0577
   56CHL1   C27 6621   5.259   6.196   8.505 -0.0308  0.5603  0.2526
   56CHL1  H27A 6622   5.232   6.190   8.397  0.4670 -0.0174  0.1569
   56CHL1  H27B 6623   5.326   6.285   8.511  0.5407  0.1270  0.3200
   56CHL1  H27C 6624   5.312   6.100   8.522  1.3890  1.3514  0.4201
   57CHL1    C3 6625   0.556   2.463  10.287 -0.5328  0.6004  0.7983
   57CHL1    H3 6626   0.666   2.482  10.295 -0.4395  0.4476 -0.0246
   57CHL1    O3 6627   0.513   2.426  10.421  0.2792 -0.4084  0.4336
   57CHL1   H3' 6628   0.418   2.423  10.407  0.4198 -1.1231 -0.5116
   57CHL1    C4 6629   0.471   2.577  10.239  0.3563  0.1079 -0.0945
   57CHL1   H4A 6630   0.362   2.555  10.248  0.4513 -0.1455  0.4904
   57CHL1   H4B 6631   0.496   2.656  10.313  1.5934 -2.2228  2.1536
   57CHL1    C5 6632   0.503   2.612  10.098  0.6019  0.3479  0.4795
   57CHL1    C6 6633   0.538   2.732  10.060 -0.4424 -0.2432  0.0748
   57CHL1    H6 6634   0.525   2.807  10.140 -1.2907  0.3202 -0.5673
   57CHL1    C7 6635   0.569   2.779   9.920 -0.5487  0.6485 -0.1460
   57CHL1   H7A 6636   0.514   2.871   9.892 -0.4884  0.9112  0.5705
   57CHL1   H7B 6637   0.673   2.818   9.928 -0.4651  0.0655  2.7537
   57CHL1    C8 6638   0.547   2.673   9.816 -0.3047  0.3804 -0.0689
   57CHL1    H8 6639   0.437   2.681   9.802 -0.5828 -2.6906 -0.3657
   57CHL1   C14 6640   0.623   2.693   9.682 -0.5637 -0.0520 -0.6645
   57CHL1   H14 6641   0.733   2.682   9.696 -0.7711 -0.3205  0.9531
   57CHL1   C15 6642   0.600   2.838   9.618  0.1552  0.5808 -0.0797
   57CHL1  H15A 6643   0.502   2.871   9.658  1.2636  2.2096  1.4675
   57CHL1  H15B 6644   0.677   2.911   9.650 -0.1055  2.1311 -2.7417
   57CHL1   C16 6645   0.628   2.815   9.466 -0.2986  0.4602 -0.0281
   57CHL1  H16A 6646   0.543   2.853   9.407  0.3961  2.9652  0.4780
   57CHL1  H16B 6647   0.712   2.878   9.430 -0.5081 -0.4619 -2.3304
   57CHL1   C17 6648   0.652   2.661   9.446  0.4794 -0.5895 -0.5494
   57CHL1   H17 6649   0.761   2.651   9.461  0.5656  0.7079 -0.2221
   57CHL1   C13 6650   0.579   2.593   9.571  0.3473 -0.2815  0.6830
   57CHL1   C18 6651   0.428   2.602   9.539  0.4592  0.4168 -0.2691
   57CHL1  H18A 6652   0.365   2.562   9.621  2.6081 -0.3195  1.1075
   57CHL1  H18B 6653   0.394   2.708   9.539  3.1228  1.3910  1.9742
   57CHL1  H18C 6654   0.399   2.539   9.453 -1.3581 -0.8698  1.2147
   57CHL1   C12 6655   0.623   2.454   9.623  0.4775 -0.3229  0.3975
   57CHL1  H12A 6656   0.586   2.375   9.554 -2.7438 -0.5509  2.1761
   57CHL1  H12B 6657   0.732   2.444   9.641  0.3662 -0.8551  0.8199
   57CHL1   C11 6658   0.549   2.419   9.759 -0.1097 -0.3610 -1.1043
   57CHL1  H11A 6659   0.443   2.411   9.728  0.3124  0.5014 -2.9146
   57CHL1  H11B 6660   0.579   2.321   9.803 -0.4731  0.4705  1.1288
   57CHL1    C9 6661   0.574   2.528   9.860  0.5662  0.4839  0.3156
   57CHL1    H9 6662   0.683   2.523   9.878  0.7247 -1.4142 -0.8637
   57CHL1   C10 6663   0.512   2.501   9.995  0.0241  0.0058 -0.4071
   57CHL1   C19 6664   0.367   2.458   9.970  0.0559  0.5302  0.0287
   57CHL1  H19A 6665   0.351   2.362   9.917 -2.2473  0.5186  0.6365
   57CHL1  H19B 6666   0.317   2.429  10.065 -1.8249 -0.2912 -1.1495
   57CHL1  H19C 6667   0.306   2.526   9.908 -2.0006 -0.9074  0.3646
   57CHL1    C1 6668   0.593   2.380  10.063  0.1553 -0.2682  0.3345
   57CHL1   H1A 6669   0.593   2.284  10.007 -0.2781  0.1019 -0.3218
   57CHL1   H1B 6670   0.696   2.415  10.082 -0.4932  1.2824  1.2626
   57CHL1    C2 6671   0.538   2.341  10.201 -0.1174 -0.5519  0.2234
   57CHL1   H2A 6672   0.585   2.247  10.238 -0.9300 -0.9849  0.1915
   57CHL1   H2B 6673   0.434   2.304  10.189 -1.0270  1.5392  1.2486
   57CHL1   C20 6674   0.623   2.616   9.305 -0.5846  0.0797 -0.1931
   57CHL1   H20 6675   0.512   2.607   9.296 -0.5542 -3.1858  1.2615
   57CHL1   C21 6676   0.676   2.478   9.277 -0.0173 -0.0744 -0.2040
   57CHL1  H21A 6677   0.684   2.458   9.168 -0.4500 -1.0929 -0.0632
   57CHL1  H21B 6678   0.613   2.397   9.320 -1.6240  0.0440 -2.1569
   57CHL1  H21C 6679   0.779   2.468   9.316 -0.2006 -1.5520 -0.0418
   57CHL1   C22 6680   0.670   2.702   9.186 -0.7619 -0.3406  0.5466
   57CHL1  H22A 6681   0.656   2.809   9.214 -0.0902  0.6424 -2.4843
   57CHL1  H22B 6682   0.780   2.691   9.181 -0.7577 -0.8149  1.4486
   57CHL1   C23 6683   0.603   2.678   9.051 -0.1344  0.7164 -0.0378
   57CHL1  H23A 6684   0.567   2.574   9.036  1.3301  0.0595  0.7661
   57CHL1  H23B 6685   0.513   2.743   9.046 -1.7881 -1.5233 -0.8565
   57CHL1   C24 6686   0.687   2.700   8.925  0.0062  0.1565  0.1309
   57CHL1  H24A 6687   0.706   2.810   8.927 -0.4775  0.2571  2.2736
   57CHL1  H24B 6688   0.785   2.650   8.939 -0.8037 -2.1748 -1.9265
   57CHL1   C25 6689   0.616   2.644   8.800  0.1081 -0.2129  0.5469
   57CHL1   H25 6690   0.633   2.534   8.812  1.7324 -0.0528  0.0009
   57CHL1   C26 6691   0.470   2.688   8.772 -0.0370 -0.3938  0.1394
   57CHL1  H26A 6692   0.441   2.655   8.670  1.6172  0.1559 -0.5492
   57CHL1  H26B 6693   0.394   2.663   8.849 -1.5367  2.0911 -0.4211
   57CHL1  H26C 6694   0.470   2.799   8.760 -0.5597 -0.4002  0.0692
   57CHL1   C27 6695   0.697   2.690   8.679  0.5295  0.5132 -0.4224
   57CHL1  H27A 6696   0.798   2.644   8.688 -1.1306 -3.4765 -0.0650
   57CHL1  H27B 6697   0.645   2.635   8.598  1.2058 -2.3867  0.9807
   57CHL1  H27C 6698   0.685   2.798   8.658 -0.9917  0.2134 -1.2924
   58CHL1    C3 6699   3.287   1.115  10.049  0.1810 -0.2733 -0.4366
   58CHL1    H3 6700   3.206   1.191  10.050  1.1301  0.7924 -0.8147
   58CHL1    O3 6701   3.325   1.113  10.183 -0.3287 -0.2317 -0.2798
   58CHL1   H3' 6702   3.287   1.189  10.227 -0.5661 -1.7197  2.2385
   58CHL1    C4 6703   3.233   0.989   9.983  0.0143  0.6969 -0.0523
   58CHL1   H4A 6704   3.307   0.906   9.984  0.0429  0.5713  4.0300
   58CHL1   H4B 6705   3.148   0.966  10.051 -0.3056  3.0016  0.4107
   58CHL1    C5 6706   3.200   1.006   9.839  0.6374 -1.0426 -0.1107
   58CHL1    C6 6707   3.079   0.980   9.787 -0.4209  0.3808  0.0422
   58CHL1    H6 6708   2.995   0.950   9.851 -0.1108  1.5081  1.0226
   58CHL1    C7 6709   3.049   0.987   9.638 -0.3639 -0.0516 -0.6007
   58CHL1   H7A 6710   2.995   0.893   9.614 -1.9591  0.4836  0.7190
   58CHL1   H7B 6711   2.973   1.064   9.616 -2.4770 -1.9040 -0.0881
   58CHL1    C8 6712   3.173   1.001   9.542 -0.4532  0.1605 -0.1941
   58CHL1    H8 6713   3.225   0.903   9.534  1.7598  1.2653 -0.1580
   58CHL1   C14 6714   3.123   1.052   9.411 -0.0397 -0.4745 -0.6887
   58CHL1   H14 6715   3.078   1.153   9.422  0.0056 -0.4033 -1.1347
   58CHL1   C15 6716   3.012   0.968   9.344 -1.1548 -0.3869 -0.0183
   58CHL1  H15A 6717   3.023   0.860   9.369  0.7645 -0.0234  0.8663
   58CHL1  H15B 6718   2.916   1.008   9.384 -0.9097 -1.6963  2.0199
   58CHL1   C16 6719   3.031   1.004   9.197  0.2298 -0.6396  0.5907
   58CHL1  H16A 6720   3.070   0.906   9.160  1.6676  0.2048 -0.2120
   58CHL1  H16B 6721   2.942   1.040   9.143  1.9579  0.9872 -1.3426
   58CHL1   C17 6722   3.155   1.102   9.188 -0.3122 -0.2710 -0.4038
   58CHL1   H17 6723   3.112   1.205   9.191 -0.4073 -0.3171 -0.2260
   58CHL1   C13 6724   3.234   1.074   9.314  0.0036 -0.2830  0.3691
   58CHL1   C18 6725   3.319   0.946   9.285 -0.1829  0.6040  0.3095
   58CHL1  H18A 6726   3.404   0.958   9.216 -1.1376  0.6090 -0.9024
   58CHL1  H18B 6727   3.364   0.912   9.380 -0.9672  0.9994  0.8404
   58CHL1  H18C 6728   3.254   0.859   9.260  0.0278  0.7830 -0.9309
   58CHL1   C12 6729   3.325   1.198   9.371 -0.0616  0.5893  0.3818
   58CHL1  H12A 6730   3.408   1.212   9.299 -0.4425  2.1418  0.2105
   58CHL1  H12B 6731   3.251   1.279   9.388 -1.1327 -0.2581 -0.1503
   58CHL1   C11 6732   3.379   1.164   9.516  0.3256  0.8290 -0.2329
   58CHL1  H11A 6733   3.441   1.075   9.493 -1.6503 -0.4615 -0.8890
   58CHL1  H11B 6734   3.447   1.247   9.543 -0.1543  1.3898 -0.6923
   58CHL1    C9 6735   3.269   1.111   9.608  0.7996 -0.5758 -0.4789
   58CHL1    H9 6736   3.198   1.196   9.623  0.8472 -0.2670 -1.9030
   58CHL1   C10 6737   3.314   1.068   9.751  0.5357 -0.1112 -0.0724
   58CHL1   C19 6738   3.420   0.958   9.740  0.1841 -0.5965  0.7412
   58CHL1  H19A 6739   3.476   0.927   9.831  0.4599  0.3292  0.9028
   58CHL1  H19B 6740   3.378   0.868   9.691  2.8867 -2.6876  2.0044
   58CHL1  H19C 6741   3.497   1.000   9.672  0.0147 -0.2607  0.7496
   58CHL1    C1 6742   3.374   1.189   9.818  0.0374 -0.1208  0.3419
   58CHL1   H1A 6743   3.454   1.235   9.756  1.6949  1.1511  3.2042
   58CHL1   H1B 6744   3.290   1.262   9.831 -1.0037 -1.3270  0.6113
   58CHL1    C2 6745   3.405   1.166   9.966 -0.0798  0.6654  0.3509
   58CHL1   H2A 6746   3.449   1.261  10.003  0.6904  0.2054  0.6456
   58CHL1   H2B 6747   3.484   1.088   9.970 -1.9213 -1.4560 -2.0291
   58CHL1   C20 6748   3.231   1.095   9.054  0.2293  0.3142 -0.4830
   58CHL1   H20 6749   3.283   0.997   9.043  2.6498  1.0662  2.6906
   58CHL1   C21 6750   3.340   1.194   9.041 -0.5541  0.1227  0.3163
   58CHL1  H21A 6751   3.298   1.288   9.083  0.6655  1.1019 -0.5876
   58CHL1  H21B 6752   3.367   1.207   8.934 -0.8073 -2.9091 -0.2077
   58CHL1  H21C 6753   3.427   1.167   9.104 -0.1928  1.1003  0.2594
   58CHL1   C22 6754   3.127   1.113   8.942  0.1909 -0.7122  0.8050
   58CHL1  H22A 6755   3.045   1.039   8.953 -2.2292  1.4593 -1.4053
   58CHL1  H22B 6756   3.091   1.217   8.931  2.0051  0.0569  1.6717
   58CHL1   C23 6757   3.178   1.099   8.800 -0.9401 -0.2676 -0.6827
   58CHL1  H23A 6758   3.288   1.083   8.810 -0.5454  2.5156  0.2986
   58CHL1  H23B 6759   3.144   1.006   8.749  1.2781 -1.2151 -0.5448
   58CHL1   C24 6760   3.163   1.225   8.712 -0.0945 -0.4303 -0.3958
   58CHL1  H24A 6761   3.055   1.217   8.686  0.0937 -5.3566 -0.5793
   58CHL1  H24B 6762   3.181   1.326   8.755  1.1992 -0.1925 -1.4119
   58CHL1   C25 6763   3.240   1.236   8.580 -0.1019  0.0127  0.0113
   58CHL1   H25 6764   3.341   1.268   8.613  0.4121 -1.5766  0.0356
   58CHL1   C26 6765   3.264   1.098   8.519  0.0997  1.0499  0.0674
   58CHL1  H26A 6766   3.340   1.039   8.573 -1.1685  1.5194  2.4783
   58CHL1  H26B 6767   3.169   1.041   8.511  0.7540 -0.0309 -0.0701
   58CHL1  H26C 6768   3.307   1.114   8.417  1.0818 -3.0880 -0.3178
   58CHL1   C27 6769   3.177   1.327   8.478  0.1219 -0.2742 -0.2649
   58CHL1  H27A 6770   3.179   1.432   8.516 -0.0675  0.0844 -1.2231
   58CHL1  H27B 6771   3.229   1.334   8.380 -1.1930  0.5364 -0.9281
   58CHL1  H27C 6772   3.074   1.297   8.452 -0.7297  1.1814  1.1857
   59CHL1    C3 6773   2.548   0.404  10.365 -0.1626 -0.3105 -0.5349
   59CHL1    H3 6774   2.470   0.483  10.362 -1.0250 -1.1692 -2.5994
   59CHL1    O3 6775   2.591   0.393  10.500 -0.2410 -0.1181 -0.3459
   59CHL1   H3' 6776   2.668   0.337  10.502 -0.9220 -1.0634  0.8264
   59CHL1    C4 6777   2.498   0.266  10.319  0.4234  0.1163 -0.2654
   59CHL1   H4A 6778   2.581   0.194  10.337 -1.2931 -2.2412 -1.2434
   59CHL1   H4B 6779   2.415   0.238  10.387  1.2282 -0.2183  0.6090
   59CHL1    C5 6780   2.464   0.264  10.171 -0.6195 -0.4538 -0.2756
   59CHL1    C6 6781   2.340   0.236  10.133 -1.2522  0.1154  0.5827
   59CHL1    H6 6782   2.267   0.211  10.210 -2.4637 -1.0906 -0.8938
   59CHL1    C7 6783   2.296   0.235   9.989 -0.0394 -0.0250 -0.0303
   59CHL1   H7A 6784   2.221   0.156   9.967 -0.3532  0.1255  0.4862
   59CHL1   H7B 6785   2.237   0.328   9.975  0.7687  0.2192 -2.2559
   59CHL1    C8 6786   2.411   0.224   9.891  0.7186  0.7208  0.2403
   59CHL1    H8 6787   2.453   0.122   9.899  1.2620  1.1019  2.9651
   59CHL1   C14 6788   2.372   0.264   9.746 -0.1972 -0.3766 -0.2086
   59CHL1   H14 6789   2.345   0.372   9.749 -0.8601 -0.3038 -4.0006
   59CHL1   C15 6790   2.244   0.193   9.682 -0.4206 -0.4931 -0.6252
   59CHL1  H15A 6791   2.253   0.083   9.694 -0.0242 -0.3296  0.7496
   59CHL1  H15B 6792   2.158   0.240   9.734 -0.8115  0.7792 -2.3162
   59CHL1   C16 6793   2.257   0.233   9.535  0.1713  0.4322 -0.2167
   59CHL1  H16A 6794   2.236   0.139   9.479 -1.4719 -0.3570  1.5987
   59CHL1  H16B 6795   2.175   0.303   9.508  1.4708  1.3428 -1.9430
   59CHL1   C17 6796   2.396   0.290   9.511  0.3762 -0.1642  0.0071
   59CHL1   H17 6797   2.390   0.400   9.512 -1.5361 -0.2192  0.3231
   59CHL1   C13 6798   2.476   0.250   9.644 -0.6763  0.3116  0.2320
   59CHL1   C18 6799   2.523   0.102   9.633 -0.0880 -0.2698  1.2976
   59CHL1  H18A 6800   2.595   0.088   9.549  0.3829  0.3421  1.5928
   59CHL1  H18B 6801   2.570   0.069   9.728  0.1743  0.5308  1.4604
   59CHL1  H18C 6802   2.443   0.028   9.611  1.1103 -0.9761 -1.0916
   59CHL1   C12 6803   2.582   0.352   9.694 -1.1422  0.4473 -0.1789
   59CHL1  H12A 6804   2.659   0.365   9.615 -0.8532  4.9287  0.5846
   59CHL1  H12B 6805   2.545   0.457   9.690  1.0063  1.2637  0.1878
   59CHL1   C11 6806   2.635   0.308   9.827 -0.7991 -0.1960 -0.2029
   59CHL1  H11A 6807   2.691   0.212   9.822  0.6592  0.5221  1.3721
   59CHL1  H11B 6808   2.709   0.388   9.847 -1.8523  0.3028  2.0372
   59CHL1    C9 6809   2.531   0.312   9.933  0.0398 -0.3945 -0.2498
   59CHL1    H9 6810   2.478   0.409   9.927 -0.0940 -0.5099 -0.9369
   59CHL1   C10 6811   2.581   0.308  10.078  0.0409  0.3956  0.1140
   59CHL1   C19 6812   2.695   0.205  10.078 -0.1060  0.7427  0.5144
   59CHL1  H19A 6813   2.795   0.238  10.042  0.7902 -1.9285  0.2637
   59CHL1  H19B 6814   2.713   0.173  10.182  1.6459  0.1277  0.0677
   59CHL1  H19C 6815   2.671   0.108  10.029 -0.8510  0.4354  1.4593
   59CHL1    C1 6816   2.631   0.445  10.130 -0.3196 -1.2032 -0.0385
   59CHL1   H1A 6817   2.723   0.471  10.072 -0.6328 -1.7724 -0.8096
   59CHL1   H1B 6818   2.553   0.521  10.108  0.2489  0.4625  3.0876
   59CHL1    C2 6819   2.667   0.445  10.281 -0.2810 -0.7599  0.6422
   59CHL1   H2A 6820   2.695   0.545  10.318 -0.1620 -1.2781  2.0254
   59CHL1   H2B 6821   2.767   0.397  10.287 -0.3426 -1.0739 -0.5788
   59CHL1   C20 6822   2.463   0.250   9.373  0.1201  0.3136 -0.6812
   59CHL1   H20 6823   2.487   0.142   9.368  1.1172  0.5432 -1.2011
   59CHL1   C21 6824   2.602   0.327   9.357 -0.5579 -0.0601  0.1018
   59CHL1  H21A 6825   2.589   0.437   9.359  1.3903  0.1909  1.0811
   59CHL1  H21B 6826   2.650   0.316   9.258 -0.1320  1.2602  0.1425
   59CHL1  H21C 6827   2.676   0.301   9.436  2.2951  2.2198 -1.6392
   59CHL1   C22 6828   2.374   0.289   9.253  0.1406  0.0739 -0.8193
   59CHL1  H22A 6829   2.443   0.269   9.168 -0.6299 -1.4227 -1.1197
   59CHL1  H22B 6830   2.289   0.218   9.246 -0.2402  0.6153 -2.0081
   59CHL1   C23 6831   2.330   0.435   9.241  0.3014 -0.4173  0.2146
   59CHL1  H23A 6832   2.281   0.462   9.337  0.4150 -2.9242  1.0234
   59CHL1  H23B 6833   2.419   0.502   9.239 -0.2482  0.3932  1.4184
   59CHL1   C24 6834   2.241   0.455   9.118  0.2080 -0.6451  0.2485
   59CHL1  H24A 6835   2.147   0.395   9.114  0.0704 -0.4029 -0.4491
   59CHL1  H24B 6836   2.196   0.557   9.121  0.3774 -0.5134 -0.9233
   59CHL1   C25 6837   2.312   0.440   8.977 -0.0183  0.9866 -0.2763
   59CHL1   H25 6838   2.312   0.330   8.966 -0.1067  0.9239  0.3075
   59CHL1   C26 6839   2.229   0.507   8.869  0.0050 -0.9307  0.6357
   59CHL1  H26A 6840   2.219   0.615   8.894  2.6683 -0.1995 -1.0388
   59CHL1  H26B 6841   2.276   0.477   8.773 -0.5742 -1.5754  0.5449
   59CHL1  H26C 6842   2.123   0.474   8.870 -0.5008  0.5652  0.3097
   59CHL1   C27 6843   2.461   0.502   8.974  0.0307  0.2006  0.6714
   59CHL1  H27A 6844   2.512   0.489   8.876 -0.7685  1.1561  0.1113
   59CHL1  H27B 6845   2.454   0.608   9.008  2.0146  0.9588 -1.0743
   59CHL1  H27C 6846   2.523   0.448   9.049  1.0075 -0.1574 -0.3789
   60CHL1    C3 6847   1.960   6.023  10.281 -0.2095  0.4466  0.2975
   60CHL1    H3 6848   1.903   5.950  10.219  0.4013  0.0129  0.2423
   60CHL1    O3 6849   1.937   5.986  10.418 -0.8555 -0.5243 -0.4034
   60CHL1   H3' 6850   1.989   6.048  10.468 -1.7332  2.6841 -3.1100
   60CHL1    C4 6851   2.110   6.019  10.252  0.1204  0.0944 -0.3941
   60CHL1   H4A 6852   2.156   6.091  10.322 -0.6296 -0.7287  1.0173
   60CHL1   H4B 6853   2.144   5.913  10.258 -1.0166 -0.2432  0.5231
   60CHL1    C5 6854   2.142   6.062  10.107 -0.0362 -0.1502  0.0505
   60CHL1    C6 6855   2.214   5.981  10.021  0.1485  0.3040  0.1996
   60CHL1    H6 6856   2.240   5.879  10.052  3.1670  0.6596 -0.7538
   60CHL1    C7 6857   2.249   6.029   9.884 -0.1877  0.4239  0.4654
   60CHL1   H7A 6858   2.353   6.002   9.856 -0.2662  0.7195 -0.1116
   60CHL1   H7B 6859   2.178   5.992   9.807 -1.2859 -2.1270  2.5191
   60CHL1    C8 6860   2.255   6.182   9.876 -0.0767 -1.3269  1.0733
   60CHL1    H8 6861   2.343   6.225   9.930 -0.4513  2.8141 -1.1943
   60CHL1   C14 6862   2.274   6.232   9.729 -0.2922  0.1766  0.0227
   60CHL1   H14 6863   2.190   6.175   9.684 -2.0113  0.6424  2.4395
   60CHL1   C15 6864   2.392   6.182   9.646  0.3730  0.7325 -0.5293
   60CHL1  H15A 6865   2.488   6.205   9.696 -0.3153  2.3694  0.0923
   60CHL1  H15B 6866   2.394   6.072   9.626 -0.8211  0.7004 -0.5505
   60CHL1   C16 6867   2.385   6.270   9.518 -0.3792 -0.8011 -0.5935
   60CHL1  H16A 6868   2.493   6.289   9.501  0.0885 -0.7956  1.9798
   60CHL1  H16B 6869   2.348   6.227   9.423  0.9669  3.2564 -3.2111
   60CHL1   C17 6870   2.289   6.387   9.554  0.2126 -0.0080 -0.3169
   60CHL1   H17 6871   2.198   6.354   9.500  1.6334 -1.3003 -2.0192
   60CHL1   C13 6872   2.259   6.382   9.705  0.5927  0.8344  0.8056
   60CHL1   C18 6873   2.368   6.457   9.785 -0.0150 -0.3606  0.4556
   60CHL1  H18A 6874   2.365   6.567   9.772  1.3621 -0.2930  0.6101
   60CHL1  H18B 6875   2.359   6.428   9.892 -0.5284  0.0433  0.5275
   60CHL1  H18C 6876   2.469   6.421   9.756 -0.4920  0.4250 -2.4641
   60CHL1   C12 6877   2.119   6.417   9.751  0.9569  0.1612 -0.2918
   60CHL1  H12A 6878   2.110   6.526   9.734  1.5696  0.3027  0.2664
   60CHL1  H12B 6879   2.046   6.367   9.683  0.5112  1.7943 -1.0562
   60CHL1   C11 6880   2.091   6.392   9.902  0.5602  0.2455  0.1041
   60CHL1  H11A 6881   2.168   6.450   9.958 -0.6199 -0.5130  2.6678
   60CHL1  H11B 6882   1.990   6.430   9.928  0.6001  0.7231 -0.4282
   60CHL1    C9 6883   2.120   6.242   9.932 -0.2464  0.6680 -0.4785
   60CHL1    H9 6884   2.037   6.193   9.877 -1.6489  1.5415  0.7808
   60CHL1   C10 6885   2.101   6.206  10.078  0.0516 -0.4830 -0.1762
   60CHL1   C19 6886   2.173   6.316  10.164 -0.6173 -0.0214  1.4095
   60CHL1  H19A 6887   2.182   6.290  10.272  0.0390  1.2293  1.6752
   60CHL1  H19B 6888   2.277   6.329  10.129 -1.4725  1.9231 -0.7032
   60CHL1  H19C 6889   2.126   6.417  10.160 -1.0510 -0.2604  0.3404
   60CHL1    C1 6890   1.946   6.201  10.121  0.0256 -0.4161  0.2894
   60CHL1   H1A 6891   1.906   6.304  10.106 -1.9250 -1.3422 -1.3225
   60CHL1   H1B 6892   1.894   6.132  10.051  0.1946  0.1415 -0.4010
   60CHL1    C2 6893   1.901   6.155  10.260 -0.3110 -0.0842  0.0665
   60CHL1   H2A 6894   1.791   6.161  10.255 -0.3913 -0.7676  0.8441
   60CHL1   H2B 6895   1.951   6.223  10.333  0.0888  0.1778 -0.4454
   60CHL1   C20 6896   2.333   6.526   9.498 -1.0208 -0.0373  0.2604
   60CHL1   H20 6897   2.423   6.546   9.559 -0.9335  2.3544 -0.5802
   60CHL1   C21 6898   2.223   6.626   9.526 -0.0237 -0.8082  0.5632
   60CHL1  H21A 6899   2.125   6.574   9.515  0.3084 -1.4019  0.3663
   60CHL1  H21B 6900   2.223   6.719   9.467 -0.7145 -0.4335  1.1275
   60CHL1  H21C 6901   2.233   6.661   9.631 -1.6273 -0.5936  0.6734
   60CHL1   C22 6902   2.367   6.514   9.346 -0.2779  0.6993 -0.3943
   60CHL1  H22A 6903   2.452   6.444   9.335  0.1042  0.9018  1.0464
   60CHL1  H22B 6904   2.284   6.456   9.299  0.0805 -0.8399  0.7824
   60CHL1   C23 6905   2.399   6.646   9.281  0.1977  0.3736 -0.5915
   60CHL1  H23A 6906   2.307   6.705   9.259 -0.2852  0.1920  0.8136
   60CHL1  H23B 6907   2.466   6.713   9.339 -0.4009 -0.6580  1.3685
   60CHL1   C24 6908   2.460   6.624   9.145  0.1237  1.0184  0.4858
   60CHL1  H24A 6909   2.527   6.537   9.161  0.8629  1.5578  0.3261
   60CHL1  H24B 6910   2.376   6.589   9.082  0.5893  1.3967 -0.3527
   60CHL1   C25 6911   2.529   6.742   9.072 -0.4662  0.6503  0.6302
   60CHL1   H25 6912   2.596   6.790   9.146 -0.0331 -3.6359  3.3532
   60CHL1   C26 6913   2.612   6.688   8.955 -0.3882 -0.6810  0.7926
   60CHL1  H26A 6914   2.681   6.761   8.909  1.4169 -2.0111  1.2718
   60CHL1  H26B 6915   2.678   6.602   8.979  0.9495 -0.0825 -0.5505
   60CHL1  H26C 6916   2.546   6.654   8.873 -0.2285 -0.2655  0.4921
   60CHL1   C27 6917   2.424   6.831   9.006  0.0206  0.3759 -0.4689
   60CHL1  H27A 6918   2.342   6.777   8.954  0.6762 -0.9925 -0.1153
   60CHL1  H27B 6919   2.376   6.892   9.086  1.5030  0.7511  0.1688
   60CHL1  H27C 6920   2.462   6.910   8.938 -1.3302  0.1803 -1.4847
   61CHL1    C3 6921   5.430   5.375  10.333 -0.7558 -0.0519  0.1501
   61CHL1    H3 6922   5.381   5.281  10.301 -0.9532 -0.2972  1.1419
   61CHL1    O3 6923   5.376   5.416  10.459 -0.4239  0.2183 -0.5529
   61CHL1   H3' 6924   5.430   5.490  10.488  0.5175 -0.7420  0.2175
   61CHL1    C4 6925   5.580   5.335  10.345 -0.5758  0.1596 -0.5658
   61CHL1   H4A 6926   5.638   5.412  10.401  1.1126 -1.8958  0.6527
   61CHL1   H4B 6927   5.594   5.245  10.409 -1.6472  1.1878  1.1983
   61CHL1    C5 6928   5.645   5.310  10.209  0.0003  0.6951 -0.4397
   61CHL1    C6 6929   5.690   5.190  10.185  0.2184  0.4240  0.8853
   61CHL1    H6 6930   5.690   5.112  10.263  0.3935  1.9961  2.5011
   61CHL1    C7 6931   5.771   5.160  10.067  0.5217 -0.1575  0.1914
   61CHL1   H7A 6932   5.858   5.104  10.108 -0.2169 -1.6451 -0.2369
   61CHL1   H7B 6933   5.725   5.083  10.002 -1.6250  0.0450  1.4094
   61CHL1    C8 6934   5.808   5.289   9.983  0.4344  0.4900  0.3534
   61CHL1    H8 6935   5.892   5.341  10.034  0.1861 -0.7373  2.0881
   61CHL1   C14 6936   5.863   5.246   9.846 -0.1855 -0.0089  0.0489
   61CHL1   H14 6937   5.782   5.196   9.789 -0.5028  0.1800  0.3280
   61CHL1   C15 6938   5.990   5.158   9.845  0.1338  0.3150  0.7753
   61CHL1  H15A 6939   6.063   5.181   9.925  0.0132 -0.3109  1.0749
   61CHL1  H15B 6940   5.978   5.048   9.838 -1.1569  0.4546  0.6119
   61CHL1   C16 6941   6.060   5.191   9.707  0.5715 -0.4290 -1.1154
   61CHL1  H16A 6942   6.162   5.233   9.720  1.2711 -1.5105 -2.7494
   61CHL1  H16B 6943   6.068   5.104   9.639  3.1486 -0.4070 -0.9378
   61CHL1   C17 6944   5.971   5.299   9.645  0.5479 -0.6238 -0.1351
   61CHL1   H17 6945   5.886   5.249   9.594  0.2209 -0.1854 -0.0279
   61CHL1   C13 6946   5.900   5.371   9.760 -0.9828  0.1514  0.2560
   61CHL1   C18 6947   6.001   5.469   9.820  0.1189  0.3457  0.1007
   61CHL1  H18A 6948   6.096   5.417   9.846 -0.2642  0.0016  0.8568
   61CHL1  H18B 6949   6.022   5.559   9.759 -2.2514  0.4713 -0.6383
   61CHL1  H18C 6950   5.956   5.510   9.913 -0.6149  3.2608 -1.4322
   61CHL1   C12 6951   5.773   5.446   9.728  0.1488  0.5120 -0.2390
   61CHL1  H12A 6952   5.786   5.531   9.657  2.7949 -0.1263 -0.6317
   61CHL1  H12B 6953   5.695   5.379   9.687 -0.2540  0.8522 -0.0378
   61CHL1   C11 6954   5.707   5.492   9.859  0.4014 -0.1708  0.7454
   61CHL1  H11A 6955   5.771   5.569   9.907  2.6390 -1.1359 -0.5134
   61CHL1  H11B 6956   5.609   5.540   9.839  1.2624  0.6596 -1.8621
   61CHL1    C9 6957   5.689   5.380   9.968  0.1834 -0.8872 -0.1632
   61CHL1    H9 6958   5.610   5.313   9.929 -0.2979 -1.4647  1.7057
   61CHL1   C10 6959   5.637   5.425  10.110  0.3324 -0.4424 -0.9420
   61CHL1   C19 6960   5.724   5.541  10.158 -0.0301 -0.2102 -0.7379
   61CHL1  H19A 6961   5.716   5.635  10.099 -0.3930 -0.2314 -0.7245
   61CHL1  H19B 6962   5.694   5.575  10.260  2.4777  0.0828 -0.0204
   61CHL1  H19C 6963   5.831   5.513  10.166 -0.3498 -1.8016 -1.6023
   61CHL1    C1 6964   5.493   5.468  10.100  0.2567  0.1628 -0.4707
   61CHL1   H1A 6965   5.482   5.557  10.033 -0.8646 -0.7234 -1.5008
   61CHL1   H1B 6966   5.434   5.384  10.059 -1.7851  0.5733  1.4227
   61CHL1    C2 6967   5.424   5.495  10.238  0.2113 -0.1337  0.3393
   61CHL1   H2A 6968   5.319   5.524  10.217  0.2028 -1.1658 -1.2330
   61CHL1   H2B 6969   5.470   5.577  10.297  0.8238 -2.3958  3.2760
   61CHL1   C20 6970   6.039   5.392   9.541 -0.0106 -0.4282 -0.4564
   61CHL1   H20 6971   5.989   5.491   9.546  1.0987  0.1188  0.0168
   61CHL1   C21 6972   6.011   5.335   9.396  0.5496 -0.5851  0.2927
   61CHL1  H21A 6973   6.078   5.255   9.359  1.3396  0.8747 -1.6041
   61CHL1  H21B 6974   6.001   5.418   9.322 -2.7695  0.4281  1.6587
   61CHL1  H21C 6975   5.906   5.297   9.391  0.4855 -0.3045 -4.3308
   61CHL1   C22 6976   6.190   5.424   9.551  0.7334  0.1462 -0.3470
   61CHL1  H22A 6977   6.211   5.459   9.654  0.2425  0.2077 -0.2631
   61CHL1  H22B 6978   6.238   5.325   9.539  1.0257 -0.3947  3.7831
   61CHL1   C23 6979   6.250   5.531   9.456 -0.0509  0.3169 -0.2190
   61CHL1  H23A 6980   6.358   5.546   9.475  0.0862  0.5068 -1.1103
   61CHL1  H23B 6981   6.244   5.479   9.358  0.7705 -0.1119 -0.0563
   61CHL1   C24 6982   6.181   5.668   9.459  0.0716 -0.7393  0.8383
   61CHL1  H24A 6983   6.071   5.668   9.450 -0.0870 -1.1000  2.4137
   61CHL1  H24B 6984   6.206   5.724   9.552 -0.6188 -2.8854  2.3733
   61CHL1   C25 6985   6.221   5.775   9.342  0.4207  0.7168 -0.0460
   61CHL1   H25 6986   6.330   5.757   9.330  0.0645 -0.2118 -2.3416
   61CHL1   C26 6987   6.151   5.735   9.215  0.5808 -0.1919 -0.2371
   61CHL1  H26A 6988   6.047   5.770   9.225  0.7353 -0.2328  1.8425
   61CHL1  H26B 6989   6.201   5.791   9.134  1.4616  0.0149  0.4364
   61CHL1  H26C 6990   6.153   5.625   9.199  0.4792 -0.0828 -1.0653
   61CHL1   C27 6991   6.191   5.920   9.370  0.6740  0.1315 -0.4314
   61CHL1  H27A 6992   6.083   5.938   9.385  0.4806 -1.1241 -0.3041
   61CHL1  H27B 6993   6.233   5.953   9.468 -2.3104 -0.5374  1.1714
   61CHL1  H27C 6994   6.234   5.987   9.292 -3.1723  1.9337 -1.2493
   62CHL1    C3 6995   0.026   2.024   9.992 -0.3525 -0.2155  0.3262
   62CHL1    H3 6996   0.056   1.933   9.936 -1.1920 -1.1007  1.2810
   62CHL1    O3 6997   0.002   1.999  10.125 -0.0562 -0.7132  0.2443
   62CHL1   H3' 6998  -0.030   2.080  10.165 -0.1161 -0.6130 -0.0123
   62CHL1    C4 6999   0.134   2.141   9.971 -0.0950  1.1250  0.5394
   62CHL1   H4A 7000   0.093   2.235  10.014 -1.4645  1.7838 -1.9598
   62CHL1   H4B 7001   0.227   2.114  10.025 -0.7591  0.2983  1.3080
   62CHL1    C5 7002   0.153   2.158   9.820 -0.2023 -0.2317 -0.5984
   62CHL1    C6 7003   0.270   2.148   9.754 -1.1367 -0.1860 -0.7990
   62CHL1    H6 7004   0.358   2.142   9.821 -1.4294  0.9676 -0.2784
   62CHL1    C7 7005   0.297   2.178   9.610 -0.5873  0.0170 -0.6076
   62CHL1   H7A 7006   0.376   2.256   9.612 -0.5113 -0.0655 -0.2591
   62CHL1   H7B 7007   0.333   2.084   9.563 -0.3364  0.0011 -0.3836
   62CHL1    C8 7008   0.176   2.228   9.531  0.9381 -0.1352  0.3124
   62CHL1    H8 7009   0.165   2.338   9.539  1.8962  0.0008 -0.0976
   62CHL1   C14 7010   0.192   2.198   9.384  0.1062 -0.3102 -0.2805
   62CHL1   H14 7011   0.198   2.087   9.384  1.1034 -0.3626  3.1862
   62CHL1   C15 7012   0.318   2.246   9.309  0.1089 -0.1532  0.2220
   62CHL1  H15A 7013   0.326   2.354   9.335 -2.4806  0.2886 -0.5779
   62CHL1  H15B 7014   0.407   2.190   9.346  0.0349 -0.6947 -0.4089
   62CHL1   C16 7015   0.276   2.232   9.157  0.4071 -0.0146 -0.7171
   62CHL1  H16A 7016   0.287   2.335   9.116  1.6770 -1.1532 -3.4503
   62CHL1  H16B 7017   0.339   2.166   9.094 -2.8532 -2.5843 -1.5676
   62CHL1   C17 7018   0.124   2.201   9.158  0.8236  0.1722 -0.0749
   62CHL1   H17 7019   0.112   2.091   9.150  1.9240  0.0920 -0.7816
   62CHL1   C13 7020   0.073   2.240   9.303  0.2223  0.8196  0.4682
   62CHL1   C18 7021   0.049   2.390   9.311  0.4308 -0.5703  0.3714
   62CHL1  H18A 7022  -0.051   2.398   9.264  1.1328 -0.9237 -1.2382
   62CHL1  H18B 7023   0.031   2.426   9.415  1.7114  2.3009 -0.3197
   62CHL1  H18C 7024   0.108   2.460   9.248  0.4140 -1.5063 -0.7235
   62CHL1   C12 7025  -0.047   2.154   9.355  0.4379 -0.0070 -0.1357
   62CHL1  H12A 7026  -0.144   2.171   9.302 -0.6153 -0.6917  1.4757
   62CHL1  H12B 7027  -0.011   2.049   9.354  0.9583  0.1689 -0.3663
   62CHL1   C11 7028  -0.080   2.185   9.497  0.2495 -0.2288 -0.5251
   62CHL1  H11A 7029  -0.110   2.292   9.503 -0.5642 -0.4730 -0.0352
   62CHL1  H11B 7030  -0.165   2.121   9.529 -0.6798  0.1957 -2.0283
   62CHL1    C9 7031   0.047   2.164   9.587  1.0571 -0.4385 -0.2868
   62CHL1    H9 7032   0.063   2.054   9.579 -0.3374 -0.5684 -1.9775
   62CHL1   C10 7033   0.023   2.187   9.738 -0.8271 -0.3461  0.2366
   62CHL1   C19 7034  -0.010   2.338   9.764 -0.0623 -1.0008 -0.4877
   62CHL1  H19A 7035   0.047   2.417   9.710  1.1787 -0.1952  1.8618
   62CHL1  H19B 7036  -0.119   2.355   9.748 -0.2874 -0.5482  1.2698
   62CHL1  H19C 7037  -0.003   2.367   9.871 -0.8006  1.3060 -1.0022
   62CHL1    C1 7038  -0.093   2.093   9.781 -0.6056  0.1472 -0.8290
   62CHL1   H1A 7039  -0.193   2.134   9.755  0.0168  3.3056  1.1744
   62CHL1   H1B 7040  -0.069   1.990   9.747  2.5319  0.1787  0.8591
   62CHL1    C2 7041  -0.107   2.069   9.933 -0.0147  0.3556 -0.4378
   62CHL1   H2A 7042  -0.170   1.978   9.945  0.0880  0.4222  0.7964
   62CHL1   H2B 7043  -0.139   2.163   9.983  1.5039 -0.0976  1.5186
   62CHL1   C20 7044   0.042   2.266   9.042  0.1677  0.0378 -0.7772
   62CHL1   H20 7045   0.005   2.365   9.076  0.2490  0.2267 -1.2281
   62CHL1   C21 7046  -0.091   2.181   9.017  0.6402 -0.1804 -0.2662
   62CHL1  H21A 7047  -0.069   2.073   9.001  2.0519  0.2482 -1.4525
   62CHL1  H21B 7048  -0.145   2.225   8.931  1.8757 -0.7761 -1.3911
   62CHL1  H21C 7049  -0.152   2.206   9.106 -1.2301 -0.7287 -1.3475
   62CHL1   C22 7050   0.128   2.283   8.915  0.2323  0.0758  0.1399
   62CHL1  H22A 7051   0.197   2.364   8.945 -1.0285  0.3610  2.5842
   62CHL1  H22B 7052   0.194   2.196   8.894  0.6871  0.6378 -0.7976
   62CHL1   C23 7053   0.056   2.329   8.789 -0.9752 -0.0268  0.7269
   62CHL1  H23A 7054  -0.008   2.253   8.739 -0.2480 -0.3298  0.2481
   62CHL1  H23B 7055  -0.003   2.416   8.825  1.4480  2.4290 -0.8830
   62CHL1   C24 7056   0.154   2.395   8.687  0.2218 -0.8078 -0.3837
   62CHL1  H24A 7057   0.091   2.425   8.601  0.4850 -0.5738 -0.4956
   62CHL1  H24B 7058   0.196   2.483   8.739  0.2549 -1.8377  1.4436
   62CHL1   C25 7059   0.256   2.298   8.629 -0.7908 -0.3786  0.5407
   62CHL1   H25 7060   0.325   2.281   8.714 -0.2581  0.2330  0.2409
   62CHL1   C26 7061   0.198   2.166   8.582  0.6193 -0.9685  0.1675
   62CHL1  H26A 7062   0.122   2.191   8.505  0.3091 -1.2801  0.3649
   62CHL1  H26B 7063   0.283   2.112   8.535  0.9747  2.0860 -3.1672
   62CHL1  H26C 7064   0.140   2.101   8.652  0.4123  1.5771  2.5135
   62CHL1   C27 7065   0.347   2.376   8.527 -0.2794  0.0559 -0.5346
   62CHL1  H27A 7066   0.397   2.459   8.581  2.6544 -1.8687 -0.0632
   62CHL1  H27B 7067   0.430   2.314   8.487  1.6334  0.4631  2.4539
   62CHL1  H27C 7068   0.285   2.400   8.438 -0.4440 -2.0342 -1.0328
   63CHL1    C3 7069   1.393   3.717  10.436 -0.0708 -0.1513  0.1807
   63CHL1    H3 7070   1.490   3.771  10.448 -0.5353  0.7647 -0.1262
   63CHL1    O3 7071   1.340   3.677  10.563  0.0903  0.1181  0.3593
   63CHL1   H3' 7072   1.266   3.617  10.550  0.2202 -0.6230  2.5866
   63CHL1    C4 7073   1.286   3.776  10.345  0.6014  0.3807 -0.1599
   63CHL1   H4A 7074   1.200   3.706  10.350  0.1325  1.0191  1.1418
   63CHL1   H4B 7075   1.252   3.869  10.396 -2.6360 -1.2140  0.8815
   63CHL1    C5 7076   1.327   3.797  10.205  0.5949 -0.5779  0.2013
   63CHL1    C6 7077   1.317   3.918  10.153  0.2610 -0.1434  0.1776
   63CHL1    H6 7078   1.289   4.002  10.218 -1.8070 -0.3993 -0.3167
   63CHL1    C7 7079   1.365   3.951  10.014 -0.3755  0.7626  0.4998
   63CHL1   H7A 7080   1.297   4.018   9.957  1.5304 -0.4429 -3.5842
   63CHL1   H7B 7081   1.463   4.004  10.018 -0.4456  1.1939 -2.0654
   63CHL1    C8 7082   1.369   3.830   9.922  0.4679 -0.7575 -0.1249
   63CHL1    H8 7083   1.265   3.798   9.903  0.0184  0.0143  0.9363
   63CHL1   C14 7084   1.441   3.872   9.792 -0.1478 -0.2473 -0.4337
   63CHL1   H14 7085   1.539   3.911   9.827 -0.1710  0.3384 -0.9901
   63CHL1   C15 7086   1.386   3.989   9.712 -0.1497 -0.1686 -0.1831
   63CHL1  H15A 7087   1.276   3.981   9.699 -0.0733 -0.6553 -0.5992
   63CHL1  H15B 7088   1.404   4.091   9.751  0.7496 -0.7904  1.1058
   63CHL1   C16 7089   1.450   3.970   9.578 -0.5428  0.2281  0.3689
   63CHL1  H16A 7090   1.368   3.962   9.504  0.0517 -0.4460 -0.2329
   63CHL1  H16B 7091   1.526   4.045   9.546  1.5797 -1.1537  1.9252
   63CHL1   C17 7092   1.529   3.836   9.583  0.0897  0.3252  0.5362
   63CHL1   H17 7093   1.627   3.871   9.621  0.2420  0.7682 -0.2531
   63CHL1   C13 7094   1.457   3.761   9.693  0.0227  0.0567  0.0069
   63CHL1   C18 7095   1.321   3.702   9.644  0.9978  0.1387 -0.3061
   63CHL1  H18A 7096   1.270   3.646   9.725  0.7516 -0.3137 -0.7681
   63CHL1  H18B 7097   1.256   3.784   9.605 -0.3054 -0.7097  0.0218
   63CHL1  H18C 7098   1.332   3.624   9.566 -1.4698 -1.2453  0.6180
   63CHL1   C12 7099   1.543   3.656   9.762  0.7866  0.5208  0.1882
   63CHL1  H12A 7100   1.538   3.563   9.702 -0.1044  1.1783 -0.7837
   63CHL1  H12B 7101   1.649   3.682   9.782  1.1206 -0.2543 -0.4998
   63CHL1   C11 7102   1.494   3.603   9.910 -0.3982 -0.7979  0.1630
   63CHL1  H11A 7103   1.404   3.544   9.883 -0.4940 -0.0106 -1.3470
   63CHL1  H11B 7104   1.568   3.537   9.960 -1.5607 -0.9283  1.8045
   63CHL1    C9 7105   1.449   3.722   9.999  0.2651  0.1351 -1.1188
   63CHL1    H9 7106   1.541   3.774  10.034 -0.8606  2.6296 -1.6770
   63CHL1   C10 7107   1.378   3.672  10.125  0.0100  0.3318  0.0661
   63CHL1   C19 7108   1.261   3.579  10.103  0.6219 -0.3994  0.0250
   63CHL1  H19A 7109   1.297   3.483  10.059  1.2267 -0.2662  0.2276
   63CHL1  H19B 7110   1.226   3.537  10.200  0.1191 -1.0307 -0.4188
   63CHL1  H19C 7111   1.182   3.623  10.038 -0.2160 -0.3860  1.0259
   63CHL1    C1 7112   1.489   3.615  10.224 -0.3051  0.4667  0.4103
   63CHL1   H1A 7113   1.537   3.527  10.176  1.1097  1.6492 -0.4209
   63CHL1   H1B 7114   1.563   3.697  10.235 -0.2413  0.5728 -0.7037
   63CHL1    C2 7115   1.437   3.583  10.366  0.1064  0.3999  0.0798
   63CHL1   H2A 7116   1.516   3.528  10.423 -0.2078 -1.0679 -0.8475
   63CHL1   H2B 7117   1.355   3.508  10.360  0.3539  0.2288 -1.8626
   63CHL1   C20 7118   1.539   3.766   9.437 -0.3427  0.2848 -0.1714
   63CHL1   H20 7119   1.436   3.763   9.395  0.3351 -2.7738 -1.9626
   63CHL1   C21 7120   1.607   3.627   9.465 -0.1317 -0.9022 -0.3646
   63CHL1  H21A 7121   1.644   3.588   9.367  1.9710  4.0759 -1.8638
   63CHL1  H21B 7122   1.530   3.561   9.510  1.0639 -1.7137  0.5819
   63CHL1  H21C 7123   1.695   3.632   9.533  0.3461  1.9090 -1.0521
   63CHL1   C22 7124   1.628   3.854   9.352 -0.2604 -0.8252 -0.2366
   63CHL1  H22A 7125   1.585   3.956   9.343  0.3965 -0.2190  2.5532
   63CHL1  H22B 7126   1.732   3.857   9.391  0.0460  1.1521 -1.1235
   63CHL1   C23 7127   1.638   3.820   9.195 -0.3044  0.1038 -0.2045
   63CHL1  H23A 7128   1.707   3.888   9.140 -2.7524  1.5589 -1.6904
   63CHL1  H23B 7129   1.678   3.717   9.189  0.1210  0.0456  2.4704
   63CHL1   C24 7130   1.506   3.846   9.121  0.8428  0.2662 -0.3582
   63CHL1  H24A 7131   1.421   3.846   9.192  1.7597 -0.1900  0.7659
   63CHL1  H24B 7132   1.501   3.949   9.080 -0.8180  0.4992  0.3568
   63CHL1   C25 7133   1.468   3.750   9.006 -0.6653 -0.5651 -0.3754
   63CHL1   H25 7134   1.380   3.802   8.963  0.5098 -0.2554 -2.5802
   63CHL1   C26 7135   1.573   3.765   8.907  0.2086  0.4658  0.2670
   63CHL1  H26A 7136   1.654   3.690   8.922  1.2810  1.9772  2.4699
   63CHL1  H26B 7137   1.531   3.750   8.804  0.0144  0.5648  0.3319
   63CHL1  H26C 7138   1.611   3.868   8.917 -1.6308  1.0363  2.0522
   63CHL1   C27 7139   1.443   3.614   9.055  0.7939 -0.1778 -0.1489
   63CHL1  H27A 7140   1.369   3.596   9.136  0.0281 -1.0460 -1.0043
   63CHL1  H27B 7141   1.396   3.565   8.967  1.3732  1.7151 -1.5834
   63CHL1  H27C 7142   1.537   3.559   9.077 -0.1403 -0.8939  2.3912
   64CHL1    C3 7143   0.614   3.155  10.038 -0.0618  0.3178 -0.0562
   64CHL1    H3 7144   0.633   3.047  10.026 -0.0916  0.1684  1.0950
   64CHL1    O3 7145   0.580   3.173  10.173  0.2567  0.3482  0.0522
   64CHL1   H3' 7146   0.545   3.262  10.183  0.1328  0.2907  0.1204
   64CHL1    C4 7147   0.739   3.240  10.007 -0.3869 -0.4637 -0.3626
   64CHL1   H4A 7148   0.705   3.341  10.037 -0.5150 -0.9198  1.1157
   64CHL1   H4B 7149   0.819   3.214  10.080 -2.7556 -2.5969  1.6773
   64CHL1    C5 7150   0.782   3.244   9.861  0.8424  0.3850  0.7126
   64CHL1    C6 7151   0.907   3.204   9.826 -0.0020  0.5519 -0.4282
   64CHL1    H6 7152   0.989   3.197   9.899  1.6081  2.0899 -2.0087
   64CHL1    C7 7153   0.954   3.181   9.682 -0.0915 -0.6599  0.3558
   64CHL1   H7A 7154   1.050   3.233   9.660 -0.2915 -0.7771 -0.8523
   64CHL1   H7B 7155   0.974   3.075   9.658  1.6384 -0.6848  1.7439
   64CHL1    C8 7156   0.856   3.251   9.583 -0.4323 -0.1093  0.8489
   64CHL1    H8 7157   0.869   3.362   9.584 -0.5009 -0.0979  0.5917
   64CHL1   C14 7158   0.873   3.201   9.441  0.2566 -0.4861  0.1711
   64CHL1   H14 7159   0.851   3.092   9.437  2.6808 -1.0563  0.8430
   64CHL1   C15 7160   1.015   3.208   9.386  0.5284  0.2365  0.3121
   64CHL1  H15A 7161   1.040   3.313   9.410 -2.6914  1.0453  0.6182
   64CHL1  H15B 7162   1.080   3.130   9.431 -0.7598 -0.0363  1.8039
   64CHL1   C16 7163   1.006   3.189   9.228 -0.5384 -0.8274  0.4736
   64CHL1  H16A 7164   1.042   3.285   9.185 -1.6837  0.4653  2.2496
   64CHL1  H16B 7165   1.064   3.102   9.191  2.1418  0.9220  0.2542
   64CHL1   C17 7166   0.854   3.184   9.198  0.4557 -0.5444 -0.0911
   64CHL1   H17 7167   0.825   3.079   9.215  0.7324 -0.4183  1.2980
   64CHL1   C13 7168   0.793   3.262   9.327 -0.0026  0.1731 -0.0997
   64CHL1   C18 7169   0.818   3.418   9.310  0.5037  0.0370  0.1268
   64CHL1  H18A 7170   0.764   3.470   9.392  0.0053 -1.1363  0.5740
   64CHL1  H18B 7171   0.924   3.450   9.312  0.0620  1.6019 -0.4800
   64CHL1  H18C 7172   0.780   3.460   9.215 -0.1038  1.1185  0.8303
   64CHL1   C12 7173   0.642   3.236   9.362  0.2235 -0.7118  0.0728
   64CHL1  H12A 7174   0.582   3.295   9.290  0.2212 -0.9681 -0.1342
   64CHL1  H12B 7175   0.634   3.126   9.357  0.9498 -0.7471 -0.3845
   64CHL1   C11 7176   0.608   3.269   9.507 -0.0093 -0.3318  0.2483
   64CHL1  H11A 7177   0.604   3.379   9.501 -1.8576 -0.4723 -2.2214
   64CHL1  H11B 7178   0.506   3.231   9.528 -0.9857  2.4942  1.0200
   64CHL1    C9 7179   0.710   3.227   9.614 -0.2950  0.5935 -0.6336
   64CHL1    H9 7180   0.698   3.117   9.619 -0.5194  0.5845 -1.3204
   64CHL1   C10 7181   0.670   3.264   9.761  0.5949 -0.3770  0.0168
   64CHL1   C19 7182   0.634   3.412   9.757  0.3163 -0.4459 -0.4740
   64CHL1  H19A 7183   0.694   3.477   9.690 -1.6153  0.6173 -1.2505
   64CHL1  H19B 7184   0.531   3.415   9.714 -0.3557  0.6459  1.0965
   64CHL1  H19C 7185   0.618   3.469   9.851 -1.6883  0.8763 -1.5129
   64CHL1    C1 7186   0.541   3.177   9.799  0.3123 -0.2035 -0.1555
   64CHL1   H1A 7187   0.450   3.204   9.741  1.7212  0.8318 -2.0139
   64CHL1   H1B 7188   0.567   3.070   9.786 -0.9678 -0.5344 -0.1216
   64CHL1    C2 7189   0.498   3.199   9.947  0.4979  0.0741  0.3057
   64CHL1   H2A 7190   0.419   3.125   9.971  1.2445 -0.6324  0.6520
   64CHL1   H2B 7191   0.460   3.301   9.967 -2.7851 -1.1310  0.8098
   64CHL1   C20 7192   0.818   3.230   9.054 -0.8999  0.0470  0.9218
   64CHL1   H20 7193   0.839   3.338   9.038  3.0124 -0.8450 -1.3874
   64CHL1   C21 7194   0.669   3.202   9.028  0.2198 -0.3512  0.1487
   64CHL1  H21A 7195   0.650   3.238   8.925  4.6372 -2.6549 -1.7096
   64CHL1  H21B 7196   0.601   3.250   9.102 -0.7065 -0.5197 -0.5799
   64CHL1  H21C 7197   0.653   3.093   9.037 -0.1388 -0.3060  0.0666
   64CHL1   C22 7198   0.897   3.149   8.940  0.1101 -0.5453  0.1063
   64CHL1  H22A 7199   1.006   3.138   8.955  0.1195 -1.9318 -0.7395
   64CHL1  H22B 7200   0.855   3.046   8.938  1.2516 -1.0798 -3.2536
   64CHL1   C23 7201   0.878   3.204   8.800  0.2108 -0.6834  0.1848
   64CHL1  H23A 7202   0.783   3.259   8.786 -0.1678 -1.1374  0.8752
   64CHL1  H23B 7203   0.964   3.270   8.777  0.9949 -0.3897  3.4027
   64CHL1   C24 7204   0.898   3.097   8.691  0.5526  0.3433  0.2977
   64CHL1  H24A 7205   1.006   3.072   8.680 -0.1306 -3.1311  0.1323
   64CHL1  H24B 7206   0.839   3.007   8.719  1.8884 -0.4115  0.8038
   64CHL1   C25 7207   0.846   3.137   8.556 -0.7798 -0.3222  0.5411
   64CHL1   H25 7208   0.737   3.154   8.554 -0.9703 -1.4280 -1.4351
   64CHL1   C26 7209   0.910   3.262   8.495 -0.8770  0.1093  0.2146
   64CHL1  H26A 7210   0.873   3.286   8.393  1.8416 -1.8206 -1.3630
   64CHL1  H26B 7211   0.900   3.357   8.552  1.4796  0.0321  0.8569
   64CHL1  H26C 7212   1.018   3.240   8.479 -0.7730  0.5520  0.2913
   64CHL1   C27 7213   0.862   3.018   8.454 -0.3606  0.1690  0.0151
   64CHL1  H27A 7214   0.792   2.936   8.478 -2.4179  1.4649 -1.2642
   64CHL1  H27B 7215   0.831   3.040   8.350 -0.4576  0.6159  0.1329
   64CHL1  H27C 7216   0.966   2.981   8.446 -0.6268 -0.5093 -0.3554
   65CHL1    C3 7217   3.255   0.304  10.220 -0.7282  0.1350 -1.3451
   65CHL1    H3 7218   3.296   0.201  10.207 -1.0672 -0.0703 -0.8300
   65CHL1    O3 7219   3.271   0.325  10.355  0.2549 -0.6617  0.7484
   65CHL1   H3' 7220   3.270   0.420  10.364  1.1438 -0.2642 -2.2340
   65CHL1    C4 7221   3.347   0.410  10.150 -0.0825  1.1580  0.3422
   65CHL1   H4A 7222   3.316   0.514  10.175 -0.7123  0.9461  0.4680
   65CHL1   H4B 7223   3.452   0.406  10.186  0.3773  1.2391 -0.9391
   65CHL1    C5 7224   3.328   0.397   9.998  0.6089  0.1722 -0.1389
   65CHL1    C6 7225   3.432   0.378   9.914  0.5109  0.8682 -0.0342
   65CHL1    H6 7226   3.537   0.370   9.946  0.9188  1.6420 -1.1130
   65CHL1    C7 7227   3.409   0.368   9.763 -0.8907 -0.3223  0.0020
   65CHL1   H7A 7228   3.492   0.418   9.710  0.8080 -2.2533  0.7269
   65CHL1   H7B 7229   3.402   0.263   9.727 -0.0860  0.0796 -1.3907
   65CHL1    C8 7230   3.277   0.443   9.719  0.1332  0.2614  0.2807
   65CHL1    H8 7231   3.309   0.548   9.738 -1.3355  0.6538  0.6703
   65CHL1   C14 7232   3.254   0.424   9.574  0.9807  0.2568  0.0909
   65CHL1   H14 7233   3.247   0.314   9.562  0.6853 -0.0475  2.4984
   65CHL1   C15 7234   3.355   0.472   9.470  0.0491  0.4511  1.1102
   65CHL1  H15A 7235   3.371   0.578   9.499  0.5670  0.9605 -0.8454
   65CHL1  H15B 7236   3.451   0.418   9.470 -0.7477 -1.2477 -2.1038
   65CHL1   C16 7237   3.288   0.478   9.333  0.6372 -0.3910 -0.1093
   65CHL1  H16A 7238   3.296   0.578   9.286 -2.3667 -0.3439 -0.6704
   65CHL1  H16B 7239   3.335   0.394   9.277  1.3465 -0.5054  0.6339
   65CHL1   C17 7240   3.137   0.448   9.362  0.8179 -0.0091 -0.0314
   65CHL1   H17 7241   3.120   0.342   9.334 -1.1735  0.8322 -2.4386
   65CHL1   C13 7242   3.119   0.478   9.515 -0.8038 -0.6120  0.5473
   65CHL1   C18 7243   3.109   0.634   9.545  0.7372 -0.1022 -0.4015
   65CHL1  H18A 7244   3.008   0.674   9.522  1.1302  2.0914  1.3128
   65CHL1  H18B 7245   3.125   0.661   9.651 -0.7693 -0.5984 -0.0235
   65CHL1  H18C 7246   3.174   0.699   9.482  0.0061  0.3988 -0.6485
   65CHL1   C12 7247   3.012   0.398   9.589  0.6110  0.9837  0.0948
   65CHL1  H12A 7248   2.910   0.434   9.564  0.1953  0.2101  0.6473
   65CHL1  H12B 7249   3.005   0.290   9.563 -0.3146  1.2020 -0.6366
   65CHL1   C11 7250   3.021   0.422   9.741  0.3384  0.0094  0.4882
   65CHL1  H11A 7251   3.006   0.530   9.763  0.7048 -0.1914  1.8356
   65CHL1  H11B 7252   2.937   0.375   9.796  0.6149 -0.3122  0.6361
   65CHL1    C9 7253   3.155   0.394   9.799  0.1124  0.3054 -0.5439
   65CHL1    H9 7254   3.144   0.284   9.794 -0.7229  0.4065 -1.1983
   65CHL1   C10 7255   3.180   0.420   9.956  0.2160  0.1005  1.2908
   65CHL1   C19 7256   3.138   0.569   9.984 -0.3952  0.5842 -0.2673
   65CHL1  H19A 7257   3.032   0.588   9.958 -0.5030  1.5228  0.7785
   65CHL1  H19B 7258   3.159   0.600  10.089 -1.3677 -0.3499  0.2196
   65CHL1  H19C 7259   3.199   0.634   9.918 -0.7535 -1.1806 -2.4436
   65CHL1    C1 7260   3.083   0.325  10.034 -0.6334 -0.2501 -1.0824
   65CHL1   H1A 7261   2.977   0.356  10.024 -0.9711 -0.2478  1.5687
   65CHL1   H1B 7262   3.101   0.221  10.000 -0.4174 -1.2061  1.6791
   65CHL1    C2 7263   3.107   0.325  10.183 -0.6453  0.6322 -0.2895
   65CHL1   H2A 7264   3.048   0.243  10.229  2.7006 -0.4713  2.3768
   65CHL1   H2B 7265   3.075   0.424  10.222  1.3972  2.1628 -2.1964
   65CHL1   C20 7266   3.041   0.524   9.266  0.0412  0.1969  0.2655
   65CHL1   H20 7267   3.051   0.632   9.289 -0.0670 -0.2911  2.9214
   65CHL1   C21 7268   2.900   0.467   9.291  0.8961  0.0290  0.5117
   65CHL1  H21A 7269   2.902   0.356   9.278  0.4723  0.0507  0.2359
   65CHL1  H21B 7270   2.831   0.520   9.222  0.6442 -0.3856  0.4409
   65CHL1  H21C 7271   2.855   0.489   9.390  1.4819 -2.2193  1.3370
   65CHL1   C22 7272   3.083   0.497   9.123 -0.3338 -0.1100  0.4164
   65CHL1  H22A 7273   3.190   0.503   9.094 -0.7936  0.5572 -1.2100
   65CHL1  H22B 7274   3.050   0.398   9.085  0.5835  0.5000 -2.1484
   65CHL1   C23 7275   3.033   0.603   9.017 -0.6942  0.2809  0.3159
   65CHL1  H23A 7276   2.923   0.610   9.024 -0.8215 -1.6736  1.0404
   65CHL1  H23B 7277   3.078   0.700   9.049 -0.9059 -0.1702  2.1096
   65CHL1   C24 7278   3.088   0.578   8.877  0.5584 -0.3431 -1.0024
   65CHL1  H24A 7279   3.198   0.580   8.887  0.4520  0.1060  0.2421
   65CHL1  H24B 7280   3.061   0.478   8.836  0.8121  0.1399 -2.4187
   65CHL1   C25 7281   3.027   0.689   8.785  0.2946 -0.1116 -0.0683
   65CHL1   H25 7282   3.026   0.779   8.851 -1.1207 -0.9543  1.1253
   65CHL1   C26 7283   3.111   0.717   8.665 -0.3849 -0.2833 -0.1862
   65CHL1  H26A 7284   3.091   0.637   8.591 -0.1948 -1.0407  0.5665
   65CHL1  H26B 7285   3.069   0.814   8.629  1.0759  0.3541 -0.2255
   65CHL1  H26C 7286   3.216   0.741   8.692 -1.2806  2.8985  1.0059
   65CHL1   C27 7287   2.878   0.658   8.745 -0.2266  0.1665  0.1705
   65CHL1  H27A 7288   2.842   0.758   8.712 -0.7083  0.1040  0.4873
   65CHL1  H27B 7289   2.871   0.581   8.665 -0.5806 -0.6390  0.9590
   65CHL1  H27C 7290   2.811   0.628   8.829  0.5818 -0.0852  0.7345
   66CHL1    C3 7291   0.854   5.254  10.684  0.6855 -0.2048  0.3852
   66CHL1    H3 7292   0.871   5.364  10.680 -0.1400  0.0278  2.1970
   66CHL1    O3 7293   0.842   5.225  10.823  0.7739 -0.4065  0.0393
   66CHL1   H3' 7294   0.758   5.179  10.833  1.3877 -1.7169 -0.5456
   66CHL1    C4 7295   0.716   5.218  10.612 -0.7425  0.8434  0.1651
   66CHL1   H4A 7296   0.693   5.116  10.649  1.4398 -0.0322 -0.7194
   66CHL1   H4B 7297   0.639   5.289  10.651 -1.2111  0.9275 -0.8901
   66CHL1    C5 7298   0.724   5.227  10.464 -0.2514 -0.0438 -0.5266
   66CHL1    C6 7299   0.649   5.309  10.393  0.9819 -0.6043 -0.5588
   66CHL1    H6 7300   0.576   5.364  10.454  3.1460 -0.1933  1.8269
   66CHL1    C7 7301   0.646   5.325  10.242 -0.1322  0.1138 -0.5525
   66CHL1   H7A 7302   0.543   5.313  10.202 -0.7074  1.1312  0.5683
   66CHL1   H7B 7303   0.686   5.422  10.208  0.6982 -0.2363 -0.6006
   66CHL1    C8 7304   0.736   5.216  10.177  0.6330  0.4947  0.2313
   66CHL1    H8 7305   0.684   5.117  10.179  2.4583 -0.5362 -0.8499
   66CHL1   C14 7306   0.766   5.252  10.027  0.6036 -0.2218  0.5888
   66CHL1   H14 7307   0.832   5.341  10.038 -0.7771  0.6807  2.0236
   66CHL1   C15 7308   0.649   5.292   9.938  0.4038 -0.0464 -0.4472
   66CHL1  H15A 7309   0.563   5.221   9.943 -0.4011  0.8290 -1.4796
   66CHL1  H15B 7310   0.621   5.397   9.959  0.4790 -0.2578  0.7806
   66CHL1   C16 7311   0.710   5.294   9.795  0.3939 -0.0523 -0.2199
   66CHL1  H16A 7312   0.639   5.233   9.736 -0.1419 -0.6980  1.0556
   66CHL1  H16B 7313   0.724   5.394   9.749  0.9051  0.1328  0.3219
   66CHL1   C17 7314   0.848   5.231   9.801  0.6085 -1.0867 -0.1836
   66CHL1   H17 7315   0.923   5.314   9.804  1.5249 -1.9300  0.7401
   66CHL1   C13 7316   0.847   5.158   9.947 -0.0233 -0.5358  0.7440
   66CHL1   C18 7317   0.769   5.031   9.928  0.0540  0.1319 -0.7988
   66CHL1  H18A 7318   0.673   5.050   9.875 -0.4708  0.5282  0.2593
   66CHL1  H18B 7319   0.833   4.949   9.889  0.0510 -0.5623  0.5815
   66CHL1  H18C 7320   0.742   4.977  10.021  1.4819  1.1419  0.2527
   66CHL1   C12 7321   0.979   5.136  10.020 -0.3428 -0.2795 -0.0888
   66CHL1  H12A 7322   1.022   5.046   9.971 -0.5992 -0.2319 -0.4076
   66CHL1  H12B 7323   1.051   5.219  10.005 -1.7511  1.1494  0.7781
   66CHL1   C11 7324   0.957   5.097  10.169 -0.3010 -0.4658  0.4773
   66CHL1  H11A 7325   0.911   4.996  10.175 -1.4974  0.1065  1.7011
   66CHL1  H11B 7326   1.060   5.084  10.209 -0.0653 -3.4656 -0.8663
   66CHL1    C9 7327   0.868   5.194  10.249  0.8696  0.0186 -0.5243
   66CHL1    H9 7328   0.921   5.291  10.252 -0.7132  1.0489 -2.8405
   66CHL1   C10 7329   0.847   5.156  10.400 -0.0939  0.2859 -1.1001
   66CHL1   C19 7330   0.823   5.003  10.406  0.2775  0.7211  0.1145
   66CHL1  H19A 7331   0.731   4.973  10.351 -0.1923 -0.5868  1.5655
   66CHL1  H19B 7332   0.908   4.938  10.375  0.7235  0.9565  0.8205
   66CHL1  H19C 7333   0.801   4.973  10.511  2.6729 -0.8626  0.2370
   66CHL1    C1 7334   0.975   5.187  10.472 -0.7892 -1.1135  0.1452
   66CHL1   H1A 7335   1.059   5.122  10.439 -0.9806 -0.9268 -0.7362
   66CHL1   H1B 7336   1.006   5.291  10.450  2.2540 -2.3307 -1.9400
   66CHL1    C2 7337   0.967   5.173  10.622  0.1553 -0.1042  0.6118
   66CHL1   H2A 7338   1.059   5.217  10.667 -0.1790 -0.3196  1.5341
   66CHL1   H2B 7339   0.959   5.063  10.639 -2.4499 -0.4188 -1.9118
   66CHL1   C20 7340   0.893   5.150   9.686  0.9505 -0.3639  0.0653
   66CHL1   H20 7341   0.829   5.059   9.682 -0.4321  0.5835 -0.1015
   66CHL1   C21 7342   1.039   5.103   9.695  0.2682 -0.0630 -0.2255
   66CHL1  H21A 7343   1.109   5.190   9.690  0.7144 -0.3963  0.1529
   66CHL1  H21B 7344   1.062   5.033   9.612  2.5983 -0.1212  0.3895
   66CHL1  H21C 7345   1.055   5.042   9.787 -2.0195 -0.8875 -0.3246
   66CHL1   C22 7346   0.880   5.216   9.539  0.2890 -0.1620 -0.0513
   66CHL1  H22A 7347   0.783   5.269   9.538  1.9487  3.2391  1.3847
   66CHL1  H22B 7348   0.960   5.290   9.519  0.3198  0.1050  0.9875
   66CHL1   C23 7349   0.897   5.114   9.425  0.2005 -0.3339  0.0343
   66CHL1  H23A 7350   0.993   5.058   9.433  0.4892  0.4393  3.2937
   66CHL1  H23B 7351   0.819   5.034   9.430  1.9483 -2.5081 -3.3431
   66CHL1   C24 7352   0.889   5.174   9.287  0.1714  0.1752  0.3090
   66CHL1  H24A 7353   0.798   5.237   9.275  0.5076  0.7205  0.6329
   66CHL1  H24B 7354   0.983   5.230   9.272  1.0070 -1.3079 -0.2248
   66CHL1   C25 7355   0.878   5.069   9.172  0.6401  0.3084  0.1747
   66CHL1   H25 7356   0.937   4.978   9.195  1.2489  0.2306 -1.5701
   66CHL1   C26 7357   0.738   5.012   9.154  0.2987 -0.3557 -0.3378
   66CHL1  H26A 7358   0.744   4.920   9.092 -0.8064 -0.9002  0.3216
   66CHL1  H26B 7359   0.707   4.975   9.254  1.2157 -0.1872  0.0135
   66CHL1  H26C 7360   0.667   5.089   9.119  0.1024  1.3044  3.2380
   66CHL1   C27 7361   0.936   5.130   9.042  0.6600  0.1236  0.6300
   66CHL1  H27A 7362   0.933   5.055   8.960  4.9997 -1.3661  1.5774
   66CHL1  H27B 7363   0.878   5.221   9.017 -3.7042 -2.2235  1.2963
   66CHL1  H27C 7364   1.044   5.155   9.046  0.4800  1.9369 -2.5843
   67CHL1    C3 7365   5.029   5.665  10.329 -0.3877  0.5879  0.3319
   67CHL1    H3 7366   5.125   5.709  10.293 -0.9687  1.4973 -0.1453
   67CHL1    O3 7367   5.032   5.668  10.471 -0.2227  0.6515  0.1245
   67CHL1   H3' 7368   4.938   5.656  10.486 -0.7732  3.3968 -0.5640
   67CHL1    C4 7369   4.913   5.753  10.281 -0.4771 -0.1919 -0.1022
   67CHL1   H4A 7370   4.817   5.714  10.321 -0.1274 -0.1991  0.7507
   67CHL1   H4B 7371   4.931   5.853  10.325 -0.5144  0.4873 -1.5540
   67CHL1    C5 7372   4.909   5.759  10.134  0.5762  0.7480  0.5422
   67CHL1    C6 7373   4.920   5.871  10.066 -0.1259 -0.0345 -0.7547
   67CHL1    H6 7374   4.925   5.965  10.123 -0.4036 -1.5772  1.9431
   67CHL1    C7 7375   4.916   5.881   9.921  1.3714  0.5814  0.0556
   67CHL1   H7A 7376   4.846   5.956   9.878 -0.2723 -1.7339 -1.5433
   67CHL1   H7B 7377   5.019   5.893   9.882  1.9593  0.6399  1.5758
   67CHL1    C8 7378   4.861   5.747   9.856 -0.0218  0.5201  0.1195
   67CHL1    H8 7379   4.750   5.749   9.869 -0.2172 -0.4055 -1.2110
   67CHL1   C14 7380   4.892   5.754   9.711 -0.1847  0.1659  0.2354
   67CHL1   H14 7381   5.002   5.753   9.698 -0.0798 -1.8684  0.8373
   67CHL1   C15 7382   4.853   5.883   9.633  0.3393 -0.0103  0.7919
   67CHL1  H15A 7383   4.749   5.906   9.665 -0.4335 -0.3331 -1.3039
   67CHL1  H15B 7384   4.924   5.961   9.667  2.3552 -2.0435  1.4606
   67CHL1   C16 7385   4.865   5.837   9.489 -0.2327 -0.1895  0.3001
   67CHL1  H16A 7386   4.774   5.869   9.435 -0.9840 -1.9581  0.4528
   67CHL1  H16B 7387   4.955   5.879   9.439 -1.1113  1.0353 -0.3031
   67CHL1   C17 7388   4.867   5.682   9.482 -0.0576  0.0591  0.4971
   67CHL1   H17 7389   4.975   5.660   9.465 -0.2550 -0.1388 -0.5611
   67CHL1   C13 7390   4.841   5.634   9.626  0.4055 -0.3873 -0.8290
   67CHL1   C18 7391   4.685   5.629   9.639  0.4205  0.0822  0.0133
   67CHL1  H18A 7392   4.626   5.720   9.616 -0.0315 -0.3583 -0.6247
   67CHL1  H18B 7393   4.642   5.555   9.568 -3.0043  3.0797 -1.3237
   67CHL1  H18C 7394   4.655   5.596   9.741  0.7898  0.3300  0.2053
   67CHL1   C12 7395   4.911   5.504   9.681  0.1085  0.2056 -0.9709
   67CHL1  H12A 7396   4.868   5.415   9.629 -0.1528 -0.4031  0.2518
   67CHL1  H12B 7397   5.016   5.509   9.644  0.6282 -0.5605  0.3531
   67CHL1   C11 7398   4.896   5.498   9.834 -0.1434 -0.6687  0.0173
   67CHL1  H11A 7399   4.796   5.457   9.858 -0.5252 -0.3432 -0.9556
   67CHL1  H11B 7400   4.956   5.417   9.879 -1.1198 -1.0283  0.7103
   67CHL1    C9 7401   4.924   5.627   9.918 -0.2369 -0.2774  0.1372
   67CHL1    H9 7402   5.033   5.640   9.899 -0.4242  0.8145 -0.2621
   67CHL1   C10 7403   4.899   5.615  10.075 -0.5588 -0.2751  0.3244
   67CHL1   C19 7404   4.761   5.556  10.101 -0.3435  0.1013 -0.7352
   67CHL1  H19A 7405   4.747   5.458  10.051  0.0086 -0.2771 -0.1080
   67CHL1  H19B 7406   4.743   5.537  10.209  1.3642 -0.1428 -0.4573
   67CHL1  H19C 7407   4.686   5.626  10.060  0.7160  1.2128 -0.8305
   67CHL1    C1 7408   5.013   5.510  10.130  0.1967  0.3719 -0.7633
   67CHL1   H1A 7409   5.000   5.408  10.091 -1.5446  0.3010 -0.1266
   67CHL1   H1B 7410   5.107   5.559  10.097 -0.2295  0.1472 -2.3699
   67CHL1    C2 7411   5.019   5.514  10.289  0.1453  0.0328 -0.4390
   67CHL1   H2A 7412   5.112   5.458  10.314  1.3992  2.1927 -0.0498
   67CHL1   H2B 7413   4.931   5.461  10.329  1.6715 -0.4387  2.5969
   67CHL1   C20 7414   4.789   5.617   9.366  0.0172 -0.5169 -0.0926
   67CHL1   H20 7415   4.685   5.655   9.380  0.8739  2.2254 -0.4522
   67CHL1   C21 7416   4.808   5.465   9.360  0.1592  0.2739  0.1605
   67CHL1  H21A 7417   4.761   5.419   9.271  1.8124  0.0753 -0.6413
   67CHL1  H21B 7418   4.753   5.419   9.444 -0.8298 -0.7411 -1.0025
   67CHL1  H21C 7419   4.918   5.450   9.368  0.2490  0.6019 -0.3737
   67CHL1   C22 7420   4.829   5.671   9.229  0.1470 -0.0996  0.1679
   67CHL1  H22A 7421   4.868   5.775   9.239 -0.6515  0.3280 -0.9472
   67CHL1  H22B 7422   4.915   5.611   9.192  1.0122  1.1111  0.1323
   67CHL1   C23 7423   4.707   5.691   9.133  0.1118 -0.8775  0.0235
   67CHL1  H23A 7424   4.657   5.592   9.121 -0.9159 -0.5825  1.6053
   67CHL1  H23B 7425   4.643   5.767   9.183  0.7319 -0.6390  0.4697
   67CHL1   C24 7426   4.755   5.724   8.990 -0.0471  0.2869  0.4909
   67CHL1  H24A 7427   4.831   5.804   8.982  1.7672 -1.5359 -1.6623
   67CHL1  H24B 7428   4.807   5.629   8.964  1.8466  1.2632  0.5827
   67CHL1   C25 7429   4.642   5.736   8.886  1.2292  0.0597 -0.3050
   67CHL1   H25 7430   4.560   5.662   8.900  0.7619  0.6113 -0.0745
   67CHL1   C26 7431   4.573   5.875   8.899  0.4000 -0.1027  0.1686
   67CHL1  H26A 7432   4.524   5.897   8.802  2.4031  1.0803 -0.6276
   67CHL1  H26B 7433   4.491   5.879   8.974  0.2147  0.7902 -0.0695
   67CHL1  H26C 7434   4.646   5.954   8.926 -1.9590  1.6583  1.8874
   67CHL1   C27 7435   4.699   5.714   8.745 -0.0874 -0.0227 -0.7880
   67CHL1  H27A 7436   4.726   5.607   8.731 -2.8836 -0.9811  0.5075
   67CHL1  H27B 7437   4.627   5.751   8.669  0.7361 -0.0353 -1.5911
   67CHL1  H27C 7438   4.799   5.763   8.736 -0.6546  1.0050 -1.6802
   68CHL1    C3 7439   3.099   6.679  10.305  0.4837  0.2371 -0.2001
   68CHL1    H3 7440   3.092   6.790  10.312  2.4066  0.2959  1.9150
   68CHL1    O3 7441   3.075   6.631  10.435  0.8949  0.3411  0.1653
   68CHL1   H3' 7442   3.056   6.537  10.427 -0.8968  0.5636  1.1734
   68CHL1    C4 7443   2.989   6.630  10.207  0.3788 -0.4091  0.0115
   68CHL1   H4A 7444   2.993   6.519  10.209 -2.4281 -0.5643  1.8427
   68CHL1   H4B 7445   2.887   6.643  10.248  1.2013  0.3045  1.9910
   68CHL1    C5 7446   3.022   6.691  10.070 -0.1911 -0.1493 -0.0567
   68CHL1    C6 7447   2.932   6.759  10.002 -0.5277  0.7041 -0.2802
   68CHL1    H6 7448   2.834   6.778  10.048 -0.3140  1.7021 -0.2065
   68CHL1    C7 7449   2.931   6.787   9.853  0.4684 -0.4822 -0.6427
   68CHL1   H7A 7450   2.844   6.742   9.802 -1.4076  4.2547 -2.1611
   68CHL1   H7B 7451   2.920   6.897   9.836  1.7131 -0.4702 -1.5530
   68CHL1    C8 7452   3.052   6.729   9.785  0.2251  0.4156 -0.7753
   68CHL1    H8 7453   3.038   6.620   9.771 -3.3491  0.4580  1.4336
   68CHL1   C14 7454   3.070   6.802   9.655  0.4782 -0.6197 -0.3261
   68CHL1   H14 7455   3.092   6.909   9.675  1.4873 -0.9666  0.5091
   68CHL1   C15 7456   2.945   6.820   9.564 -0.0405 -0.2081  0.1167
   68CHL1  H15A 7457   2.889   6.725   9.571 -1.3367  0.5900  0.9467
   68CHL1  H15B 7458   2.869   6.899   9.584 -0.5644  0.0853 -2.6524
   68CHL1   C16 7459   3.016   6.827   9.427  0.2223 -0.1569  0.2420
   68CHL1  H16A 7460   2.990   6.738   9.366 -2.5393 -0.0266  1.1251
   68CHL1  H16B 7461   2.979   6.917   9.374 -0.5138 -1.5509 -1.7457
   68CHL1   C17 7462   3.168   6.827   9.445 -0.3013 -0.2399  0.4411
   68CHL1   H17 7463   3.199   6.933   9.458 -0.1872 -0.3579  1.1412
   68CHL1   C13 7464   3.183   6.747   9.575  0.4040 -0.0030 -0.4244
   68CHL1   C18 7465   3.167   6.598   9.536 -0.3931 -1.7901 -0.1578
   68CHL1  H18A 7466   3.143   6.534   9.623  0.5110 -1.9789 -0.0440
   68CHL1  H18B 7467   3.087   6.580   9.460  0.0803  1.8810 -1.7241
   68CHL1  H18C 7468   3.257   6.560   9.483  1.1818  2.1739 -0.6172
   68CHL1   C12 7469   3.316   6.763   9.658 -0.3324  0.5149  0.4355
   68CHL1  H12A 7470   3.402   6.719   9.605  0.6668  1.5091  1.1814
   68CHL1  H12B 7471   3.338   6.869   9.684 -0.8225  1.4410 -2.5163
   68CHL1   C11 7472   3.300   6.682   9.793  0.0573  0.2284  0.1710
   68CHL1  H11A 7473   3.278   6.576   9.768 -2.8625  0.5750  0.8648
   68CHL1  H11B 7474   3.396   6.704   9.844  0.4772 -0.6429 -0.2268
   68CHL1    C9 7475   3.180   6.729   9.878 -0.4545  0.1530  0.7375
   68CHL1    H9 7476   3.189   6.838   9.894  0.7034  0.0422  0.8889
   68CHL1   C10 7477   3.163   6.659  10.015 -0.4578  0.8723  0.5524
   68CHL1   C19 7478   3.185   6.506  10.002  0.4683  0.0141  0.0212
   68CHL1  H19A 7479   3.158   6.452  10.095 -0.2769 -0.3757 -0.4077
   68CHL1  H19B 7480   3.108   6.471   9.929 -2.0224 -1.0797  2.9681
   68CHL1  H19C 7481   3.293   6.491   9.980  0.5664  1.2429 -0.4244
   68CHL1    C1 7482   3.264   6.713  10.120 -0.5747  0.3986 -0.2199
   68CHL1   H1A 7483   3.367   6.691  10.087  0.1671  1.0151  1.5485
   68CHL1   H1B 7484   3.254   6.824  10.129  3.7818  1.0559 -1.3912
   68CHL1    C2 7485   3.240   6.645  10.259  0.7496 -0.3588 -0.5382
   68CHL1   H2A 7486   3.310   6.689  10.334  0.9740 -1.0519 -0.3329
   68CHL1   H2B 7487   3.245   6.534  10.260 -1.9041 -0.5477 -0.2539
   68CHL1   C20 7488   3.242   6.772   9.314 -0.0524 -0.4707  1.0666
   68CHL1   H20 7489   3.191   6.680   9.277 -1.9345  0.6384  0.7395
   68CHL1   C21 7490   3.390   6.728   9.331 -0.3018 -0.5354  0.0624
   68CHL1  H21A 7491   3.412   6.630   9.379  0.6046 -0.4460 -0.1664
   68CHL1  H21B 7492   3.458   6.802   9.379  1.8467 -1.4440 -1.4299
   68CHL1  H21C 7493   3.431   6.709   9.230  0.6257  0.7453  0.1801
   68CHL1   C22 7494   3.235   6.891   9.210 -0.0860  0.4261  0.7255
   68CHL1  H22A 7495   3.134   6.933   9.191 -0.0444 -0.0251 -0.5473
   68CHL1  H22B 7496   3.287   6.979   9.254  2.5549 -0.9752  0.6406
   68CHL1   C23 7497   3.286   6.858   9.072 -0.2595  0.3436 -0.1192
   68CHL1  H23A 7498   3.396   6.848   9.073 -0.2320  0.6622  0.7083
   68CHL1  H23B 7499   3.244   6.758   9.047  0.8932 -0.8211  2.2852
   68CHL1   C24 7500   3.261   6.968   8.970 -0.0390 -0.7443 -0.3370
   68CHL1  H24A 7501   3.151   6.983   8.964  0.2581  1.3250 -1.9101
   68CHL1  H24B 7502   3.306   7.065   9.002  0.4294 -1.4181  1.0938
   68CHL1   C25 7503   3.299   6.930   8.826 -0.1260  0.3346 -0.0925
   68CHL1   H25 7504   3.219   6.859   8.796 -0.3035 -0.1832  1.5219
   68CHL1   C26 7505   3.280   7.056   8.736  0.2661 -0.7835  0.2019
   68CHL1  H26A 7506   3.276   7.011   8.634 -0.6270  0.3329 -0.2751
   68CHL1  H26B 7507   3.178   7.096   8.750  0.1145 -1.2669  0.5207
   68CHL1  H26C 7508   3.358   7.134   8.743  0.7428 -1.2811  0.5711
   68CHL1   C27 7509   3.439   6.867   8.812  0.3926  0.0194 -0.3348
   68CHL1  H27A 7510   3.441   6.778   8.878 -0.5463 -0.3766 -0.8262
   68CHL1  H27B 7511   3.456   6.831   8.709  0.4651 -1.9483  0.3199
   68CHL1  H27C 7512   3.521   6.937   8.842  0.5593 -0.3456  0.0846
   69CHL1    C3 7513   2.467   4.677   6.787 -0.3707 -0.4061 -0.1198
   69CHL1    H3 7514   2.373   4.736   6.797 -0.8398 -1.2706  0.7790
   69CHL1    O3 7515   2.477   4.646   6.650  0.3998 -0.0258 -0.2277
   69CHL1   H3' 7516   2.548   4.584   6.633 -0.3139 -0.6027 -1.2255
   69CHL1    C4 7517   2.586   4.754   6.838  1.0118 -0.5633  0.6317
   69CHL1   H4A 7518   2.678   4.696   6.820  1.1995 -0.0371 -0.1472
   69CHL1   H4B 7519   2.585   4.856   6.795 -0.9925 -1.5852 -2.0240
   69CHL1    C5 7520   2.571   4.777   6.988 -0.0294  0.6078  0.2297
   69CHL1    C6 7521   2.569   4.899   7.047 -0.3883 -0.7063  0.1769
   69CHL1    H6 7522   2.581   4.987   6.982 -1.7005 -0.4753  0.2194
   69CHL1    C7 7523   2.565   4.927   7.194  0.0256 -0.2692 -0.3317
   69CHL1   H7A 7524   2.637   5.009   7.216 -0.5000 -0.0624  0.7178
   69CHL1   H7B 7525   2.472   4.980   7.225  1.6057  2.7022 -0.2643
   69CHL1    C8 7526   2.586   4.803   7.290 -0.4189  0.0471  0.1710
   69CHL1    H8 7527   2.697   4.795   7.285 -0.3043  0.6201  1.5251
   69CHL1   C14 7528   2.532   4.826   7.429  0.4169 -0.1649 -0.3020
   69CHL1   H14 7529   2.422   4.823   7.414  0.5457 -1.6055 -1.1469
   69CHL1   C15 7530   2.579   4.954   7.499  0.0234 -0.2913 -0.6248
   69CHL1  H15A 7531   2.684   4.984   7.477 -0.9369  2.1497 -2.3374
   69CHL1  H15B 7532   2.519   5.044   7.474  0.6899  0.7451  1.2998
   69CHL1   C16 7533   2.532   4.922   7.643  0.0111  0.1098 -0.1633
   69CHL1  H16A 7534   2.616   4.951   7.710 -0.4328  0.9586  0.0437
   69CHL1  H16B 7535   2.433   4.965   7.671 -1.2038 -1.7219 -1.4103
   69CHL1   C17 7536   2.504   4.763   7.656  0.4460 -0.2930  0.2712
   69CHL1   H17 7537   2.394   4.755   7.660  0.4490 -0.1674  0.6605
   69CHL1   C13 7538   2.554   4.709   7.523  0.4403 -0.1177  0.5432
   69CHL1   C18 7539   2.706   4.679   7.540  0.7619  0.1389 -0.1218
   69CHL1  H18A 7540   2.765   4.758   7.590  0.6812  0.8521 -1.1264
   69CHL1  H18B 7541   2.721   4.593   7.608 -0.7112 -0.3168 -0.3345
   69CHL1  H18C 7542   2.771   4.662   7.451  0.1685 -2.4609 -0.1538
   69CHL1   C12 7543   2.479   4.590   7.462  0.1488 -0.1215  0.0482
   69CHL1  H12A 7544   2.513   4.504   7.523 -1.1036  0.5773  1.8174
   69CHL1  H12B 7545   2.369   4.589   7.474  0.2278 -1.5825  0.9201
   69CHL1   C11 7546   2.527   4.558   7.325  0.3777  0.0171  0.3957
   69CHL1  H11A 7547   2.628   4.513   7.339  0.9355  1.5759  1.6121
   69CHL1  H11B 7548   2.470   4.469   7.290  0.0131  0.6308 -0.6340
   69CHL1    C9 7549   2.518   4.675   7.225  0.0463 -0.7362 -1.2274
   69CHL1    H9 7550   2.411   4.703   7.237 -0.0654 -1.9666  1.3353
   69CHL1   C10 7551   2.549   4.645   7.071  0.2364 -0.4293 -0.2467
   69CHL1   C19 7552   2.683   4.574   7.069 -0.4513  0.1014  0.3369
   69CHL1  H19A 7553   2.684   4.470   7.108  1.7104 -0.4862 -1.0485
   69CHL1  H19B 7554   2.712   4.560   6.962 -1.5593  0.4388 -0.0106
   69CHL1  H19C 7555   2.765   4.636   7.110 -1.5543  1.9322 -0.1395
   69CHL1    C1 7556   2.427   4.567   7.012  0.3483 -0.0001 -0.2311
   69CHL1   H1A 7557   2.410   4.466   7.054  1.3193 -0.1465 -0.1506
   69CHL1   H1B 7558   2.338   4.628   7.037  1.9071  2.8332 -1.1405
   69CHL1    C2 7559   2.444   4.548   6.863  0.3649  0.3143 -0.2521
   69CHL1   H2A 7560   2.348   4.506   6.826 -0.9195  2.0186  1.0202
   69CHL1   H2B 7561   2.528   4.478   6.841  0.2234  0.0934 -0.0968
   69CHL1   C20 7562   2.556   4.705   7.786  0.2373  0.5868  0.2987
   69CHL1   H20 7563   2.667   4.693   7.789  0.0372 -1.2998  2.3608
   69CHL1   C21 7564   2.491   4.558   7.797 -0.0590 -0.0358  0.6497
   69CHL1  H21A 7565   2.536   4.491   7.720 -1.8514 -0.1550 -0.3615
   69CHL1  H21B 7566   2.380   4.564   7.788 -0.0065 -1.7169 -2.5718
   69CHL1  H21C 7567   2.516   4.521   7.899 -2.7609  3.1079  2.6600
   69CHL1   C22 7568   2.519   4.781   7.915  0.3293  0.2190  0.2803
   69CHL1  H22A 7569   2.560   4.884   7.912  0.7543  0.0356 -1.5392
   69CHL1  H22B 7570   2.408   4.779   7.914  0.3313 -0.9277 -1.4559
   69CHL1   C23 7571   2.553   4.720   8.059 -0.3217 -0.3225  0.2880
   69CHL1  H23A 7572   2.486   4.632   8.068 -1.2379  0.2478 -0.6934
   69CHL1  H23B 7573   2.659   4.688   8.054 -0.6561 -1.5698  0.7480
   69CHL1   C24 7574   2.511   4.826   8.160 -0.2973 -0.5520 -0.6726
   69CHL1  H24A 7575   2.553   4.926   8.139  0.2151 -0.3723  1.0535
   69CHL1  H24B 7576   2.403   4.849   8.166 -0.3533 -0.5807 -1.4302
   69CHL1   C25 7577   2.562   4.803   8.304  0.4121 -0.4538 -0.6190
   69CHL1   H25 7578   2.672   4.794   8.285  0.2975 -0.4721 -1.3136
   69CHL1   C26 7579   2.553   4.939   8.390 -0.4621  0.4921  0.5500
   69CHL1  H26A 7580   2.650   4.988   8.412  0.3928 -0.7839 -0.2466
   69CHL1  H26B 7581   2.475   5.007   8.350 -0.4786 -0.1876 -0.6526
   69CHL1  H26C 7582   2.507   4.905   8.485  0.3064  0.6442  0.9796
   69CHL1   C27 7583   2.509   4.679   8.379 -0.6467  0.9205 -0.1730
   69CHL1  H27A 7584   2.406   4.689   8.419 -0.8744 -0.3202 -0.4260
   69CHL1  H27B 7585   2.500   4.593   8.310 -1.2611  1.5027 -0.8232
   69CHL1  H27C 7586   2.587   4.645   8.451 -1.0032  0.6093  0.0655
   70CHL1    C3 7587   1.932   1.375   7.123  0.2878 -0.4688 -0.6830
   70CHL1    H3 7588   1.995   1.286   7.141 -4.6036 -4.0103  1.1997
   70CHL1    O3 7589   1.935   1.419   6.987  0.2359 -0.0322 -0.2659
   70CHL1   H3' 7590   2.022   1.460   6.987  0.8677 -1.3348 -0.6721
   70CHL1    C4 7591   1.791   1.321   7.154  0.1969 -0.0494  0.3842
   70CHL1   H4A 7592   1.716   1.386   7.105 -1.3304 -0.9890  1.3835
   70CHL1   H4B 7593   1.781   1.222   7.105 -1.8779  0.9330 -1.3233
   70CHL1    C5 7594   1.764   1.298   7.299 -0.1604  0.5260 -0.9523
   70CHL1    C6 7595   1.701   1.182   7.352 -0.1759 -0.5570 -0.1286
   70CHL1    H6 7596   1.660   1.106   7.284 -0.3010 -1.1810  0.6329
   70CHL1    C7 7597   1.666   1.162   7.490 -0.2310 -0.2563 -0.6502
   70CHL1   H7A 7598   1.555   1.152   7.486 -0.5386  2.5073 -4.5261
   70CHL1   H7B 7599   1.708   1.072   7.540 -0.0446  0.3921  0.3742
   70CHL1    C8 7600   1.698   1.286   7.584 -0.1456 -0.6032 -0.0769
   70CHL1    H8 7601   1.605   1.347   7.589 -0.2553 -0.8558  1.6750
   70CHL1   C14 7602   1.710   1.249   7.731 -0.7784 -0.3415  0.1795
   70CHL1   H14 7603   1.805   1.191   7.731  0.1879  1.1735  1.1174
   70CHL1   C15 7604   1.605   1.165   7.801 -0.6328 -0.6717 -0.3278
   70CHL1  H15A 7605   1.503   1.200   7.775 -0.5145 -0.6609 -0.7830
   70CHL1  H15B 7606   1.622   1.060   7.770  2.1459 -1.0868  2.0970
   70CHL1   C16 7607   1.647   1.183   7.948  0.5491  0.4928 -0.3323
   70CHL1  H16A 7608   1.550   1.196   8.001  0.2004  0.9213 -1.0696
   70CHL1  H16B 7609   1.688   1.092   7.997  1.4244  1.3445  0.5808
   70CHL1   C17 7610   1.750   1.294   7.964 -0.1891  0.4474 -0.1687
   70CHL1   H17 7611   1.851   1.249   7.969 -0.3106  0.2010  0.0842
   70CHL1   C13 7612   1.741   1.363   7.832 -0.1931 -0.5912 -0.2218
   70CHL1   C18 7613   1.625   1.466   7.843 -0.0356  0.2781 -0.2000
   70CHL1  H18A 7614   1.545   1.408   7.895 -0.2180  1.4123  0.8248
   70CHL1  H18B 7615   1.669   1.555   7.891  2.0131  0.2427 -1.8854
   70CHL1  H18C 7616   1.583   1.504   7.748  0.0587 -0.7975 -0.6929
   70CHL1   C12 7617   1.872   1.433   7.782  1.0974  0.3021  0.5867
   70CHL1  H12A 7618   1.895   1.525   7.840  1.4060  0.6812 -0.1191
   70CHL1  H12B 7619   1.959   1.364   7.788  0.0121 -1.1987 -0.1435
   70CHL1   C11 7620   1.860   1.471   7.638  0.2625 -0.4204 -0.1188
   70CHL1  H11A 7621   1.786   1.553   7.633 -1.9286 -2.2599  0.3510
   70CHL1  H11B 7622   1.961   1.511   7.616  0.1041 -0.4949 -1.0283
   70CHL1    C9 7623   1.822   1.357   7.541 -0.4893 -0.0855  0.0803
   70CHL1    H9 7624   1.911   1.290   7.540 -0.2730  0.1954 -1.1333
   70CHL1   C10 7625   1.815   1.407   7.386  0.6972  1.1583 -0.0200
   70CHL1   C19 7626   1.709   1.517   7.372 -0.5857 -0.3403 -0.2626
   70CHL1  H19A 7627   1.736   1.604   7.436 -1.0780 -1.8861  2.1600
   70CHL1  H19B 7628   1.713   1.546   7.265  3.4483 -3.2009 -1.1012
   70CHL1  H19C 7629   1.613   1.473   7.407 -2.3764  0.9518 -3.1791
   70CHL1    C1 7630   1.953   1.459   7.352  0.8705 -0.4030 -0.0832
   70CHL1   H1A 7631   1.962   1.558   7.402 -3.8488  0.0575  0.3705
   70CHL1   H1B 7632   2.032   1.385   7.377 -0.0099 -1.1039  0.7296
   70CHL1    C2 7633   1.978   1.490   7.205  0.4449 -0.1886  1.2164
   70CHL1   H2A 7634   2.086   1.507   7.187  0.2147 -0.6432 -0.7455
   70CHL1   H2B 7635   1.916   1.578   7.177  1.7261 -0.0675 -1.5032
   70CHL1   C20 7636   1.739   1.369   8.104  0.1211  0.4111  0.3536
   70CHL1   H20 7637   1.643   1.425   8.103  0.4631  1.0230 -1.1232
   70CHL1   C21 7638   1.851   1.473   8.117  1.2707  0.4212  0.1306
   70CHL1  H21A 7639   1.838   1.522   8.216  0.4651  1.2418 -0.3637
   70CHL1  H21B 7640   1.823   1.557   8.050 -3.1488 -0.1722  0.9002
   70CHL1  H21C 7641   1.951   1.426   8.124  1.6100  1.2837  1.4776
   70CHL1   C22 7642   1.753   1.271   8.227 -0.6677  0.5545  0.9638
   70CHL1  H22A 7643   1.692   1.179   8.215  0.0940  0.1211  0.2633
   70CHL1  H22B 7644   1.858   1.235   8.229 -0.8104 -0.1178 -1.1226
   70CHL1   C23 7645   1.699   1.325   8.364 -0.0443 -0.1774 -0.4050
   70CHL1  H23A 7646   1.749   1.422   8.385 -0.7199  0.8165 -3.0212
   70CHL1  H23B 7647   1.596   1.364   8.348  1.1172  3.5031  0.1696
   70CHL1   C24 7648   1.706   1.225   8.483 -0.1562 -0.6014 -1.0629
   70CHL1  H24A 7649   1.669   1.285   8.569 -0.8737 -1.7578 -0.5457
   70CHL1  H24B 7650   1.637   1.140   8.464  0.1834 -1.5002  1.3214
   70CHL1   C25 7651   1.849   1.164   8.515 -0.5740  0.0186 -0.3097
   70CHL1   H25 7652   1.899   1.136   8.420 -1.9960 -1.1314 -0.7451
   70CHL1   C26 7653   1.946   1.251   8.596 -1.1121  0.0757  0.2345
   70CHL1  H26A 7654   2.045   1.202   8.601 -0.9218  0.4458  0.1148
   70CHL1  H26B 7655   1.955   1.353   8.551 -0.6973  0.1977  0.5910
   70CHL1  H26C 7656   1.906   1.254   8.700  0.9013 -0.4511  1.0629
   70CHL1   C27 7657   1.823   1.032   8.584  0.0554  0.7815  0.0095
   70CHL1  H27A 7658   1.920   0.981   8.603  0.3206  1.0444 -0.6036
   70CHL1  H27B 7659   1.778   1.052   8.683 -0.0936 -1.0368  0.3465
   70CHL1  H27C 7660   1.747   0.983   8.518  0.5309 -0.3820  0.2899
   71CHL1    C3 7661   1.253   3.892   6.803  0.3729  0.1274 -0.3041
   71CHL1    H3 7662   1.181   3.810   6.825  1.4529 -0.1207  2.8283
   71CHL1    O3 7663   1.233   3.923   6.671  0.3069  0.2804 -0.1486
   71CHL1   H3' 7664   1.292   3.995   6.649 -0.0728  0.4384 -0.6723
   71CHL1    C4 7665   1.226   4.014   6.879  0.0851  0.2676 -0.1241
   71CHL1   H4A 7666   1.295   4.097   6.856  1.1565  0.0278  1.9630
   71CHL1   H4B 7667   1.124   4.051   6.858 -0.6243 -1.5227 -0.0726
   71CHL1    C5 7668   1.246   3.982   7.033  0.2187  0.9926  0.6237
   71CHL1    C6 7669   1.142   4.003   7.120 -0.1612  0.1175  0.5535
   71CHL1    H6 7670   1.048   4.033   7.071  0.7720 -0.4906 -1.6818
   71CHL1    C7 7671   1.141   3.980   7.266  0.6043  0.1263  0.6067
   71CHL1   H7A 7672   1.101   4.070   7.316  1.8084 -0.6200  3.1082
   71CHL1   H7B 7673   1.075   3.894   7.290  0.7172 -0.6978 -1.7882
   71CHL1    C8 7674   1.278   3.948   7.323 -0.2210 -0.4704 -0.3323
   71CHL1    H8 7675   1.323   4.049   7.332  3.3556 -1.8036 -1.4506
   71CHL1   C14 7676   1.264   3.879   7.460  0.1231  0.7112  1.2718
   71CHL1   H14 7677   1.218   3.779   7.446 -1.7938  1.3541  2.5192
   71CHL1   C15 7678   1.170   3.945   7.558 -0.7608 -0.3806  0.5256
   71CHL1  H15A 7679   1.177   4.056   7.555  0.3797 -0.4113 -2.5895
   71CHL1  H15B 7680   1.064   3.931   7.529 -1.3025  4.1095 -0.5582
   71CHL1   C16 7681   1.218   3.891   7.699 -0.3420 -0.1184  0.3245
   71CHL1  H16A 7682   1.244   3.972   7.771  1.7723  1.6313 -2.2384
   71CHL1  H16B 7683   1.146   3.819   7.745  0.8010  0.4424  3.2043
   71CHL1   C17 7684   1.354   3.815   7.673  0.2245  0.0692 -0.1815
   71CHL1   H17 7685   1.332   3.706   7.670 -1.0955  0.2810  0.6587
   71CHL1   C13 7686   1.396   3.862   7.534  0.0620  0.4783 -0.0972
   71CHL1   C18 7687   1.457   4.003   7.549  0.2518 -0.2087  0.1032
   71CHL1  H18A 7688   1.558   4.002   7.596  1.3272 -0.0260 -2.0726
   71CHL1  H18B 7689   1.474   4.053   7.452  0.9143 -1.2480 -0.3365
   71CHL1  H18C 7690   1.377   4.062   7.599  0.4454  0.7472 -0.6977
   71CHL1   C12 7691   1.482   3.767   7.445  0.4437  0.2257  0.2692
   71CHL1  H12A 7692   1.577   3.749   7.501 -0.1106 -0.9517  0.8490
   71CHL1  H12B 7693   1.423   3.675   7.429  0.5258  0.4051 -1.1845
   71CHL1   C11 7694   1.506   3.822   7.302 -0.0713 -0.3399  0.4013
   71CHL1  H11A 7695   1.574   3.909   7.308 -0.6843  0.0500  2.4390
   71CHL1  H11B 7696   1.557   3.740   7.247 -0.4468 -0.9072  0.8866
   71CHL1    C9 7697   1.371   3.859   7.229  0.5866  0.5726  0.3016
   71CHL1    H9 7698   1.307   3.769   7.221 -0.0706  0.8962  1.6368
   71CHL1   C10 7699   1.375   3.909   7.082 -0.4639  0.1111  0.3228
   71CHL1   C19 7700   1.494   4.014   7.080 -0.4799 -0.0375 -0.2234
   71CHL1  H19A 7701   1.512   4.058   6.980  0.9454  0.5221  0.2538
   71CHL1  H19B 7702   1.473   4.089   7.159 -3.1569 -1.6943  0.7864
   71CHL1  H19C 7703   1.592   3.964   7.097 -1.3028 -1.7269 -0.2430
   71CHL1    C1 7704   1.402   3.788   6.981  0.8201  0.0589  0.5609
   71CHL1   H1A 7705   1.496   3.733   7.002 -0.2749 -1.3864  1.8626
   71CHL1   H1B 7706   1.330   3.705   6.995  2.0488 -1.1979 -0.2312
   71CHL1    C2 7707   1.391   3.833   6.826 -0.3172 -0.4087 -0.1361
   71CHL1   H2A 7708   1.408   3.743   6.764 -1.0348  0.2683 -1.3545
   71CHL1   H2B 7709   1.474   3.906   6.813 -1.3265  1.2006  1.8193
   71CHL1   C20 7710   1.450   3.829   7.797  0.3926 -0.0715 -0.0622
   71CHL1   H20 7711   1.495   3.931   7.799  3.7113 -1.3790 -1.0968
   71CHL1   C21 7712   1.571   3.734   7.778  0.0476 -0.3002 -0.0083
   71CHL1  H21A 7713   1.622   3.762   7.684  2.0872 -0.5733  0.9757
   71CHL1  H21B 7714   1.549   3.625   7.773 -1.2189 -0.0802  0.3501
   71CHL1  H21C 7715   1.643   3.761   7.858  0.9738  0.6025 -1.1180
   71CHL1   C22 7716   1.384   3.814   7.937  0.0637 -0.2481  0.9687
   71CHL1  H22A 7717   1.467   3.815   8.011  0.1935 -1.1049  0.8477
   71CHL1  H22B 7718   1.298   3.881   7.958  0.6603  0.9582 -0.2968
   71CHL1   C23 7719   1.338   3.666   7.967  0.7199 -0.2113  0.0572
   71CHL1  H23A 7720   1.273   3.616   7.891  3.4158 -1.4670 -1.5718
   71CHL1  H23B 7721   1.434   3.611   7.961  0.5841 -0.4129 -0.2906
   71CHL1   C24 7722   1.272   3.647   8.106 -0.3249  0.3639 -0.0743
   71CHL1  H24A 7723   1.335   3.695   8.184  0.3295  0.4965 -0.6809
   71CHL1  H24B 7724   1.178   3.704   8.091 -2.3276 -2.1569  1.9546
   71CHL1   C25 7725   1.252   3.498   8.152  0.3885 -0.4276 -0.5742
   71CHL1   H25 7726   1.198   3.447   8.070 -2.2785 -1.1196  1.4602
   71CHL1   C26 7727   1.396   3.442   8.170 -0.4837  0.5289 -0.0735
   71CHL1  H26A 7728   1.447   3.413   8.076  0.6096 -0.7124  0.8635
   71CHL1  H26B 7729   1.459   3.521   8.218  2.0359 -0.1099 -2.1358
   71CHL1  H26C 7730   1.396   3.350   8.232  1.3856  0.4775 -0.0779
   71CHL1   C27 7731   1.173   3.489   8.283 -0.0016  0.1517  0.8697
   71CHL1  H27A 7732   1.230   3.535   8.366  2.8440 -0.0251 -0.8402
   71CHL1  H27B 7733   1.079   3.546   8.274  0.1263  0.0450 -2.0688
   71CHL1  H27C 7734   1.159   3.383   8.313  0.3355 -0.9981 -2.6031
   72CHL1    C3 7735   1.823   2.010   7.149 -0.1517 -0.4127  0.8721
   72CHL1    H3 7736   1.742   2.085   7.166  0.5000  0.4356  0.3051
   72CHL1    O3 7737   1.830   1.986   7.011  0.3635  0.3523  0.3659
   72CHL1   H3' 7738   1.905   1.927   6.998  0.3073  0.2626  0.4462
   72CHL1    C4 7739   1.957   2.066   7.197  0.4130  0.2010  0.4112
   72CHL1   H4A 7740   2.047   2.008   7.169  0.6903  0.1219  1.4368
   72CHL1   H4B 7741   1.981   2.162   7.145  0.2692 -0.1495 -0.3199
   72CHL1    C5 7742   1.961   2.082   7.349  0.6310 -0.4248  0.4767
   72CHL1    C6 7743   1.984   2.201   7.401 -0.1143  0.7400  0.8406
   72CHL1    H6 7744   2.013   2.292   7.348  2.6722 -0.7943 -0.4627
   72CHL1    C7 7745   1.986   2.222   7.544  0.4433 -0.3313 -0.4173
   72CHL1   H7A 7746   2.080   2.276   7.568 -0.6707  0.4461  2.6522
   72CHL1   H7B 7747   1.893   2.277   7.568 -0.4174 -1.9098  0.0382
   72CHL1    C8 7748   1.995   2.093   7.628 -0.1410 -0.2531 -0.1054
   72CHL1    H8 7749   2.100   2.058   7.624  0.0252 -0.5660  3.4678
   72CHL1   C14 7750   1.983   2.113   7.779  0.6614  0.6815  0.3747
   72CHL1   H14 7751   1.874   2.130   7.784  0.8532  2.3065 -0.3601
   72CHL1   C15 7752   2.050   2.232   7.856 -0.2623  0.0662  0.6131
   72CHL1  H15A 7753   2.148   2.255   7.810 -0.6176 -1.9135 -1.2989
   72CHL1  H15B 7754   1.985   2.320   7.838  0.9965  1.0632  0.7777
   72CHL1   C16 7755   2.057   2.199   8.002  0.8374  0.5633 -0.0117
   72CHL1  H16A 7756   2.163   2.176   8.027  1.1259  2.9078  1.2224
   72CHL1  H16B 7757   2.014   2.275   8.070  0.8484 -1.0983  1.9373
   72CHL1   C17 7758   1.979   2.058   8.004 -0.4525  0.0451  0.2542
   72CHL1   H17 7759   1.870   2.079   8.014 -0.5017 -0.5651  1.1066
   72CHL1   C13 7760   2.001   1.992   7.864 -0.4272  0.3271 -0.2330
   72CHL1   C18 7761   2.148   1.944   7.845 -0.1431 -0.2739  0.3879
   72CHL1  H18A 7762   2.162   1.858   7.914  0.4914 -0.3368  0.1923
   72CHL1  H18B 7763   2.174   1.907   7.743 -0.2261  1.4021 -0.2831
   72CHL1  H18C 7764   2.235   2.013   7.857 -0.2124 -0.1318  0.0902
   72CHL1   C12 7765   1.909   1.874   7.816 -0.3892  0.4185 -0.1217
   72CHL1  H12A 7766   1.941   1.784   7.873  1.5242  0.2713 -1.3440
   72CHL1  H12B 7767   1.804   1.908   7.832 -1.2680 -0.3353 -3.3853
   72CHL1   C11 7768   1.917   1.850   7.664  0.1876 -0.0111  0.3966
   72CHL1  H11A 7769   2.017   1.805   7.648  0.7434  1.2984  0.0063
   72CHL1  H11B 7770   1.833   1.780   7.644 -1.8305  2.6996 -1.3213
   72CHL1    C9 7771   1.908   1.978   7.582 -0.0723 -0.1436  0.5859
   72CHL1    H9 7772   1.809   2.026   7.598 -0.4131 -1.6383  3.8629
   72CHL1   C10 7773   1.932   1.947   7.429  0.2076 -0.0985  0.1901
   72CHL1   C19 7774   2.052   1.853   7.404  0.1764  0.2785 -0.3731
   72CHL1  H19A 7775   2.070   1.829   7.298  1.8931  1.4961 -0.4005
   72CHL1  H19B 7776   2.148   1.879   7.453 -0.0059 -0.4261  0.3863
   72CHL1  H19C 7777   2.025   1.755   7.450 -1.2622  0.2344 -1.2453
   72CHL1    C1 7778   1.803   1.884   7.367  0.1806  0.4021  0.5650
   72CHL1   H1A 7779   1.775   1.785   7.410 -1.8416  0.1398 -1.2006
   72CHL1   H1B 7780   1.731   1.959   7.405 -2.1085 -1.4786  0.1535
   72CHL1    C2 7781   1.805   1.874   7.213  0.1405  0.1847  0.0010
   72CHL1   H2A 7782   1.715   1.825   7.171  0.9541  0.4680 -2.2073
   72CHL1   H2B 7783   1.885   1.804   7.178 -2.1816 -1.3129 -2.7257
   72CHL1   C20 7784   2.013   1.979   8.139  1.0388 -0.9859  0.0569
   72CHL1   H20 7785   2.116   1.937   8.142  1.4950  0.1369  0.7206
   72CHL1   C21 7786   1.915   1.856   8.145  0.7039 -0.0756  0.1518
   72CHL1  H21A 7787   1.944   1.776   8.073 -0.1139  0.0431 -0.3286
   72CHL1  H21B 7788   1.812   1.889   8.117  0.4544 -0.8962  0.0699
   72CHL1  H21C 7789   1.915   1.812   8.246  0.5161  0.5613  0.4356
   72CHL1   C22 7790   1.996   2.071   8.267  0.1204  0.6535 -0.7663
   72CHL1  H22A 7791   1.969   2.176   8.241 -0.4881  1.1310  1.5937
   72CHL1  H22B 7792   1.916   2.022   8.325  0.0290 -1.2417 -2.3822
   72CHL1   C23 7793   2.122   2.069   8.350 -0.5142 -0.2929 -0.2243
   72CHL1  H23A 7794   2.155   1.967   8.379  1.9936  0.9441  1.7238
   72CHL1  H23B 7795   2.210   2.112   8.296 -0.1351 -1.5590 -0.6433
   72CHL1   C24 7796   2.110   2.147   8.485 -0.1551 -0.3200 -0.1334
   72CHL1  H24A 7797   2.031   2.096   8.544 -0.7740  0.6108 -0.1384
   72CHL1  H24B 7798   2.202   2.130   8.546 -0.1674 -2.5416 -0.6402
   72CHL1   C25 7799   2.071   2.299   8.471  0.5758 -0.4317 -0.3067
   72CHL1   H25 7800   1.989   2.319   8.398 -0.1799  2.0693  1.0818
   72CHL1   C26 7801   2.029   2.355   8.611  0.0182 -0.4581  0.1583
   72CHL1  H26A 7802   2.002   2.463   8.618 -1.0470 -0.7886  1.6242
   72CHL1  H26B 7803   1.940   2.303   8.652 -1.2230  2.6080  1.6926
   72CHL1  H26C 7804   2.111   2.337   8.684 -0.9357 -1.2136  1.0544
   72CHL1   C27 7805   2.185   2.385   8.411  0.8506  0.4899  0.2378
   72CHL1  H27A 7806   2.281   2.359   8.460  1.3212 -0.7417 -1.2795
   72CHL1  H27B 7807   2.185   2.381   8.300 -1.2856 -0.2628  0.2184
   72CHL1  H27C 7808   2.160   2.492   8.430 -0.6973 -0.2651  2.9011
   73CHL1    C3 7809   1.749   4.982   7.013  0.1882 -0.0400 -0.2071
   73CHL1    H3 7810   1.846   4.929   7.030  1.6751  2.7458  0.5351
   73CHL1    O3 7811   1.724   4.991   6.870  0.0773  0.0823  0.0246
   73CHL1   H3' 7812   1.634   5.024   6.864  0.3199  0.4909 -2.1298
   73CHL1    C4 7813   1.637   4.893   7.068 -0.2590 -0.4398  0.2459
   73CHL1   H4A 7814   1.546   4.949   7.038 -0.9702 -0.8780  1.4901
   73CHL1   H4B 7815   1.653   4.790   7.031  0.9366 -1.4758  3.3363
   73CHL1    C5 7816   1.639   4.884   7.225  0.8370  0.2389 -0.4310
   73CHL1    C6 7817   1.651   4.762   7.279 -0.4114 -0.3171 -0.3576
   73CHL1    H6 7818   1.638   4.674   7.215  0.5415  0.4593 -1.6605
   73CHL1    C7 7819   1.648   4.734   7.422  0.0769 -0.1987 -0.2428
   73CHL1   H7A 7820   1.573   4.655   7.445  1.2181 -1.8287 -1.8012
   73CHL1   H7B 7821   1.743   4.700   7.469  0.2492 -0.1584 -0.5644
   73CHL1    C8 7822   1.617   4.856   7.502 -0.5008  0.5465 -0.0803
   73CHL1    H8 7823   1.508   4.875   7.494 -0.5002  0.5529 -0.0742
   73CHL1   C14 7824   1.663   4.827   7.652 -0.1181 -0.2238 -0.2772
   73CHL1   H14 7825   1.773   4.812   7.657 -0.2799 -1.3795 -0.0043
   73CHL1   C15 7826   1.599   4.704   7.723 -0.2842  0.2628  0.0047
   73CHL1  H15A 7827   1.492   4.701   7.694 -0.2702  0.4937 -0.0727
   73CHL1  H15B 7828   1.647   4.608   7.694  0.3811  0.5730  0.0393
   73CHL1   C16 7829   1.606   4.742   7.871  0.2585  0.3468  0.3611
   73CHL1  H16A 7830   1.500   4.752   7.903 -0.0032 -0.3167 -0.2859
   73CHL1  H16B 7831   1.657   4.664   7.931 -0.3512 -0.7348 -0.4998
   73CHL1   C17 7832   1.666   4.882   7.881 -0.0474 -0.4540 -0.3964
   73CHL1   H17 7833   1.774   4.860   7.870  0.1362 -0.0651  0.5181
   73CHL1   C13 7834   1.632   4.949   7.749  0.2123 -0.1821  0.1234
   73CHL1   C18 7835   1.484   4.985   7.755 -0.5075 -0.2522  0.0049
   73CHL1  H18A 7836   1.412   4.903   7.772 -1.0629 -0.2326 -2.0132
   73CHL1  H18B 7837   1.462   5.076   7.816 -0.4578 -0.4300  0.2903
   73CHL1  H18C 7838   1.458   5.022   7.654 -2.6062 -0.0130  0.5848
   73CHL1   C12 7839   1.720   5.065   7.688 -0.0704  0.5731 -0.5091
   73CHL1  H12A 7840   1.712   5.156   7.750 -0.5264  0.7147 -0.7733
   73CHL1  H12B 7841   1.829   5.045   7.680  0.2061  2.0590 -0.6910
   73CHL1   C11 7842   1.674   5.100   7.546  0.3822 -0.4418  0.1218
   73CHL1  H11A 7843   1.572   5.143   7.533 -0.0315 -0.6759  2.1435
   73CHL1  H11B 7844   1.742   5.182   7.515 -0.0132  0.5474  1.7200
   73CHL1    C9 7845   1.692   4.983   7.452  1.0462  0.7748  0.4985
   73CHL1    H9 7846   1.802   4.964   7.449  0.9601  0.4182 -1.1031
   73CHL1   C10 7847   1.651   5.015   7.300 -0.0124 -0.0487  0.1612
   73CHL1   C19 7848   1.512   5.083   7.294 -0.1905  0.5694 -0.5946
   73CHL1  H19A 7849   1.468   5.093   7.192  0.2299  1.0443 -0.7368
   73CHL1  H19B 7850   1.427   5.040   7.350  0.5401  2.5240  2.2161
   73CHL1  H19C 7851   1.519   5.190   7.322  2.2504  0.5168 -0.7573
   73CHL1    C1 7852   1.763   5.101   7.236 -0.4171 -0.1603  0.4103
   73CHL1   H1A 7853   1.760   5.199   7.289 -0.2322 -0.6640  1.3832
   73CHL1   H1B 7854   1.865   5.059   7.251  0.1145  0.9419 -0.0417
   73CHL1    C2 7855   1.747   5.122   7.084  0.0045  0.3329  0.2469
   73CHL1   H2A 7856   1.830   5.191   7.058  1.4372 -1.1942  0.5485
   73CHL1   H2B 7857   1.651   5.171   7.060 -0.7650 -1.0605  0.3730
   73CHL1   C20 7858   1.621   4.950   8.013  0.3669  0.2102 -0.1079
   73CHL1   H20 7859   1.511   4.958   8.030  0.5363 -0.0163  1.1932
   73CHL1   C21 7860   1.687   5.089   8.007 -0.1204 -0.0736 -0.2796
   73CHL1  H21A 7861   1.694   5.142   8.104  1.2038 -0.9313  0.1155
   73CHL1  H21B 7862   1.623   5.160   7.951 -0.0864 -0.0180 -0.2473
   73CHL1  H21C 7863   1.785   5.093   7.955  0.2761  2.6219  0.5394
   73CHL1   C22 7864   1.674   4.869   8.136 -0.3621 -0.1469  0.1032
   73CHL1  H22A 7865   1.677   4.759   8.120  0.6151 -0.4652  2.1960
   73CHL1  H22B 7866   1.777   4.909   8.142 -0.5913  0.7253 -1.2839
   73CHL1   C23 7867   1.597   4.899   8.265  0.4867 -0.7306 -0.2316
   73CHL1  H23A 7868   1.561   5.004   8.277 -1.3540 -1.1060 -2.0272
   73CHL1  H23B 7869   1.501   4.845   8.254  0.5233 -1.0095  0.7262
   73CHL1   C24 7870   1.669   4.850   8.387  0.2027  0.6018 -0.8272
   73CHL1  H24A 7871   1.695   4.745   8.366  0.0291  0.6799 -1.4441
   73CHL1  H24B 7872   1.760   4.911   8.405  0.4263  0.6798 -2.1641
   73CHL1   C25 7873   1.590   4.859   8.524 -0.3825  0.5650 -0.4330
   73CHL1   H25 7874   1.488   4.827   8.494  0.6082 -0.8560 -2.5089
   73CHL1   C26 7875   1.656   4.780   8.637 -0.7712 -0.3674 -0.0785
   73CHL1  H26A 7876   1.756   4.822   8.659 -1.6089  2.1906 -0.9110
   73CHL1  H26B 7877   1.583   4.793   8.720 -0.8280  0.7018 -0.2844
   73CHL1  H26C 7878   1.659   4.671   8.614  0.0265 -0.7723  1.7323
   73CHL1   C27 7879   1.584   5.001   8.572  0.3965  0.2988  0.7340
   73CHL1  H27A 7880   1.570   5.063   8.481 -0.7931 -1.4724 -0.3556
   73CHL1  H27B 7881   1.495   5.014   8.638 -0.6430 -1.1466 -0.3189
   73CHL1  H27C 7882   1.672   5.030   8.633  1.4127 -0.3714 -0.3760
   74CHL1    C3 7883   0.598   3.928   6.905 -0.7904  0.1076 -0.1877
   74CHL1    H3 7884   0.522   4.009   6.912 -0.5248  0.2083  2.6376
   74CHL1    O3 7885   0.654   3.923   6.776 -0.1768  0.0220  0.0195
   74CHL1   H3' 7886   0.749   3.910   6.780 -0.0282  0.2185 -1.9485
   74CHL1    C4 7887   0.711   3.955   7.001  0.3265  0.3181 -0.1235
   74CHL1   H4A 7888   0.790   3.879   6.980 -0.7626 -1.3132  1.3764
   74CHL1   H4B 7889   0.750   4.058   6.990  0.1327  0.3801 -0.2245
   74CHL1    C5 7890   0.665   3.935   7.145 -0.5935  0.6641  0.0724
   74CHL1    C6 7891   0.672   4.032   7.236 -0.1736  0.1819 -0.4069
   74CHL1    H6 7892   0.730   4.123   7.214 -1.0668  0.7703 -0.3975
   74CHL1    C7 7893   0.629   4.019   7.382 -0.5771  0.8745  0.1174
   74CHL1   H7A 7894   0.716   4.031   7.450 -1.7712 -3.9799  3.0049
   74CHL1   H7B 7895   0.544   4.089   7.396 -1.1316  0.2704 -0.1441
   74CHL1    C8 7896   0.585   3.875   7.422  0.3156 -0.4315  0.1766
   74CHL1    H8 7897   0.676   3.812   7.435 -0.3576 -1.3636  0.4798
   74CHL1   C14 7898   0.516   3.886   7.553  0.2072 -0.0516 -0.2296
   74CHL1   H14 7899   0.428   3.951   7.534  1.6252  1.9694 -0.3427
   74CHL1   C15 7900   0.598   3.935   7.669 -0.1488  0.4370 -0.7605
   74CHL1  H15A 7901   0.689   3.879   7.698 -0.1227  0.4522 -0.8129
   74CHL1  H15B 7902   0.621   4.044   7.665 -0.7568  0.5390 -1.9886
   74CHL1   C16 7903   0.498   3.909   7.785 -0.0975 -1.1502  0.2420
   74CHL1  H16A 7904   0.549   3.876   7.878 -0.9842  0.5564  1.3755
   74CHL1  H16B 7905   0.439   3.999   7.810  1.1964 -0.2832  0.2776
   74CHL1   C17 7906   0.400   3.800   7.733 -0.0448 -0.5060 -0.1953
   74CHL1   H17 7907   0.301   3.848   7.718  0.4857  0.3017 -1.2512
   74CHL1   C13 7908   0.456   3.752   7.601 -0.2699 -0.0187 -0.8237
   74CHL1   C18 7909   0.568   3.654   7.620 -0.0244 -0.4144 -0.1199
   74CHL1  H18A 7910   0.634   3.647   7.531  0.4857  0.0653  0.2134
   74CHL1  H18B 7911   0.637   3.684   7.702  0.1889  1.5420 -0.9576
   74CHL1  H18C 7912   0.526   3.552   7.636 -0.7922  0.1254  1.5218
   74CHL1   C12 7913   0.354   3.712   7.482  0.0479  0.5154  0.1234
   74CHL1  H12A 7914   0.302   3.618   7.512 -0.0563  0.3893 -0.4265
   74CHL1  H12B 7915   0.275   3.789   7.471  0.7833  1.1919 -0.5615
   74CHL1   C11 7916   0.422   3.691   7.347 -0.2143  0.2121  1.1185
   74CHL1  H11A 7917   0.490   3.603   7.350 -0.3310 -0.0448 -1.6574
   74CHL1  H11B 7918   0.348   3.671   7.266 -1.0777  3.4099  0.9919
   74CHL1    C9 7919   0.502   3.817   7.307  0.3192 -0.3158 -0.3847
   74CHL1    H9 7920   0.433   3.903   7.291 -1.3891 -1.2439  1.6033
   74CHL1   C10 7921   0.582   3.804   7.174 -0.7499  0.5008 -0.3320
   74CHL1   C19 7922   0.686   3.690   7.183 -0.1298  0.6409  0.2657
   74CHL1  H19A 7923   0.646   3.591   7.210 -0.2562  0.5260 -0.3439
   74CHL1  H19B 7924   0.729   3.682   7.081 -1.8396 -1.0073 -0.3660
   74CHL1  H19C 7925   0.761   3.714   7.262 -2.2083  0.9527  2.2506
   74CHL1    C1 7926   0.478   3.777   7.068 -0.2326 -0.4355  0.5723
   74CHL1   H1A 7927   0.436   3.675   7.081 -0.0269 -0.6239 -0.1726
   74CHL1   H1B 7928   0.393   3.848   7.077 -0.3777 -0.4019 -0.8002
   74CHL1    C2 7929   0.541   3.786   6.925 -0.4705 -0.3585 -0.2051
   74CHL1   H2A 7930   0.465   3.763   6.848 -1.9476 -0.7662  1.3185
   74CHL1   H2B 7931   0.622   3.711   6.917  1.1523  0.9618  2.2682
   74CHL1   C20 7932   0.368   3.692   7.835  0.4452  0.6112 -0.1058
   74CHL1   H20 7933   0.468   3.652   7.862  0.2215 -0.3169 -0.5996
   74CHL1   C21 7934   0.275   3.584   7.775 -0.1055  0.0327  0.1740
   74CHL1  H21A 7935   0.176   3.623   7.742  0.0890 -0.7248 -1.4138
   74CHL1  H21B 7936   0.255   3.494   7.837  1.1717 -0.0166  0.5349
   74CHL1  H21C 7937   0.313   3.539   7.680 -2.3835 -0.0168 -0.7754
   74CHL1   C22 7938   0.315   3.764   7.969 -0.3920 -0.5218  0.0543
   74CHL1  H22A 7939   0.398   3.827   8.008  0.5916 -0.1708 -2.4172
   74CHL1  H22B 7940   0.229   3.833   7.949  1.4202  1.2832 -2.1370
   74CHL1   C23 7941   0.281   3.674   8.088 -0.4581  0.5888  0.0692
   74CHL1  H23A 7942   0.199   3.607   8.054  0.7145  0.0441 -1.8127
   74CHL1  H23B 7943   0.371   3.614   8.115 -0.2347  0.6162 -0.6061
   74CHL1   C24 7944   0.234   3.756   8.209  0.2155 -0.0754  0.0284
   74CHL1  H24A 7945   0.326   3.810   8.241 -0.3484  1.5779 -1.0461
   74CHL1  H24B 7946   0.153   3.828   8.189  0.2953 -0.3100 -1.2574
   74CHL1   C25 7947   0.181   3.674   8.329 -0.6135 -1.0460 -0.4254
   74CHL1   H25 7948   0.188   3.738   8.420 -0.5007 -0.8391 -0.5804
   74CHL1   C26 7949   0.032   3.646   8.303  0.2743  0.0202 -0.1223
   74CHL1  H26A 7950  -0.020   3.590   8.384 -0.4368  2.2763  1.0919
   74CHL1  H26B 7951  -0.030   3.736   8.281 -1.4521 -1.0534  0.1552
   74CHL1  H26C 7952   0.023   3.568   8.225  0.7179 -1.3072  1.1237
   74CHL1   C27 7953   0.256   3.538   8.351  0.7000 -0.0221  0.3509
   74CHL1  H27A 7954   0.233   3.498   8.453 -3.2289  2.9040  0.8541
   74CHL1  H27B 7955   0.229   3.473   8.266 -0.7579  0.5814  0.3258
   74CHL1  H27C 7956   0.365   3.557   8.340  0.8643 -1.3661 -0.5084
   75CHL1    C3 7957   4.053   5.354   6.770 -0.9633  0.4723  0.4569
   75CHL1    H3 7958   4.009   5.261   6.813  1.0758 -0.4288  0.6764
   75CHL1    O3 7959   4.079   5.350   6.627  0.1682  0.0597  0.8148
   75CHL1   H3' 7960   4.039   5.430   6.591  1.1236 -0.0229 -0.4987
   75CHL1    C4 7961   3.966   5.474   6.805 -0.4945 -0.6633  0.3322
   75CHL1   H4A 7962   4.007   5.572   6.774 -2.0484  0.5472  1.8985
   75CHL1   H4B 7963   3.872   5.454   6.751 -1.1845 -0.0363  1.2556
   75CHL1    C5 7964   3.939   5.474   6.952  0.3959 -0.4730  0.1557
   75CHL1    C6 7965   3.818   5.465   7.007  0.3797  0.0050  0.7494
   75CHL1    H6 7966   3.739   5.439   6.935  0.0179  0.0537  1.1278
   75CHL1    C7 7967   3.794   5.490   7.155  0.7138  0.4374  0.3506
   75CHL1   H7A 7968   3.705   5.554   7.171  0.8253  0.8940 -0.7656
   75CHL1   H7B 7969   3.764   5.390   7.195  2.3916 -0.3914 -0.3860
   75CHL1    C8 7970   3.913   5.532   7.244  0.3527  0.0789 -0.1500
   75CHL1    H8 7971   3.920   5.642   7.234  1.1732 -0.0049 -0.5626
   75CHL1   C14 7972   3.901   5.496   7.386  0.5355 -0.4312 -0.3842
   75CHL1   H14 7973   3.912   5.385   7.391  0.6603 -0.4748 -1.3618
   75CHL1   C15 7974   3.764   5.527   7.452 -0.6301 -0.7457 -0.8756
   75CHL1  H15A 7975   3.727   5.629   7.428 -1.1135 -0.8070 -0.3922
   75CHL1  H15B 7976   3.687   5.452   7.428 -0.4773 -1.3547  0.4845
   75CHL1   C16 7977   3.802   5.523   7.603 -0.2736 -0.0763  0.0653
   75CHL1  H16A 7978   3.769   5.614   7.658  0.6892  0.1688  0.2524
   75CHL1  H16B 7979   3.765   5.434   7.657  0.6501 -1.2241 -1.1184
   75CHL1   C17 7980   3.950   5.507   7.611 -0.2186  0.5245  0.7202
   75CHL1   H17 7981   3.976   5.399   7.614 -2.1191 -0.0600 -1.3121
   75CHL1   C13 7982   4.007   5.546   7.478  0.4171 -0.3456 -0.0877
   75CHL1   C18 7983   4.029   5.695   7.470  0.6381 -0.1985  0.9851
   75CHL1  H18A 7984   4.068   5.730   7.372  1.4095 -1.4646  0.8150
   75CHL1  H18B 7985   3.935   5.755   7.473  2.1725  2.4615 -0.4731
   75CHL1  H18C 7986   4.100   5.746   7.539 -1.0552  3.4305  0.2996
   75CHL1   C12 7987   4.129   5.464   7.438  0.1379  0.0424 -0.6173
   75CHL1  H12A 7988   4.220   5.492   7.495  0.5318 -0.2746 -1.0887
   75CHL1  H12B 7989   4.118   5.354   7.434 -1.7599  0.2085 -1.3024
   75CHL1   C11 7990   4.170   5.497   7.288 -0.0647  1.3498  0.5428
   75CHL1  H11A 7991   4.200   5.603   7.276 -0.4156  1.5225  1.1558
   75CHL1  H11B 7992   4.258   5.433   7.264 -1.8351 -0.3605 -1.8009
   75CHL1    C9 7993   4.045   5.471   7.192  0.2954 -0.5800 -0.3741
   75CHL1    H9 7994   4.033   5.361   7.196 -0.0657 -0.5185  1.0889
   75CHL1   C10 7995   4.071   5.495   7.042 -0.4792  0.2001 -0.0351
   75CHL1   C19 7996   4.130   5.638   7.011  0.1847 -0.1746  0.1035
   75CHL1  H19A 7997   4.132   5.666   6.904  0.8015  0.2386  0.2167
   75CHL1  H19B 7998   4.071   5.722   7.055 -1.1012  0.7035 -2.9819
   75CHL1  H19C 7999   4.235   5.644   7.048 -0.3669  0.0153  1.7435
   75CHL1    C1 8000   4.182   5.394   6.991  0.1041  0.0343  0.1344
   75CHL1   H1A 8001   4.280   5.420   7.036  0.0923 -2.7361  1.9402
   75CHL1   H1B 8002   4.160   5.297   7.039  0.6300 -0.1434  0.0247
   75CHL1    C2 8003   4.193   5.371   6.838 -0.0982  0.6819  1.4140
   75CHL1   H2A 8004   4.259   5.284   6.814 -1.7246 -0.2206 -0.0863
   75CHL1   H2B 8005   4.242   5.458   6.790  1.0541 -1.3630 -1.4153
   75CHL1   C20 8006   4.009   5.580   7.729  0.1675  0.7166  0.0798
   75CHL1   H20 8007   3.992   5.689   7.717  0.0567  0.6195 -0.6990
   75CHL1   C21 8008   4.162   5.569   7.744 -0.3896 -0.2997  0.1180
   75CHL1  H21A 8009   4.182   5.617   7.842 -3.1509  2.8639 -0.6697
   75CHL1  H21B 8010   4.215   5.622   7.662  0.8225 -0.6922  0.6298
   75CHL1  H21C 8011   4.199   5.464   7.742 -1.6386 -0.7550 -1.1990
   75CHL1   C22 8012   3.948   5.551   7.865 -0.5002  0.2163 -0.7345
   75CHL1  H22A 8013   4.009   5.606   7.940  1.5492  1.9218 -3.4763
   75CHL1  H22B 8014   3.841   5.577   7.879 -0.7359 -1.7453  1.9921
   75CHL1   C23 8015   3.944   5.399   7.913 -0.6665 -0.8212 -0.4512
   75CHL1  H23A 8016   3.862   5.345   7.862 -1.0081 -1.0825  0.3594
   75CHL1  H23B 8017   4.038   5.345   7.886 -1.1637 -1.3398 -1.1936
   75CHL1   C24 8018   3.923   5.381   8.070  0.1627 -0.0668 -0.7128
   75CHL1  H24A 8019   3.987   5.453   8.123 -0.3257  0.1273 -0.3851
   75CHL1  H24B 8020   3.816   5.409   8.081  0.1515  1.4515 -3.7366
   75CHL1   C25 8021   3.946   5.233   8.118 -0.0922  0.3382  0.0139
   75CHL1   H25 8022   3.895   5.172   8.040  1.3766  0.1639 -0.8522
   75CHL1   C26 8023   4.096   5.190   8.114  0.2925  0.2456  0.3427
   75CHL1  H26A 8024   4.110   5.089   8.159  2.1386  0.5644  0.5581
   75CHL1  H26B 8025   4.145   5.198   8.015  1.2064  0.5275  0.8051
   75CHL1  H26C 8026   4.152   5.256   8.184  1.3976  0.9852 -1.1844
   75CHL1   C27 8027   3.887   5.207   8.254 -0.0551 -0.1031  0.1873
   75CHL1  H27A 8028   3.864   5.101   8.275  2.8288 -0.4491  2.0933
   75CHL1  H27B 8029   3.970   5.223   8.327  1.1339 -5.0328  0.2809
   75CHL1  H27C 8030   3.799   5.275   8.264  1.0634  1.6295 -1.1602
   76CHL1    C3 8031   0.858   0.656   7.334 -0.3115  0.0426  0.6818
   76CHL1    H3 8032   0.748   0.665   7.351 -0.5941  1.3979 -1.4949
   76CHL1    O3 8033   0.874   0.692   7.200  0.2804 -0.3611  0.6766
   76CHL1   H3' 8034   0.962   0.664   7.175  1.2081  3.1380 -0.5219
   76CHL1    C4 8035   0.930   0.754   7.430 -0.7039  0.4392 -0.0483
   76CHL1   H4A 8036   1.037   0.724   7.418 -0.6575 -0.1177  1.5188
   76CHL1   H4B 8037   0.918   0.861   7.402  1.1922  0.6113 -0.3750
   76CHL1    C5 8038   0.910   0.712   7.574  0.1899 -0.4893 -0.4923
   76CHL1    C6 8039   0.868   0.797   7.674  0.1526  0.4005  0.0883
   76CHL1    H6 8040   0.837   0.894   7.632 -2.0480 -1.0644 -1.9257
   76CHL1    C7 8041   0.844   0.773   7.820 -0.5434 -0.4885 -0.2062
   76CHL1   H7A 8042   0.901   0.850   7.876  1.2150 -1.0824 -1.0980
   76CHL1   H7B 8043   0.736   0.780   7.843 -1.0670 -2.8248 -1.6097
   76CHL1    C8 8044   0.889   0.632   7.863  0.9480  1.1447 -0.4669
   76CHL1    H8 8045   1.000   0.632   7.867  0.9654  3.4007  1.4703
   76CHL1   C14 8046   0.833   0.584   8.000  0.2193 -0.5075 -0.0628
   76CHL1   H14 8047   0.723   0.582   7.980 -0.4308  1.8995  2.6059
   76CHL1   C15 8048   0.846   0.678   8.126  0.2491 -0.0870 -0.7071
   76CHL1  H15A 8049   0.938   0.738   8.114 -0.3269  1.3358  1.3692
   76CHL1  H15B 8050   0.759   0.748   8.123  0.1654 -0.0608  0.9518
   76CHL1   C16 8051   0.860   0.584   8.251  0.3537  0.2272 -0.4017
   76CHL1  H16A 8052   0.962   0.582   8.293 -0.0706 -4.3393  0.8521
   76CHL1  H16B 8053   0.785   0.610   8.329 -1.0947 -1.0578 -1.3143
   76CHL1   C17 8054   0.841   0.439   8.194 -0.1351 -0.4562  0.6120
   76CHL1   H17 8055   0.731   0.424   8.191 -0.4640  1.4981  1.5179
   76CHL1   C13 8056   0.892   0.451   8.045 -0.3128  0.1607 -0.5172
   76CHL1   C18 8057   1.045   0.449   8.046 -0.0308  0.2800  1.2024
   76CHL1  H18A 8058   1.084   0.349   8.074  1.9238 -0.3811 -3.1676
   76CHL1  H18B 8059   1.080   0.468   7.943 -1.2223  0.2732  0.7844
   76CHL1  H18C 8060   1.097   0.529   8.103  0.7713 -0.0260  0.9095
   76CHL1   C12 8061   0.837   0.348   7.951  0.3536 -0.1835 -0.2305
   76CHL1  H12A 8062   0.865   0.243   7.975  0.4359 -0.0405  0.3037
   76CHL1  H12B 8063   0.726   0.353   7.962  0.1618  0.2199 -2.0114
   76CHL1   C11 8064   0.871   0.381   7.804 -0.4348  0.3850  0.5638
   76CHL1  H11A 8065   0.978   0.353   7.797  0.7297  4.1467  1.0593
   76CHL1  H11B 8066   0.809   0.323   7.733 -2.3949  0.9599  1.7151
   76CHL1    C9 8067   0.849   0.529   7.750  0.0501 -0.5603 -0.3699
   76CHL1    H9 8068   0.739   0.540   7.737 -0.2046 -1.4249  0.8487
   76CHL1   C10 8069   0.914   0.558   7.612  0.2676  0.2604  0.6081
   76CHL1   C19 8070   1.064   0.527   7.621 -0.8676  0.3485 -0.4456
   76CHL1  H19A 8071   1.097   0.421   7.632  0.8254  0.6988 -1.6861
   76CHL1  H19B 8072   1.126   0.570   7.539  2.5258  0.7812  2.1370
   76CHL1  H19C 8073   1.110   0.575   7.710  0.5626  0.5871 -1.2800
   76CHL1    C1 8074   0.859   0.473   7.498  0.2542 -0.0282  0.5540
   76CHL1   H1A 8075   0.888   0.368   7.519  0.3096  0.4970  3.6700
   76CHL1   H1B 8076   0.748   0.483   7.504  0.1477 -1.2598  0.8969
   76CHL1    C2 8077   0.908   0.510   7.353 -0.0440 -0.7795 -0.1106
   76CHL1   H2A 8078   0.864   0.435   7.284  0.6088 -0.5244 -0.8142
   76CHL1   H2B 8079   1.016   0.506   7.330 -0.0399  1.2878 -0.6532
   76CHL1   C20 8080   0.900   0.331   8.290  0.0556  0.4045 -1.3893
   76CHL1   H20 8081   1.009   0.317   8.271  0.6447  0.6403  1.3758
   76CHL1   C21 8082   0.835   0.193   8.252  0.2138 -0.1798 -0.2355
   76CHL1  H21A 8083   0.728   0.207   8.226 -0.0046 -1.4360 -0.0822
   76CHL1  H21B 8084   0.842   0.127   8.341  1.1398 -0.2305 -0.3336
   76CHL1  H21C 8085   0.875   0.136   8.165 -0.3604 -0.5066 -0.2851
   76CHL1   C22 8086   0.892   0.364   8.444 -0.0271  0.2226  0.2311
   76CHL1  H22A 8087   0.963   0.302   8.502  1.2328  0.1730 -1.2809
   76CHL1  H22B 8088   0.931   0.468   8.451  1.4116 -0.2563 -0.2187
   76CHL1   C23 8089   0.749   0.341   8.491 -0.3573 -0.1334 -0.2189
   76CHL1  H23A 8090   0.674   0.392   8.428  0.8864  2.4713  0.2679
   76CHL1  H23B 8091   0.716   0.235   8.488 -2.9113  0.5462  1.0011
   76CHL1   C24 8092   0.737   0.397   8.639  1.1852  0.3701 -0.4293
   76CHL1  H24A 8093   0.781   0.337   8.721  1.9532  0.5268 -0.7199
   76CHL1  H24B 8094   0.807   0.483   8.629  2.3951 -0.4187  0.9884
   76CHL1   C25 8095   0.595   0.432   8.690  0.1578 -0.2672 -0.2073
   76CHL1   H25 8096   0.529   0.343   8.679 -0.7627  0.6456 -2.9423
   76CHL1   C26 8097   0.596   0.472   8.838  0.1970 -0.2959  0.8761
   76CHL1  H26A 8098   0.662   0.561   8.845  1.0555 -0.8860  0.5487
   76CHL1  H26B 8099   0.497   0.497   8.883  0.5811 -0.0424  1.6000
   76CHL1  H26C 8100   0.638   0.383   8.890  1.4597 -0.2404 -0.0066
   76CHL1   C27 8101   0.515   0.549   8.615 -0.8743  0.6879 -0.0718
   76CHL1  H27A 8102   0.412   0.548   8.656  0.1393  1.0147  2.6367
   76CHL1  H27B 8103   0.565   0.641   8.652 -1.4572  0.1699  2.1547
   76CHL1  H27C 8104   0.533   0.531   8.506  0.7277 -1.0356  0.4307
   77CHL1    C3 8105   1.443   5.534   6.797  0.8930  0.6713  0.4361
   77CHL1    H3 8106   1.408   5.429   6.807  1.0032  0.4758 -1.0380
   77CHL1    O3 8107   1.434   5.579   6.661  0.2795  0.5304 -0.3448
   77CHL1   H3' 8108   1.421   5.505   6.600 -0.4637  1.6263 -1.5495
   77CHL1    C4 8109   1.357   5.627   6.883 -0.3150 -0.1637  0.8883
   77CHL1   H4A 8110   1.406   5.726   6.869  0.6209 -1.0241 -3.5791
   77CHL1   H4B 8111   1.255   5.619   6.840 -0.6264  1.1344  1.3466
   77CHL1    C5 8112   1.369   5.606   7.030  0.0730  0.6974  0.6112
   77CHL1    C6 8113   1.263   5.574   7.102 -0.2792 -0.2475 -0.0835
   77CHL1    H6 8114   1.165   5.590   7.055 -0.2017  2.0614  0.4280
   77CHL1    C7 8115   1.269   5.542   7.248 -0.6280  0.7467 -0.3966
   77CHL1   H7A 8116   1.193   5.598   7.306 -0.3671  0.6860  0.0139
   77CHL1   H7B 8117   1.254   5.432   7.251 -0.5169  0.6545 -2.3899
   77CHL1    C8 8118   1.406   5.576   7.314 -0.7445  0.4367 -0.7543
   77CHL1    H8 8119   1.414   5.686   7.326 -1.2159  0.3797  0.2105
   77CHL1   C14 8120   1.419   5.518   7.457 -0.4546 -0.2171  0.5038
   77CHL1   H14 8121   1.397   5.410   7.443  1.5132 -0.4511 -1.4760
   77CHL1   C15 8122   1.315   5.579   7.552  0.0312  0.1021  0.0808
   77CHL1  H15A 8123   1.306   5.689   7.541 -0.2598  0.4919  3.3412
   77CHL1  H15B 8124   1.215   5.534   7.533 -0.6552  2.4108 -2.6257
   77CHL1   C16 8125   1.378   5.536   7.688  0.6030 -0.1221 -0.3913
   77CHL1  H16A 8126   1.395   5.616   7.764  1.1876 -2.2157  1.8010
   77CHL1  H16B 8127   1.323   5.453   7.737  0.1550  0.9042  0.9347
   77CHL1   C17 8128   1.521   5.483   7.656  0.0173 -0.6166  1.1316
   77CHL1   H17 8129   1.513   5.373   7.644  1.4975 -0.6198 -0.2064
   77CHL1   C13 8130   1.557   5.542   7.518 -0.0715 -0.6825  0.2626
   77CHL1   C18 8131   1.605   5.689   7.543 -0.2130 -0.2219  0.8929
   77CHL1  H18A 8132   1.636   5.741   7.450  1.8993 -2.1642  0.4424
   77CHL1  H18B 8133   1.533   5.754   7.599  0.3325  1.3205 -0.1371
   77CHL1  H18C 8134   1.699   5.690   7.602  1.5569 -0.6881 -1.7708
   77CHL1   C12 8135   1.653   5.462   7.435 -0.4845  0.6148 -0.0316
   77CHL1  H12A 8136   1.757   5.468   7.475  1.7822  0.3709 -5.1076
   77CHL1  H12B 8137   1.624   5.355   7.429 -0.2225  0.6201 -2.6415
   77CHL1   C11 8138   1.658   5.517   7.289 -0.1798  0.1065 -0.6841
   77CHL1  H11A 8139   1.712   5.614   7.285  1.2829 -0.6988 -2.3435
   77CHL1  H11B 8140   1.717   5.443   7.231  1.6099  0.7309  0.2670
   77CHL1    C9 8141   1.516   5.523   7.222 -0.5136  0.0362 -0.1055
   77CHL1    H9 8142   1.493   5.416   7.206  0.0760 -0.4218  1.9193
   77CHL1   C10 8143   1.515   5.589   7.084  0.8465 -0.7428  0.6654
   77CHL1   C19 8144   1.580   5.727   7.099 -0.1224 -0.0393 -0.0267
   77CHL1  H19A 8145   1.526   5.795   7.169  0.6125  1.2169 -0.6592
   77CHL1  H19B 8146   1.685   5.728   7.133  0.3372 -1.1822 -1.3277
   77CHL1  H19C 8147   1.589   5.760   6.994 -0.2023 -1.4212 -0.4881
   77CHL1    C1 8148   1.603   5.504   6.990  0.1495  0.7077 -0.5089
   77CHL1   H1A 8149   1.709   5.521   7.017  0.3757 -2.8616  1.4536
   77CHL1   H1B 8150   1.574   5.397   7.001 -0.1616  0.9628  1.6668
   77CHL1    C2 8151   1.592   5.533   6.840 -0.5062 -0.4771 -0.0878
   77CHL1   H2A 8152   1.648   5.453   6.787  0.0379 -1.7728  2.2952
   77CHL1   H2B 8153   1.636   5.633   6.817 -1.0280  0.5994  3.0547
   77CHL1   C20 8154   1.617   5.517   7.773  0.9199  0.4618 -0.2541
   77CHL1   H20 8155   1.640   5.625   7.785  1.1069  0.5313 -1.2271
   77CHL1   C21 8156   1.753   5.446   7.735 -0.0727 -0.1658  0.1201
   77CHL1  H21A 8157   1.804   5.407   7.826  0.1500 -2.8237 -1.0624
   77CHL1  H21B 8158   1.824   5.515   7.683  0.2107 -0.5189  0.0369
   77CHL1  H21C 8159   1.731   5.363   7.665 -0.8933  1.1159 -1.2238
   77CHL1   C22 8160   1.553   5.450   7.905  0.4569  0.4388 -0.1124
   77CHL1  H22A 8161   1.454   5.498   7.918  1.2891  2.1877  0.0276
   77CHL1  H22B 8162   1.528   5.343   7.887 -0.9939  1.0783 -2.1093
   77CHL1   C23 8163   1.628   5.474   8.030 -0.6495 -0.5790  0.6048
   77CHL1  H23A 8164   1.723   5.418   8.030  0.8229  1.7856  0.6755
   77CHL1  H23B 8165   1.667   5.577   8.044  1.4357 -0.9240 -1.8441
   77CHL1   C24 8166   1.543   5.433   8.154 -0.7845  0.4154  0.4061
   77CHL1  H24A 8167   1.461   5.505   8.172 -0.8218 -0.1502  2.7051
   77CHL1  H24B 8168   1.510   5.329   8.135 -0.7224  0.7951 -2.1667
   77CHL1   C25 8169   1.608   5.441   8.299  0.1422  0.4793 -0.6887
   77CHL1   H25 8170   1.524   5.423   8.369  0.7132  1.0730  0.1687
   77CHL1   C26 8171   1.709   5.327   8.326  0.2050  0.5400  0.0459
   77CHL1  H26A 8172   1.800   5.330   8.262  0.8829 -1.0446  0.8861
   77CHL1  H26B 8173   1.741   5.333   8.432 -1.4849 -1.2094  0.7126
   77CHL1  H26C 8174   1.665   5.226   8.313 -2.4616  1.2111  2.7236
   77CHL1   C27 8175   1.667   5.582   8.317  0.3411 -0.0171  0.0727
   77CHL1  H27A 8176   1.583   5.654   8.328 -1.3540 -1.9239  0.2626
   77CHL1  H27B 8177   1.722   5.586   8.413  0.0371 -0.3692  0.2619
   77CHL1  H27C 8178   1.743   5.601   8.238  1.1829 -0.8430  0.6686
   78CHL1    C3 8179   3.871   0.374   6.686 -0.1365  0.0479  0.3476
   78CHL1    H3 8180   3.896   0.266   6.670  1.9479  0.3856  0.9545
   78CHL1    O3 8181   3.849   0.442   6.563 -0.8241 -0.0250 -0.1823
   78CHL1   H3' 8182   3.826   0.531   6.591  0.4252  0.0361  0.7671
   78CHL1    C4 8183   3.738   0.392   6.769  0.0332 -0.3161 -0.3808
   78CHL1   H4A 8184   3.726   0.502   6.765  3.2265  0.1696  0.3291
   78CHL1   H4B 8185   3.648   0.353   6.717 -0.0506 -0.0202 -0.4593
   78CHL1    C5 8186   3.755   0.350   6.914 -0.8379 -0.7494  0.7326
   78CHL1    C6 8187   3.685   0.250   6.962  0.2619  0.6238  0.9629
   78CHL1    H6 8188   3.611   0.200   6.898  1.3028  0.0450  0.1925
   78CHL1    C7 8189   3.700   0.204   7.107 -0.7299  0.5167  0.2424
   78CHL1   H7A 8190   3.596   0.187   7.142 -1.5180  1.4926 -1.4678
   78CHL1   H7B 8191   3.755   0.108   7.110  1.4186  1.7013  1.1841
   78CHL1    C8 8192   3.779   0.297   7.203  0.2093 -0.3876  0.1712
   78CHL1    H8 8193   3.712   0.379   7.237  0.0967 -0.6245  0.5210
   78CHL1   C14 8194   3.825   0.222   7.321  0.1567  0.3298  0.2234
   78CHL1   H14 8195   3.909   0.153   7.299  2.5050  3.5370 -1.9329
   78CHL1   C15 8196   3.719   0.140   7.403  0.2302 -0.1312 -0.3580
   78CHL1  H15A 8197   3.623   0.195   7.400  0.1031 -0.3600 -3.4140
   78CHL1  H15B 8198   3.700   0.044   7.351 -0.1404 -0.6152  0.6403
   78CHL1   C16 8199   3.774   0.122   7.537  0.0708  0.2207 -0.5508
   78CHL1  H16A 8200   3.698   0.156   7.611 -0.1924  0.3203 -0.8666
   78CHL1  H16B 8201   3.794   0.015   7.558 -2.4438 -0.1921  0.0651
   78CHL1   C17 8202   3.901   0.212   7.545 -0.1167 -0.5430 -0.4831
   78CHL1   H17 8203   3.983   0.138   7.531 -0.7893 -1.4999  0.4535
   78CHL1   C13 8204   3.900   0.306   7.422 -0.2242 -0.0514  0.1207
   78CHL1   C18 8205   3.817   0.431   7.466 -0.1384  0.3704 -0.6180
   78CHL1  H18A 8206   3.708   0.422   7.479  0.0234  0.3563  0.8925
   78CHL1  H18B 8207   3.859   0.469   7.562 -2.2204 -1.1004  0.9697
   78CHL1  H18C 8208   3.831   0.515   7.395 -0.8792  1.0163 -0.0146
   78CHL1   C12 8209   4.038   0.342   7.360 -0.6528 -0.1250  0.0856
   78CHL1  H12A 8210   4.105   0.401   7.425  2.8739 -1.3304 -2.1663
   78CHL1  H12B 8211   4.096   0.249   7.343 -1.6225 -0.4655 -1.5865
   78CHL1   C11 8212   4.022   0.404   7.223  0.1769  0.6979 -0.2382
   78CHL1  H11A 8213   4.005   0.512   7.239 -0.0885  0.4687  1.1258
   78CHL1  H11B 8214   4.113   0.396   7.159 -0.3802 -0.2501 -0.9527
   78CHL1    C9 8215   3.907   0.343   7.127 -0.6742  0.4457  0.0207
   78CHL1    H9 8216   3.961   0.250   7.098  0.1338  1.1115 -0.6672
   78CHL1   C10 8217   3.880   0.414   6.990 -0.7075 -0.2795  0.6990
   78CHL1   C19 8218   3.846   0.569   7.006 -0.4835 -0.0647  0.5794
   78CHL1  H19A 8219   3.930   0.614   7.063 -0.2170  0.1762  0.0044
   78CHL1  H19B 8220   3.819   0.629   6.916 -1.0767  0.1641  0.9029
   78CHL1  H19C 8221   3.761   0.578   7.077 -0.0844  0.0844  1.0480
   78CHL1    C1 8222   4.013   0.397   6.897 -0.7979  0.0568 -0.1462
   78CHL1   H1A 8223   4.085   0.466   6.947 -1.9272  1.8052 -0.8126
   78CHL1   H1B 8224   4.047   0.292   6.902  0.6951  0.5201 -0.0757
   78CHL1    C2 8225   3.992   0.442   6.757  0.2480  0.2335  0.0676
   78CHL1   H2A 8226   4.083   0.416   6.700  0.1202 -1.4214  0.5802
   78CHL1   H2B 8227   3.976   0.552   6.761 -0.7868  0.0720  0.8370
   78CHL1   C20 8228   3.927   0.267   7.690 -0.0714  0.3120  0.5414
   78CHL1   H20 8229   3.851   0.342   7.718 -0.2884  0.3428 -0.1021
   78CHL1   C21 8230   4.064   0.344   7.690  0.3571 -0.2953 -0.7827
   78CHL1  H21A 8231   4.078   0.386   7.791 -0.2274  1.1678 -1.2828
   78CHL1  H21B 8232   4.065   0.438   7.630  1.6359 -0.1122 -0.5052
   78CHL1  H21C 8233   4.149   0.280   7.659 -1.1703 -2.8732  0.0394
   78CHL1   C22 8234   3.918   0.161   7.810 -0.0035 -0.4498  0.3278
   78CHL1  H22A 8235   3.809   0.164   7.832  0.0184  1.3533  0.2748
   78CHL1  H22B 8236   3.940   0.057   7.775 -0.6173  0.6265 -3.9008
   78CHL1   C23 8237   3.992   0.181   7.940  0.3531 -0.1974 -0.0151
   78CHL1  H23A 8238   4.102   0.170   7.929  0.7090  1.6435  1.2487
   78CHL1  H23B 8239   3.967   0.285   7.971  2.3248 -0.0883  1.4185
   78CHL1   C24 8240   3.934   0.082   8.046 -0.5040  0.3634 -0.3969
   78CHL1  H24A 8241   3.827   0.109   8.053 -0.3036  0.7760  1.7200
   78CHL1  H24B 8242   3.947  -0.020   8.002  0.3734  1.0967 -1.9207
   78CHL1   C25 8243   4.018   0.097   8.179 -0.1139  0.0031  0.4228
   78CHL1   H25 8244   4.123   0.072   8.155 -0.7328  0.3162 -3.2105
   78CHL1   C26 8245   4.002   0.233   8.242  0.3822 -0.4823 -0.5981
   78CHL1  H26A 8246   4.075   0.302   8.194  0.3431 -1.6446 -2.4552
   78CHL1  H26B 8247   3.905   0.280   8.216  1.1979  1.0105 -1.0865
   78CHL1  H26C 8248   4.008   0.236   8.352  1.9604 -0.5829 -0.6507
   78CHL1   C27 8249   3.976  -0.008   8.286 -0.0739 -1.0428  0.6610
   78CHL1  H27A 8250   3.992  -0.106   8.237  0.7777  0.2799 -1.8917
   78CHL1  H27B 8251   4.045  -0.004   8.373  0.2993 -0.7866  0.3556
   78CHL1  H27C 8252   3.873   0.017   8.320 -0.5684  0.3697 -1.6785
   79CHL1    C3 8253   2.025   0.103   7.313 -0.8589  0.2234  0.4969
   79CHL1    H3 8254   1.995  -0.004   7.314 -0.0355 -0.0168  0.3127
   79CHL1    O3 8255   2.051   0.123   7.177  0.1173 -0.1635 -0.1766
   79CHL1   H3' 8256   1.988   0.068   7.130 -1.9251  1.5951  0.3672
   79CHL1    C4 8257   1.904   0.193   7.341 -0.1684  0.2780  0.0411
   79CHL1   H4A 8258   1.929   0.299   7.317  2.1744 -0.3613 -0.5996
   79CHL1   H4B 8259   1.824   0.169   7.268  0.7486  0.1963 -0.9624
   79CHL1    C5 8260   1.872   0.185   7.490  0.3880 -0.7564 -0.2438
   79CHL1    C6 8261   1.745   0.159   7.524 -0.6569 -0.3002  0.5440
   79CHL1    H6 8262   1.675   0.153   7.440  0.5988  1.8637 -0.7910
   79CHL1    C7 8263   1.694   0.140   7.665  0.1513  0.0977  0.6281
   79CHL1   H7A 8264   1.603   0.201   7.677 -0.5663 -0.9190  0.5223
   79CHL1   H7B 8265   1.670   0.032   7.681 -2.7990  0.9913  3.1286
   79CHL1    C8 8266   1.797   0.178   7.770 -0.3476 -0.0288 -0.4342
   79CHL1    H8 8267   1.794   0.289   7.772  1.9323  0.1023 -1.4909
   79CHL1   C14 8268   1.767   0.109   7.900  0.4775 -0.0739 -0.6899
   79CHL1   H14 8269   1.798   0.003   7.891  2.4117  0.2292  1.4260
   79CHL1   C15 8270   1.619   0.114   7.937 -0.1594 -0.4602  0.0968
   79CHL1  H15A 8271   1.585   0.217   7.916 -1.5181 -1.0388 -0.6969
   79CHL1  H15B 8272   1.566   0.032   7.884  0.5890 -1.6761  1.1483
   79CHL1   C16 8273   1.620   0.079   8.081  0.1057 -0.0132  0.0171
   79CHL1  H16A 8274   1.552   0.155   8.127  0.2527 -0.6583  1.3444
   79CHL1  H16B 8275   1.573  -0.019   8.104 -1.6726  0.5250 -1.1251
   79CHL1   C17 8276   1.769   0.077   8.134  0.5555 -0.7610  0.0501
   79CHL1   H17 8277   1.804  -0.028   8.128  0.9013 -0.6031 -1.0282
   79CHL1   C13 8278   1.847   0.158   8.024 -0.1836 -0.0930  0.4381
   79CHL1   C18 8279   1.838   0.309   8.035  0.2706  0.5262  0.4090
   79CHL1  H18A 8280   1.884   0.361   7.948  1.6610 -0.6017  0.4403
   79CHL1  H18B 8281   1.733   0.341   8.051  0.1508  1.4750 -1.8642
   79CHL1  H18C 8282   1.899   0.329   8.126  1.5968 -1.0167 -0.1036
   79CHL1   C12 8283   1.998   0.115   7.992  0.1050  0.5179 -0.1669
   79CHL1  H12A 8284   2.069   0.166   8.060 -1.2523  3.0802 -0.5600
   79CHL1  H12B 8285   2.002   0.006   8.011  1.2385  0.4178 -0.8890
   79CHL1   C11 8286   2.054   0.145   7.846 -0.0616  0.7190 -0.1564
   79CHL1  H11A 8287   2.094   0.249   7.848  2.2005 -0.0529 -1.4741
   79CHL1  H11B 8288   2.136   0.073   7.826  0.6468  1.0076  1.5331
   79CHL1    C9 8289   1.939   0.134   7.729 -0.6430 -0.4053 -0.5369
   79CHL1    H9 8290   1.933   0.024   7.713 -1.0045 -0.4360 -0.1945
   79CHL1   C10 8291   1.988   0.190   7.596  0.1466  0.9066 -0.2314
   79CHL1   C19 8292   2.020   0.340   7.600 -0.0354  0.2767 -0.6765
   79CHL1  H19A 8293   1.928   0.401   7.614  0.8933  2.0922 -2.0195
   79CHL1  H19B 8294   2.092   0.365   7.681 -0.4826 -0.0312 -0.1759
   79CHL1  H19C 8295   2.067   0.383   7.509  2.3483 -1.5451 -0.4048
   79CHL1    C1 8296   2.107   0.110   7.549 -0.0715 -0.7213 -0.0383
   79CHL1   H1A 8297   2.192   0.138   7.616  1.4279  0.4806 -2.3132
   79CHL1   H1B 8298   2.086   0.002   7.565 -0.3588 -0.6167  0.3171
   79CHL1    C2 8299   2.147   0.142   7.405  0.4938  0.0410  0.6655
   79CHL1   H2A 8300   2.238   0.083   7.377  0.1922 -0.6953  1.2093
   79CHL1   H2B 8301   2.165   0.251   7.392 -0.3706  0.0750 -0.4110
   79CHL1   C20 8302   1.790   0.118   8.279  0.1415  0.4791 -0.1746
   79CHL1   H20 8303   1.757   0.223   8.293 -2.4078 -0.1401 -0.9714
   79CHL1   C21 8304   1.941   0.102   8.313  0.1714  0.3287 -0.0093
   79CHL1  H21A 8305   2.008   0.156   8.243  2.0575 -3.3715 -1.3010
   79CHL1  H21B 8306   1.975  -0.004   8.317 -1.9287 -0.3840  3.9915
   79CHL1  H21C 8307   1.961   0.135   8.417 -0.5900 -1.3001  0.6858
   79CHL1   C22 8308   1.690   0.043   8.372 -0.1185  0.4005  0.4592
   79CHL1  H22A 8309   1.594   0.095   8.356 -0.4559  0.4372  2.3569
   79CHL1  H22B 8310   1.683  -0.065   8.347  0.0761  0.5463 -0.2311
   79CHL1   C23 8311   1.703   0.062   8.522 -0.1661  0.5313  0.3122
   79CHL1  H23A 8312   1.810   0.044   8.547  0.3778  2.6972 -0.2573
   79CHL1  H23B 8313   1.682   0.168   8.548 -0.2546  0.7439 -0.5692
   79CHL1   C24 8314   1.625  -0.035   8.608 -0.3610  0.2189  0.1653
   79CHL1  H24A 8315   1.519  -0.023   8.577  0.2579  2.3848 -1.3199
   79CHL1  H24B 8316   1.669  -0.137   8.602 -2.1003 -0.8713  3.2587
   79CHL1   C25 8317   1.641   0.001   8.763  0.3377  0.4601 -0.1730
   79CHL1   H25 8318   1.748  -0.016   8.787  0.3730 -1.1928 -1.3914
   79CHL1   C26 8319   1.613   0.144   8.814  0.0178 -0.0570  0.3303
   79CHL1  H26A 8320   1.505   0.168   8.805  0.2709  1.2009  0.4060
   79CHL1  H26B 8321   1.628   0.142   8.924  1.5908 -0.2162  0.1335
   79CHL1  H26C 8322   1.680   0.219   8.766  1.5895 -0.8313  1.2301
   79CHL1   C27 8323   1.562  -0.103   8.849  0.0410  0.0545  0.4025
   79CHL1  H27A 8324   1.586  -0.079   8.955  5.0737  1.7373 -0.8364
   79CHL1  H27B 8325   1.453  -0.102   8.830  0.2186  0.4690 -0.6696
   79CHL1  H27C 8326   1.602  -0.205   8.832 -2.0000 -1.0519  1.9648
   80CHL1    C3 8327   0.436   4.593   7.152  0.7560  0.5104 -0.3950
   80CHL1    H3 8328   0.433   4.703   7.141 -3.4414  0.4839 -0.9073
   80CHL1    O3 8329   0.445   4.542   7.021 -0.0071 -0.0315 -0.3585
   80CHL1   H3' 8330   0.502   4.604   6.975  0.4985  0.6170  1.0649
   80CHL1    C4 8331   0.555   4.535   7.228  0.6004 -0.5864 -0.1524
   80CHL1   H4A 8332   0.553   4.425   7.215 -1.2974 -0.5658 -0.2075
   80CHL1   H4B 8333   0.647   4.579   7.184  0.8537 -0.3159  0.6329
   80CHL1    C5 8334   0.556   4.549   7.384 -0.0711 -0.4895 -0.5938
   80CHL1    C6 8335   0.652   4.608   7.451  0.2997  0.2770 -0.1044
   80CHL1    H6 8336   0.740   4.646   7.396 -0.8460  0.0697 -2.1935
   80CHL1    C7 8337   0.659   4.618   7.602 -0.9368 -0.8368 -0.4329
   80CHL1   H7A 8338   0.765   4.602   7.632 -0.8712  3.0452  2.0875
   80CHL1   H7B 8339   0.654   4.722   7.641  1.3309 -0.7180 -0.3171
   80CHL1    C8 8340   0.556   4.531   7.672  0.2330  0.1267 -0.1747
   80CHL1    H8 8341   0.587   4.426   7.656 -0.4822 -0.5498  2.3910
   80CHL1   C14 8342   0.546   4.564   7.817  0.6297  0.1530 -0.0421
   80CHL1   H14 8343   0.505   4.667   7.826 -0.5253 -0.4670  2.7854
   80CHL1   C15 8344   0.675   4.575   7.903 -0.3770  0.0231 -0.0351
   80CHL1  H15A 8345   0.746   4.491   7.886 -1.4058 -1.1773  1.3471
   80CHL1  H15B 8346   0.725   4.671   7.880 -3.9967  1.4612 -2.6563
   80CHL1   C16 8347   0.631   4.555   8.051  0.3548  0.4982 -0.0770
   80CHL1  H16A 8348   0.658   4.456   8.094 -4.1722 -0.7454  0.4489
   80CHL1  H16B 8349   0.671   4.642   8.107 -0.7071  0.4974  0.7070
   80CHL1   C17 8350   0.475   4.542   8.045  0.2515 -0.1391  0.5062
   80CHL1   H17 8351   0.433   4.643   8.027 -0.7305 -0.4174  1.1811
   80CHL1   C13 8352   0.440   4.490   7.898  0.3766  0.3900 -0.1074
   80CHL1   C18 8353   0.469   4.337   7.893  0.3311  0.5953 -0.2702
   80CHL1  H18A 8354   0.567   4.316   7.940  1.1017  1.5737 -1.3937
   80CHL1  H18B 8355   0.393   4.278   7.949  1.2452 -0.7067 -0.3788
   80CHL1  H18C 8356   0.469   4.305   7.787  0.1714 -0.2720 -0.0147
   80CHL1   C12 8357   0.298   4.517   7.842  0.0168 -0.2199 -0.1358
   80CHL1  H12A 8358   0.225   4.451   7.895 -0.7401  2.0586  1.8270
   80CHL1  H12B 8359   0.271   4.624   7.855 -0.1923 -0.2738 -0.1086
   80CHL1   C11 8360   0.301   4.489   7.684 -0.6210 -0.0041 -0.0158
   80CHL1  H11A 8361   0.305   4.378   7.688 -2.7268 -0.1027  1.0557
   80CHL1  H11B 8362   0.199   4.517   7.651 -1.7180 -1.6492  1.7356
   80CHL1    C9 8363   0.425   4.553   7.605 -0.6724 -0.3214  0.8989
   80CHL1    H9 8364   0.411   4.662   7.591  1.1253 -0.2049 -0.3332
   80CHL1   C10 8365   0.425   4.509   7.451  0.4161 -1.2266 -0.7075
   80CHL1   C19 8366   0.420   4.356   7.435 -0.5710  0.9860 -0.3245
   80CHL1  H19A 8367   0.329   4.318   7.487  0.3677  1.0631  1.4082
   80CHL1  H19B 8368   0.421   4.315   7.331  0.0588 -1.2006  0.4824
   80CHL1  H19C 8369   0.503   4.309   7.492 -0.7941  0.8040 -0.1455
   80CHL1    C1 8370   0.308   4.570   7.369  0.2344  0.6305  0.2062
   80CHL1   H1A 8371   0.216   4.539   7.422  2.1756 -0.7061  3.0600
   80CHL1   H1B 8372   0.295   4.680   7.377  0.4576  0.5971  1.1317
   80CHL1    C2 8373   0.308   4.547   7.221 -0.1625  0.5103  0.0419
   80CHL1   H2A 8374   0.230   4.610   7.174  1.6512  2.1194 -1.0073
   80CHL1   H2B 8375   0.286   4.442   7.193 -0.4645  0.8703 -1.1027
   80CHL1   C20 8376   0.400   4.481   8.163  0.2704 -0.5792  0.3800
   80CHL1   H20 8377   0.299   4.449   8.128 -0.4080  2.5225 -0.8365
   80CHL1   C21 8378   0.365   4.595   8.267 -0.3184  1.2172  0.4077
   80CHL1  H21A 8379   0.304   4.560   8.353 -1.2425 -0.4667 -0.8677
   80CHL1  H21B 8380   0.310   4.673   8.210 -2.1458 -0.4330 -0.2069
   80CHL1  H21C 8381   0.454   4.647   8.308  0.2215  0.4711  0.1945
   80CHL1   C22 8382   0.464   4.354   8.228 -0.4717 -0.1111  0.1204
   80CHL1  H22A 8383   0.517   4.286   8.157  0.3583 -0.3942  0.9956
   80CHL1  H22B 8384   0.545   4.398   8.289 -2.4294  3.5219  0.3895
   80CHL1   C23 8385   0.374   4.275   8.326 -0.2908  0.2487  0.0140
   80CHL1  H23A 8386   0.336   4.349   8.400  1.3493  1.5290 -0.3626
   80CHL1  H23B 8387   0.292   4.230   8.266 -0.8262  0.8453  0.2874
   80CHL1   C24 8388   0.445   4.164   8.406 -0.8022 -0.1558 -0.0200
   80CHL1  H24A 8389   0.461   4.087   8.327  2.1848  1.3269 -1.0208
   80CHL1  H24B 8390   0.535   4.217   8.443 -0.8758  0.4156 -0.6322
   80CHL1   C25 8391   0.367   4.101   8.518 -0.1015  0.4275 -0.0653
   80CHL1   H25 8392   0.340   4.187   8.583  1.2635  0.3736  0.6055
   80CHL1   C26 8393   0.234   4.045   8.464 -0.1089 -0.8696 -0.5736
   80CHL1  H26A 8394   0.256   3.955   8.402  2.0861 -0.4521 -0.4758
   80CHL1  H26B 8395   0.173   4.027   8.555 -0.3867  1.2162 -0.2939
   80CHL1  H26C 8396   0.179   4.118   8.402  0.8763  0.3522 -0.0512
   80CHL1   C27 8397   0.454   4.004   8.599 -0.6034 -0.2578 -0.2452
   80CHL1  H27A 8398   0.541   4.050   8.649 -0.9391 -0.5718  0.6502
   80CHL1  H27B 8399   0.380   3.960   8.669 -1.0159 -0.1921 -0.6361
   80CHL1  H27C 8400   0.497   3.925   8.533 -0.5929 -0.7478  0.3345
   81CHL1    C3 8401   5.052   4.645   6.853  0.6450 -0.0685  0.0285
   81CHL1    H3 8402   5.114   4.587   6.925 -1.1998  0.3803  2.0546
   81CHL1    O3 8403   5.122   4.663   6.735 -0.2663 -0.5891 -0.3249
   81CHL1   H3' 8404   5.069   4.721   6.680 -1.0897 -0.2114  0.8177
   81CHL1    C4 8405   4.911   4.579   6.829  0.4336 -0.3484 -0.1397
   81CHL1   H4A 8406   4.867   4.642   6.749  0.9712 -0.3427 -0.4335
   81CHL1   H4B 8407   4.933   4.484   6.775  0.4404  0.7376 -2.1316
   81CHL1    C5 8408   4.830   4.557   6.959 -0.0234 -0.1953 -0.5928
   81CHL1    C6 8409   4.783   4.431   6.990 -0.3734 -0.1327 -0.0720
   81CHL1    H6 8410   4.805   4.350   6.919  0.7044  0.3885 -0.3628
   81CHL1    C7 8411   4.715   4.392   7.117  0.2504 -0.0953 -0.2268
   81CHL1   H7A 8412   4.631   4.320   7.106  0.8795 -1.1896  1.6511
   81CHL1   H7B 8413   4.792   4.338   7.176  1.6325  0.9009 -1.0644
   81CHL1    C8 8414   4.666   4.506   7.205  0.1274 -0.5092 -0.0346
   81CHL1    H8 8415   4.575   4.546   7.156  0.9918 -1.1912 -2.2963
   81CHL1   C14 8416   4.639   4.464   7.351  0.0563 -0.0249  0.2307
   81CHL1   H14 8417   4.745   4.445   7.378  1.0879  1.3014 -2.5330
   81CHL1   C15 8418   4.552   4.337   7.365  0.2604 -0.1938  0.2177
   81CHL1  H15A 8419   4.456   4.339   7.309 -0.2298 -1.6865  0.9384
   81CHL1  H15B 8420   4.597   4.238   7.344  1.0420  0.0991  0.4648
   81CHL1   C16 8421   4.511   4.355   7.511 -1.2222  0.1049  1.1906
   81CHL1  H16A 8422   4.400   4.360   7.515 -1.3531 -1.0034 -0.3592
   81CHL1  H16B 8423   4.534   4.268   7.576  0.5635 -1.7962 -1.7613
   81CHL1   C17 8424   4.571   4.489   7.566 -0.5762  0.1246 -0.9106
   81CHL1   H17 8425   4.675   4.461   7.591  0.3047  2.3069 -1.8822
   81CHL1   C13 8426   4.588   4.575   7.440  0.3131  0.5215 -0.0419
   81CHL1   C18 8427   4.450   4.622   7.402  0.0771 -0.9179  0.7564
   81CHL1  H18A 8428   4.368   4.549   7.387 -0.8479  0.0395  1.0347
   81CHL1  H18B 8429   4.418   4.687   7.486  0.2329  0.1795 -0.0048
   81CHL1  H18C 8430   4.452   4.686   7.311  1.5551  1.2691  2.2227
   81CHL1   C12 8431   4.704   4.680   7.448  0.8388 -0.3563  0.1321
   81CHL1  H12A 8432   4.667   4.765   7.510  0.8792  0.9137 -1.4967
   81CHL1  H12B 8433   4.790   4.635   7.501  1.8194  0.8837 -0.3570
   81CHL1   C11 8434   4.741   4.733   7.309  0.5976  0.0042  0.0583
   81CHL1  H11A 8435   4.648   4.776   7.266  1.5342  1.5662 -0.4736
   81CHL1  H11B 8436   4.814   4.817   7.312 -1.4011  1.8059  0.7554
   81CHL1    C9 8437   4.768   4.619   7.201 -0.5668 -0.8057 -1.0331
   81CHL1    H9 8438   4.862   4.572   7.236 -0.8334 -1.0164 -0.6012
   81CHL1   C10 8439   4.812   4.672   7.061  0.4176  0.1342 -0.5913
   81CHL1   C19 8440   4.700   4.767   7.007  0.0856  0.4496  0.1602
   81CHL1  H19A 8441   4.696   4.861   7.066 -1.1752  0.5221  0.0005
   81CHL1  H19B 8442   4.737   4.806   6.910  0.3592 -3.5238 -1.5308
   81CHL1  H19C 8443   4.601   4.717   7.001 -0.3620  1.2757  0.5314
   81CHL1    C1 8444   4.949   4.747   7.064  0.3439  0.1769  0.3433
   81CHL1   H1A 8445   4.934   4.838   7.125  0.6502 -0.8808  2.0586
   81CHL1   H1B 8446   5.023   4.688   7.122 -0.3361 -0.7256  0.3172
   81CHL1    C2 8447   5.022   4.782   6.929 -0.0269 -0.1389  0.4896
   81CHL1   H2A 8448   5.119   4.829   6.956  0.5187 -0.8633 -0.1561
   81CHL1   H2B 8449   4.963   4.852   6.866  1.1164 -1.0873 -1.7532
   81CHL1   C20 8450   4.501   4.536   7.696  0.3528 -0.2268 -0.3435
   81CHL1   H20 8451   4.394   4.565   7.686  0.3315  0.2405  1.0096
   81CHL1   C21 8452   4.563   4.664   7.755  0.1579 -0.0896 -0.1129
   81CHL1  H21A 8453   4.534   4.759   7.705  2.1175 -0.3884 -1.9367
   81CHL1  H21B 8454   4.673   4.657   7.743  0.1686  1.0404 -0.7919
   81CHL1  H21C 8455   4.537   4.673   7.863  0.2830 -2.1332  0.1364
   81CHL1   C22 8456   4.490   4.423   7.806 -0.5972  0.2556  0.1356
   81CHL1  H22A 8457   4.441   4.482   7.887  0.3116  3.2054 -1.3061
   81CHL1  H22B 8458   4.435   4.337   7.761  2.1827 -1.6843  0.2326
   81CHL1   C23 8459   4.620   4.355   7.862  1.2553 -0.0986 -0.2088
   81CHL1  H23A 8460   4.672   4.304   7.779 -0.7709 -3.5713  0.4777
   81CHL1  H23B 8461   4.692   4.429   7.905  2.3642 -0.4347 -1.4315
   81CHL1   C24 8462   4.586   4.233   7.957 -0.4113 -0.3919 -0.5365
   81CHL1  H24A 8463   4.534   4.287   8.039 -0.7447 -0.1283 -0.9185
   81CHL1  H24B 8464   4.517   4.157   7.916 -1.0057  0.4969 -1.2328
   81CHL1   C25 8465   4.706   4.154   8.015  0.1673  0.1838 -0.3596
   81CHL1   H25 8466   4.781   4.129   7.937  1.9114  2.0054  0.6237
   81CHL1   C26 8467   4.778   4.232   8.123  0.7289  0.7662 -0.0890
   81CHL1  H26A 8468   4.831   4.310   8.063 -1.2427  0.6688 -2.0512
   81CHL1  H26B 8469   4.707   4.282   8.193 -0.0567  0.9207 -0.9814
   81CHL1  H26C 8470   4.849   4.164   8.175 -0.3501 -0.4428 -0.1698
   81CHL1   C27 8471   4.652   4.022   8.078  0.6718 -0.4852  0.5755
   81CHL1  H27A 8472   4.607   4.061   8.171  2.6097  2.6166  0.3699
   81CHL1  H27B 8473   4.573   3.967   8.022  1.8605 -0.7881 -0.8993
   81CHL1  H27C 8474   4.741   3.963   8.111 -0.1105 -1.3543  1.1563
   82CHL1    C3 8475   6.089   5.626   7.133  0.3836 -0.2412  0.3513
   82CHL1    H3 8476   6.052   5.729   7.150 -1.5198 -0.8608  0.1897
   82CHL1    O3 8477   6.118   5.615   6.995 -0.1198  0.2998  0.4866
   82CHL1   H3' 8478   6.040   5.649   6.951 -1.5386 -1.0941  1.7762
   82CHL1    C4 8479   6.206   5.585   7.221  0.9797 -0.1792  0.8417
   82CHL1   H4A 8480   6.247   5.492   7.177 -1.2503 -0.2668 -1.2921
   82CHL1   H4B 8481   6.276   5.668   7.201  0.1660 -0.0296 -1.7123
   82CHL1    C5 8482   6.169   5.579   7.368  0.5889  0.1339 -0.7997
   82CHL1    C6 8483   6.226   5.665   7.452 -0.2628  0.3933 -0.3726
   82CHL1    H6 8484   6.308   5.735   7.427  1.5907 -1.1880  0.9504
   82CHL1    C7 8485   6.206   5.663   7.602 -0.3202 -1.0228 -0.4074
   82CHL1   H7A 8486   6.305   5.648   7.650  0.4510 -0.6766 -1.8278
   82CHL1   H7B 8487   6.163   5.760   7.634 -0.6433 -1.1076 -0.5701
   82CHL1    C8 8488   6.117   5.541   7.650 -0.4057 -0.6899  0.2656
   82CHL1    H8 8489   6.180   5.450   7.655  2.7165  1.3156  0.7508
   82CHL1   C14 8490   6.052   5.580   7.780  0.0417  0.1920 -0.1971
   82CHL1   H14 8491   5.978   5.659   7.755  1.2608  1.0269 -1.3432
   82CHL1   C15 8492   6.125   5.637   7.905  0.5284 -1.0295 -0.5931
   82CHL1  H15A 8493   6.226   5.593   7.903  1.3677  0.8315 -1.7400
   82CHL1  H15B 8494   6.140   5.747   7.899 -1.2534 -0.7602 -0.7206
   82CHL1   C16 8495   6.041   5.605   8.026 -0.3731 -0.8728 -0.1116
   82CHL1  H16A 8496   6.096   5.545   8.102 -0.3453 -0.7482 -0.0333
   82CHL1  H16B 8497   6.011   5.699   8.076 -0.0262 -1.6163  1.5620
   82CHL1   C17 8498   5.923   5.529   7.976  0.9726  0.1721 -0.5913
   82CHL1   H17 8499   5.846   5.603   7.945  0.3439  0.0398  0.5881
   82CHL1   C13 8500   5.974   5.461   7.846  0.5916 -0.2707 -0.2824
   82CHL1   C18 8501   6.074   5.345   7.879 -0.3016 -0.5272 -0.3029
   82CHL1  H18A 8502   6.165   5.386   7.929  0.0067 -0.5906 -0.8094
   82CHL1  H18B 8503   6.019   5.269   7.939 -0.2311 -1.0860 -0.9429
   82CHL1  H18C 8504   6.100   5.283   7.792 -0.8498 -1.5102  0.2153
   82CHL1   C12 8505   5.862   5.409   7.751  1.0728 -0.5660 -0.2762
   82CHL1  H12A 8506   5.826   5.309   7.786 -1.7879  0.0236 -1.2870
   82CHL1  H12B 8507   5.780   5.484   7.752  1.2452  0.1805 -6.0377
   82CHL1   C11 8508   5.917   5.391   7.607 -0.5038 -0.2850  0.5275
   82CHL1  H11A 8509   5.976   5.297   7.606  2.0305  1.1973 -1.3926
   82CHL1  H11B 8510   5.841   5.364   7.530  1.3594 -2.3029 -0.7494
   82CHL1    C9 8511   6.005   5.511   7.552 -0.3605  1.2961  0.1257
   82CHL1    H9 8512   5.936   5.598   7.555 -2.4122 -0.2128 -0.7387
   82CHL1   C10 8513   6.055   5.480   7.407  0.5880 -0.7232 -0.9213
   82CHL1   C19 8514   6.105   5.340   7.380 -0.3208  0.6407 -0.0845
   82CHL1  H19A 8515   6.139   5.332   7.274 -1.7232 -4.2042 -0.3757
   82CHL1  H19B 8516   6.198   5.316   7.436 -1.0622  1.4492  1.5748
   82CHL1  H19C 8517   6.030   5.262   7.402  0.7862 -0.5672 -0.5095
   82CHL1    C1 8518   5.935   5.512   7.307  0.5194  0.4308  0.0341
   82CHL1   H1A 8519   5.857   5.433   7.316  0.3668  0.5166 -0.5045
   82CHL1   H1B 8520   5.897   5.612   7.336  2.1363  0.4359  2.3598
   82CHL1    C2 8521   5.973   5.537   7.164 -0.2692  0.0210 -0.2520
   82CHL1   H2A 8522   5.886   5.579   7.110 -1.1372 -0.7510  0.5063
   82CHL1   H2B 8523   5.999   5.440   7.117  1.9920  0.8601 -0.9160
   82CHL1   C20 8524   5.857   5.440   8.087  0.2022  0.0538 -0.4715
   82CHL1   H20 8525   5.933   5.362   8.109 -0.1512  0.0877  0.9591
   82CHL1   C21 8526   5.711   5.401   8.045  0.0069 -0.3046  0.2469
   82CHL1  H21A 8527   5.668   5.333   8.122  1.7502 -1.0602  0.5960
   82CHL1  H21B 8528   5.704   5.345   7.949  0.5662 -0.9977  0.5982
   82CHL1  H21C 8529   5.646   5.489   8.029  0.0992 -0.5595 -1.7883
   82CHL1   C22 8530   5.841   5.523   8.214  0.0807 -1.0836 -0.1696
   82CHL1  H22A 8531   5.938   5.545   8.264 -0.0617 -0.6724 -0.0683
   82CHL1  H22B 8532   5.795   5.624   8.206  1.4028 -0.1771  2.4555
   82CHL1   C23 8533   5.767   5.442   8.323  0.2249  0.1183 -0.3688
   82CHL1  H23A 8534   5.658   5.452   8.303 -0.1768 -0.4327  1.3330
   82CHL1  H23B 8535   5.794   5.335   8.321 -0.9149 -0.2424  1.2947
   82CHL1   C24 8536   5.770   5.498   8.467  0.8673 -0.0392  0.3402
   82CHL1  H24A 8537   5.875   5.514   8.502  0.3335  3.3432  0.7310
   82CHL1  H24B 8538   5.726   5.599   8.460  0.3851 -0.1718  1.3348
   82CHL1   C25 8539   5.692   5.412   8.573  0.3784 -0.9883 -0.5269
   82CHL1   H25 8540   5.695   5.473   8.665  1.1069 -1.8602  0.0404
   82CHL1   C26 8541   5.543   5.398   8.531  0.0576  0.0517  0.0194
   82CHL1  H26A 8542   5.508   5.497   8.494 -0.1448  1.6246  3.9440
   82CHL1  H26B 8543   5.535   5.322   8.451 -0.0574 -0.3224  0.3845
   82CHL1  H26C 8544   5.478   5.369   8.616 -0.6792 -1.9195 -1.1436
   82CHL1   C27 8545   5.755   5.282   8.609  0.0547  0.1186  0.0120
   82CHL1  H27A 8546   5.690   5.234   8.685 -1.1921 -0.8301 -1.5650
   82CHL1  H27B 8547   5.750   5.216   8.520 -0.3166  1.2095 -0.7983
   82CHL1  H27C 8548   5.859   5.285   8.647 -0.2185 -2.3798  1.1825
   83CHL1    C3 8549   2.374   6.440   6.950  0.1182 -0.2025  0.0596
   83CHL1    H3 8550   2.471   6.387   6.962 -0.7915 -1.8520  0.3815
   83CHL1    O3 8551   2.353   6.439   6.807 -0.2900  0.1706 -0.4885
   83CHL1   H3' 8552   2.258   6.451   6.795 -0.4317  0.3562  0.7238
   83CHL1    C4 8553   2.273   6.350   7.020  0.0493 -0.0895  0.5233
   83CHL1   H4A 8554   2.165   6.372   7.005  0.3515 -0.2247 -2.3675
   83CHL1   H4B 8555   2.285   6.247   6.979  0.0316 -0.0065  0.3052
   83CHL1    C5 8556   2.299   6.346   7.169 -0.2072  0.1539  0.0042
   83CHL1    C6 8557   2.328   6.231   7.233 -0.1884  0.4709  0.1480
   83CHL1    H6 8558   2.341   6.140   7.172  1.1179  0.6947  0.0604
   83CHL1    C7 8559   2.349   6.221   7.383  0.2786 -0.1089 -0.1911
   83CHL1   H7A 8560   2.278   6.140   7.411  1.1355 -0.2425  1.6706
   83CHL1   H7B 8561   2.453   6.189   7.403  0.3581  0.3241  0.1166
   83CHL1    C8 8562   2.313   6.352   7.460  0.1398 -0.4279  0.1251
   83CHL1    H8 8563   2.205   6.376   7.473 -0.0559 -1.5658  0.6584
   83CHL1   C14 8564   2.387   6.350   7.589  0.6945 -0.2493  0.1450
   83CHL1   H14 8565   2.494   6.340   7.562  0.4565  0.9163 -1.3895
   83CHL1   C15 8566   2.374   6.233   7.687 -0.4348  0.2018  0.4904
   83CHL1  H15A 8567   2.269   6.202   7.705 -0.6416 -1.3413 -2.6915
   83CHL1  H15B 8568   2.438   6.152   7.646 -0.6002  0.9394 -1.3239
   83CHL1   C16 8569   2.433   6.288   7.818  0.4677 -0.0496 -0.4156
   83CHL1  H16A 8570   2.366   6.259   7.902  0.0260  0.0208 -0.7413
   83CHL1  H16B 8571   2.535   6.246   7.832  0.8014  1.0253  0.5434
   83CHL1   C17 8572   2.445   6.445   7.804  0.5418  0.3483  0.0188
   83CHL1   H17 8573   2.549   6.471   7.777  1.1988 -0.4104  1.6371
   83CHL1   C13 8574   2.366   6.477   7.680  0.5071 -0.3908 -0.6437
   83CHL1   C18 8575   2.214   6.490   7.724 -0.1365  0.0896  0.2315
   83CHL1  H18A 8576   2.187   6.585   7.775  1.2616  0.3372  0.5786
   83CHL1  H18B 8577   2.153   6.477   7.633 -0.6512 -0.7564  0.6824
   83CHL1  H18C 8578   2.188   6.412   7.799 -0.4368  0.4759  0.5264
   83CHL1   C12 8579   2.414   6.606   7.610 -1.4606 -0.0829  0.1740
   83CHL1  H12A 8580   2.372   6.700   7.650 -1.2592 -0.2516  0.7818
   83CHL1  H12B 8581   2.523   6.612   7.590 -0.9381 -5.8608 -0.4838
   83CHL1   C11 8582   2.352   6.605   7.462 -0.2213  0.4157  0.6159
   83CHL1  H11A 8583   2.248   6.641   7.474 -1.0297 -1.6117  0.2273
   83CHL1  H11B 8584   2.408   6.680   7.403 -0.2194 -1.3286 -1.7557
   83CHL1    C9 8585   2.362   6.478   7.380 -0.0753 -0.0164 -0.3591
   83CHL1    H9 8586   2.471   6.464   7.370  0.0182 -0.8362  1.4975
   83CHL1   C10 8587   2.298   6.490   7.239  0.1544 -0.1483  0.0311
   83CHL1   C19 8588   2.138   6.520   7.243 -0.2774  0.0042  0.3409
   83CHL1  H19A 8589   2.082   6.452   7.311 -1.3440  0.5339  0.0245
   83CHL1  H19B 8590   2.134   6.621   7.291  1.0292  0.2372  0.0110
   83CHL1  H19C 8591   2.091   6.523   7.143 -1.9156  1.3728  1.0857
   83CHL1    C1 8592   2.374   6.597   7.157  0.5339 -0.2887 -0.1932
   83CHL1   H1A 8593   2.333   6.698   7.178  0.6600  0.4979 -3.2258
   83CHL1   H1B 8594   2.482   6.590   7.183 -0.0122 -0.5053  2.3006
   83CHL1    C2 8595   2.356   6.585   6.999  0.3016  0.2826  0.4176
   83CHL1   H2A 8596   2.422   6.660   6.949 -0.4997 -0.1335 -1.3787
   83CHL1   H2B 8597   2.251   6.615   6.979  0.6181  2.3743  1.6245
   83CHL1   C20 8598   2.408   6.507   7.944 -0.0622  0.3377  1.1236
   83CHL1   H20 8599   2.306   6.469   7.966 -0.7510  2.5481  1.9980
   83CHL1   C21 8600   2.432   6.649   7.929 -0.5779  0.1554 -0.1596
   83CHL1  H21A 8601   2.428   6.707   8.023 -1.1580  0.5053 -0.4007
   83CHL1  H21B 8602   2.356   6.689   7.859 -2.4238 -1.3270  0.9223
   83CHL1  H21C 8603   2.533   6.662   7.883  0.3130  0.4233  1.7608
   83CHL1   C22 8604   2.499   6.444   8.060 -0.2120  0.3026 -0.1525
   83CHL1  H22A 8605   2.485   6.335   8.067  1.2204 -0.0258 -1.6331
   83CHL1  H22B 8606   2.597   6.450   8.008 -0.2417 -0.6607 -0.3357
   83CHL1   C23 8607   2.482   6.508   8.202 -0.2075 -0.3103 -0.0691
   83CHL1  H23A 8608   2.527   6.610   8.201 -0.4770 -0.1861  0.0496
   83CHL1  H23B 8609   2.375   6.510   8.235 -0.2402 -0.7854 -0.1478
   83CHL1   C24 8610   2.569   6.449   8.324  0.6105  0.0375  0.2223
   83CHL1  H24A 8611   2.547   6.341   8.338 -0.3039  0.1809 -0.0791
   83CHL1  H24B 8612   2.673   6.447   8.284  0.2550  0.9261 -0.8150
   83CHL1   C25 8613   2.560   6.529   8.456 -0.2632 -0.6275 -0.2475
   83CHL1   H25 8614   2.521   6.630   8.431  2.5950  0.9444  1.0850
   83CHL1   C26 8615   2.456   6.464   8.548  0.1229 -0.8336 -0.6823
   83CHL1  H26A 8616   2.440   6.530   8.637  2.8662  1.5193 -1.7700
   83CHL1  H26B 8617   2.361   6.449   8.493 -0.3472  0.7176 -0.3545
   83CHL1  H26C 8618   2.501   6.368   8.580 -0.9997 -1.4819 -0.9960
   83CHL1   C27 8619   2.692   6.554   8.533  0.1918 -0.2540 -0.6170
   83CHL1  H27A 8620   2.676   6.614   8.626 -3.0110 -3.3021  1.0513
   83CHL1  H27B 8621   2.738   6.456   8.559  1.0779 -0.6836 -3.4703
   83CHL1  H27C 8622   2.758   6.616   8.469 -1.8595  0.6743 -1.9620
   84CHL1    C3 8623   4.252   2.772   6.884  0.2881  0.5514  0.2469
   84CHL1    H3 8624   4.202   2.872   6.879 -1.5399 -0.3305  0.0066
   84CHL1    O3 8625   4.322   2.742   6.759  0.0964  0.9624 -0.1866
   84CHL1   H3' 8626   4.265   2.679   6.712  2.3777 -1.3416 -0.0900
   84CHL1    C4 8627   4.361   2.792   6.991  0.8174 -0.3417 -0.1941
   84CHL1   H4A 8628   4.436   2.709   6.994  0.7114 -0.4198  1.4030
   84CHL1   H4B 8629   4.419   2.883   6.965 -2.5783  1.7535 -0.9953
   84CHL1    C5 8630   4.297   2.801   7.129 -0.6092 -0.6480 -0.1438
   84CHL1    C6 8631   4.311   2.916   7.200 -0.0190 -0.3219  1.0700
   84CHL1    H6 8632   4.369   3.002   7.163 -1.2884  0.3895  0.7044
   84CHL1    C7 8633   4.250   2.932   7.331  1.0395 -0.1576 -0.2983
   84CHL1   H7A 8634   4.318   2.988   7.398  0.5567  0.7075 -0.5183
   84CHL1   H7B 8635   4.157   2.992   7.318 -0.0807 -1.8318 -0.4069
   84CHL1    C8 8636   4.200   2.808   7.399 -0.4115  0.1369 -0.0602
   84CHL1    H8 8637   4.290   2.754   7.436  0.4955  0.2686 -1.9343
   84CHL1   C14 8638   4.107   2.850   7.513 -1.0003  0.2760 -0.2581
   84CHL1   H14 8639   4.010   2.888   7.473 -1.5493 -1.3862 -0.6019
   84CHL1   C15 8640   4.168   2.943   7.619  0.1467 -0.0430  0.0035
   84CHL1  H15A 8641   4.274   2.915   7.639  0.8079  2.1734 -0.0901
   84CHL1  H15B 8642   4.171   3.048   7.582  1.3531 -0.0413  0.0629
   84CHL1   C16 8643   4.082   2.920   7.753 -0.4134  0.0393  0.9218
   84CHL1  H16A 8644   4.148   2.891   7.838 -1.0622  0.4457  1.5722
   84CHL1  H16B 8645   4.026   3.013   7.775  0.4968  0.7733  0.2387
   84CHL1   C17 8646   3.976   2.806   7.709 -0.5121 -0.3414 -0.8638
   84CHL1   H17 8647   3.890   2.849   7.652  1.6505  2.4303 -2.3112
   84CHL1   C13 8648   4.052   2.731   7.596  0.1864 -0.1688 -0.1220
   84CHL1   C18 8649   4.153   2.637   7.664  0.6057  0.7330 -0.9722
   84CHL1  H18A 8650   4.235   2.687   7.720  0.7156  1.7936 -2.0449
   84CHL1  H18B 8651   4.107   2.553   7.721  0.3569  1.7788  0.4392
   84CHL1  H18C 8652   4.211   2.580   7.589  2.0589  1.6493 -0.5723
   84CHL1   C12 8653   3.967   2.647   7.497  0.1726 -0.0035  0.1747
   84CHL1  H12A 8654   3.919   2.565   7.554  1.8665 -1.5761 -0.5547
   84CHL1  H12B 8655   3.889   2.719   7.464 -1.1131 -0.4098  2.1448
   84CHL1   C11 8656   4.048   2.605   7.372 -0.3918 -0.8074  0.4252
   84CHL1  H11A 8657   4.119   2.524   7.401 -0.3996 -2.3028 -3.1279
   84CHL1  H11B 8658   3.975   2.554   7.305 -1.2092  0.3821  0.3948
   84CHL1    C9 8659   4.120   2.724   7.301 -1.2779 -0.0713  0.4774
   84CHL1    H9 8660   4.047   2.799   7.264  0.3545  0.5437 -1.7126
   84CHL1   C10 8661   4.208   2.695   7.175 -0.1264  0.2061  0.0179
   84CHL1   C19 8662   4.292   2.569   7.208 -0.2732 -0.2592  0.3298
   84CHL1  H19A 8663   4.336   2.597   7.306 -0.1258  1.1253 -0.1148
   84CHL1  H19B 8664   4.223   2.482   7.222 -1.8341  0.5596 -1.7271
   84CHL1  H19C 8665   4.375   2.556   7.135 -1.6615  0.3769 -1.4586
   84CHL1    C1 8666   4.109   2.672   7.057 -0.2589 -0.0227  0.0089
   84CHL1   H1A 8667   4.028   2.599   7.079 -1.8349  0.5813 -3.1343
   84CHL1   H1B 8668   4.045   2.762   7.043  1.4649  1.2956  0.2001
   84CHL1    C2 8669   4.163   2.647   6.916  0.7178  0.1341 -0.1826
   84CHL1   H2A 8670   4.083   2.637   6.840 -0.9533 -0.4589  1.5654
   84CHL1   H2B 8671   4.229   2.557   6.911 -0.1110 -0.5042  0.0271
   84CHL1   C20 8672   3.930   2.723   7.837  0.1666 -0.2995 -0.4593
   84CHL1   H20 8673   4.014   2.685   7.898 -0.5325 -1.5776 -0.2652
   84CHL1   C21 8674   3.843   2.597   7.796  0.0792 -0.4097 -0.3575
   84CHL1  H21A 8675   3.787   2.552   7.881 -0.7202  0.0106 -0.6488
   84CHL1  H21B 8676   3.910   2.525   7.744  0.9957 -0.4384  0.8069
   84CHL1  H21C 8677   3.765   2.641   7.730  0.8597 -0.2653 -1.2008
   84CHL1   C22 8678   3.855   2.816   7.933 -0.0952  1.0084 -0.0888
   84CHL1  H22A 8679   3.917   2.898   7.974 -1.6502  1.3528  1.6941
   84CHL1  H22B 8680   3.763   2.869   7.898 -1.2637 -0.5525  0.4934
   84CHL1   C23 8681   3.820   2.741   8.070 -0.4276  0.3541  0.5434
   84CHL1  H23A 8682   3.726   2.685   8.050 -1.0854  0.8231  2.1247
   84CHL1  H23B 8683   3.906   2.674   8.087 -1.4646 -1.2949 -0.4238
   84CHL1   C24 8684   3.800   2.837   8.190  0.6428 -0.5114 -0.0795
   84CHL1  H24A 8685   3.888   2.905   8.190 -0.5263  1.0824 -1.9755
   84CHL1  H24B 8686   3.714   2.900   8.159  1.3486  0.5202 -0.0069
   84CHL1   C25 8687   3.770   2.772   8.327  0.3488  0.0773 -0.2247
   84CHL1   H25 8688   3.865   2.724   8.361  0.4182  1.6466  2.0473
   84CHL1   C26 8689   3.734   2.879   8.425  0.1994  0.0810 -0.2764
   84CHL1  H26A 8690   3.812   2.958   8.432  0.6168 -0.1286 -1.9766
   84CHL1  H26B 8691   3.636   2.920   8.394 -1.5781 -3.6220 -0.1336
   84CHL1  H26C 8692   3.718   2.838   8.527  0.5845 -0.4161 -0.4116
   84CHL1   C27 8693   3.658   2.660   8.325  0.4107 -0.3767 -0.0007
   84CHL1  H27A 8694   3.563   2.711   8.298  0.5799  1.6778  2.8251
   84CHL1  H27B 8695   3.699   2.583   8.257  1.0841 -0.2870  0.2928
   84CHL1  H27C 8696   3.649   2.615   8.426 -2.3912  2.1652  1.0374
   85CHL1    C3 8697   3.768   6.630   6.727  0.0485 -0.4247 -0.8955
   85CHL1    H3 8698   3.702   6.708   6.771  0.6349 -1.2354  1.5581
   85CHL1    O3 8699   3.749   6.632   6.592  0.6511 -0.6026  0.8612
   85CHL1   H3' 8700   3.799   6.558   6.559  0.7881 -0.2518  0.2653
   85CHL1    C4 8701   3.913   6.673   6.749 -0.1908  0.1039  0.1534
   85CHL1   H4A 8702   3.976   6.596   6.699 -1.4708 -0.9020  0.0167
   85CHL1   H4B 8703   3.918   6.775   6.706  1.8981  0.6784  1.5988
   85CHL1    C5 8704   3.951   6.684   6.893  0.7552  0.1592  1.0882
   85CHL1    C6 8705   4.008   6.792   6.951 -0.0654 -0.0239  0.3154
   85CHL1    H6 8706   4.023   6.882   6.890  0.2108  0.6834  1.3934
   85CHL1    C7 8707   4.054   6.797   7.094 -0.9696  0.9240 -0.5184
   85CHL1   H7A 8708   4.159   6.834   7.098 -0.8609  0.4992  1.1745
   85CHL1   H7B 8709   3.986   6.863   7.152 -0.0152  1.4413  0.0463
   85CHL1    C8 8710   4.062   6.656   7.167 -0.0626 -0.0312  0.1329
   85CHL1    H8 8711   4.148   6.600   7.124 -0.7751 -0.6358 -0.5433
   85CHL1   C14 8712   4.070   6.668   7.320  0.4356 -0.6424 -0.3255
   85CHL1   H14 8713   3.979   6.726   7.346 -0.6796 -2.0179 -0.9778
   85CHL1   C15 8714   4.192   6.740   7.371  0.4039  1.0768 -0.5810
   85CHL1  H15A 8715   4.281   6.685   7.335  0.2240  1.3092 -1.4278
   85CHL1  H15B 8716   4.188   6.847   7.339 -0.8963  1.3737  0.4825
   85CHL1   C16 8717   4.179   6.719   7.521  0.2686  0.5222 -0.2207
   85CHL1  H16A 8718   4.278   6.687   7.562  0.5097  0.1275 -1.0972
   85CHL1  H16B 8719   4.140   6.809   7.573  5.1200  1.5421  2.2964
   85CHL1   C17 8720   4.078   6.598   7.539 -0.1069 -0.1583  0.3077
   85CHL1   H17 8721   3.981   6.645   7.567 -0.3225  0.1241 -0.8473
   85CHL1   C13 8722   4.060   6.541   7.397 -1.2742 -0.0063  1.1174
   85CHL1   C18 8723   4.183   6.445   7.367  0.5027  0.7375  0.2126
   85CHL1  H18A 8724   4.189   6.431   7.257 -1.2465  2.6806 -0.1974
   85CHL1  H18B 8725   4.278   6.487   7.406  1.2008 -0.1560 -0.4888
   85CHL1  H18C 8726   4.168   6.350   7.423  0.6818 -0.0313 -0.9871
   85CHL1   C12 8727   3.924   6.472   7.363  0.0167  0.3501  0.3791
   85CHL1  H12A 8728   3.929   6.371   7.410  0.8408  0.4239  0.4700
   85CHL1  H12B 8729   3.843   6.532   7.409  1.3912  1.5513  1.3454
   85CHL1   C11 8730   3.904   6.454   7.215 -0.1572  0.6499  0.0333
   85CHL1  H11A 8731   3.980   6.377   7.188 -0.0479  1.0096 -0.7120
   85CHL1  H11B 8732   3.802   6.413   7.197  1.0940 -1.9554 -1.8450
   85CHL1    C9 8733   3.934   6.574   7.123  0.1488  0.7196 -0.2048
   85CHL1    H9 8734   3.845   6.633   7.156 -1.1406 -0.8573 -0.7600
   85CHL1   C10 8735   3.913   6.550   6.969 -0.3197  0.8478  0.8881
   85CHL1   C19 8736   4.011   6.434   6.928  0.7006  0.0333 -0.6564
   85CHL1  H19A 8737   4.020   6.410   6.820  0.6635  1.1695 -0.9246
   85CHL1  H19B 8738   4.107   6.434   6.983 -1.6370 -1.0475  3.9402
   85CHL1  H19C 8739   3.980   6.335   6.968  1.0001 -0.4360 -1.5576
   85CHL1    C1 8740   3.765   6.507   6.934  0.3137  0.3817  0.1380
   85CHL1   H1A 8741   3.746   6.409   6.984  0.5152  0.9651  1.3874
   85CHL1   H1B 8742   3.700   6.583   6.982 -1.0575 -2.4003  3.0598
   85CHL1    C2 8743   3.739   6.497   6.789  0.4837  0.1111  0.7172
   85CHL1   H2A 8744   3.629   6.484   6.777  0.4868 -0.3829  1.1728
   85CHL1   H2B 8745   3.794   6.424   6.725  0.7188  0.1134  0.9158
   85CHL1   C20 8746   4.109   6.511   7.656  0.0955  0.3236  0.2408
   85CHL1   H20 8747   4.209   6.469   7.630 -0.5256 -0.9903 -0.1378
   85CHL1   C21 8748   4.013   6.388   7.676  0.2894 -0.1268  0.6757
   85CHL1  H21A 8749   3.913   6.422   7.642  2.5848  3.2337 -3.7522
   85CHL1  H21B 8750   4.013   6.337   7.775  1.4794 -0.9503  0.2852
   85CHL1  H21C 8751   4.061   6.319   7.603  1.3867  1.0919  0.1983
   85CHL1   C22 8752   4.110   6.593   7.788 -0.4400 -0.0674 -0.0393
   85CHL1  H22A 8753   4.133   6.701   7.777  3.6326 -0.6139  1.2568
   85CHL1  H22B 8754   4.004   6.602   7.817 -0.3644  2.3080 -0.2847
   85CHL1   C23 8755   4.209   6.536   7.888  0.2504 -0.4040 -0.6680
   85CHL1  H23A 8756   4.187   6.428   7.901  1.2109 -0.6078 -0.6674
   85CHL1  H23B 8757   4.311   6.556   7.851  0.3852  1.8853  0.7315
   85CHL1   C24 8758   4.198   6.605   8.024 -0.0562  0.5163  0.2681
   85CHL1  H24A 8759   4.207   6.714   8.006 -1.6793  0.6125 -0.1058
   85CHL1  H24B 8760   4.106   6.581   8.083 -0.9290 -2.4834 -2.0687
   85CHL1   C25 8761   4.311   6.562   8.133 -0.2840  0.2325  0.7373
   85CHL1   H25 8762   4.402   6.544   8.073  0.1946  0.3905  1.4065
   85CHL1   C26 8763   4.346   6.659   8.247  0.7678 -1.0640 -0.3008
   85CHL1  H26A 8764   4.322   6.758   8.203  0.9908 -1.0830 -0.4675
   85CHL1  H26B 8765   4.278   6.637   8.331 -0.0179  0.8400 -0.3970
   85CHL1  H26C 8766   4.452   6.650   8.280  0.6960  0.2375  0.3215
   85CHL1   C27 8767   4.280   6.425   8.194  0.6358  0.6075 -0.1402
   85CHL1  H27A 8768   4.224   6.365   8.120 -1.1273  3.3452 -1.1844
   85CHL1  H27B 8769   4.371   6.385   8.243 -0.7076  0.1312  2.1163
   85CHL1  H27C 8770   4.209   6.440   8.279  3.0567 -0.8759  2.2920
   86CHL1    C3 8771   6.123   4.418   6.985  0.2694  0.5944 -0.4169
   86CHL1    H3 8772   6.220   4.473   6.987  0.8358 -0.3662 -0.8721
   86CHL1    O3 8773   6.091   4.399   6.849 -0.2092  0.0792 -0.8991
   86CHL1   H3' 8774   6.141   4.466   6.802  0.9077  0.2639  0.4850
   86CHL1    C4 8775   6.133   4.281   7.055  0.2679 -0.2096  0.6263
   86CHL1   H4A 8776   6.037   4.225   7.048  0.4633 -0.6982  1.6078
   86CHL1   H4B 8777   6.211   4.214   7.012  0.2331 -0.7490  1.3851
   86CHL1    C5 8778   6.155   4.299   7.203  0.2645 -0.4478  0.1327
   86CHL1    C6 8779   6.251   4.237   7.271  0.2548  0.7060  0.6070
   86CHL1    H6 8780   6.327   4.171   7.226  0.5978  0.6357  1.2761
   86CHL1    C7 8781   6.269   4.259   7.421 -0.0304 -0.2865  0.1684
   86CHL1   H7A 8782   6.294   4.164   7.474  0.1531 -0.5904 -0.4495
   86CHL1   H7B 8783   6.352   4.332   7.434 -0.7142  0.6263 -0.5397
   86CHL1    C8 8784   6.144   4.314   7.495  0.5604 -0.6687 -0.7719
   86CHL1    H8 8785   6.070   4.231   7.502  0.2328 -0.3516 -0.4028
   86CHL1   C14 8786   6.180   4.352   7.641  0.4053 -0.8378  0.3309
   86CHL1   H14 8787   6.240   4.443   7.619 -0.3075 -0.3015  0.5531
   86CHL1   C15 8788   6.263   4.262   7.730 -0.0344 -0.3411 -0.3742
   86CHL1  H15A 8789   6.227   4.157   7.718  0.0964 -0.2389 -1.8233
   86CHL1  H15B 8790   6.368   4.272   7.696  0.6696  2.0748  2.1083
   86CHL1   C16 8791   6.239   4.312   7.877  0.2288 -0.0985 -0.7589
   86CHL1  H16A 8792   6.206   4.230   7.943  1.7178  0.8722  1.2967
   86CHL1  H16B 8793   6.336   4.353   7.912  1.7900 -3.3929 -0.8432
   86CHL1   C17 8794   6.134   4.426   7.858 -0.1555  0.2531 -0.4500
   86CHL1   H17 8795   6.186   4.522   7.843 -3.5140  2.6238  1.6624
   86CHL1   C13 8796   6.065   4.401   7.725  0.2272  0.3956  0.3065
   86CHL1   C18 8797   5.946   4.302   7.749 -0.3340  0.4294 -0.0520
   86CHL1  H18A 8798   5.858   4.351   7.796 -0.1849  0.4820  0.1728
   86CHL1  H18B 8799   5.918   4.263   7.649 -0.3567 -1.3457  0.6121
   86CHL1  H18C 8800   5.984   4.217   7.809 -1.4083  0.5260  0.8006
   86CHL1   C12 8801   6.015   4.525   7.652 -0.0256 -0.2542  1.0244
   86CHL1  H12A 8802   5.921   4.555   7.703  0.4838 -1.2121  2.6001
   86CHL1  H12B 8803   6.091   4.602   7.677 -0.3052 -0.4862  2.7429
   86CHL1   C11 8804   5.973   4.503   7.501  0.1924 -0.2539 -0.6400
   86CHL1  H11A 8805   5.874   4.453   7.508  1.4900 -2.9662 -0.3511
   86CHL1  H11B 8806   5.949   4.600   7.452  0.1888 -0.2318 -0.5940
   86CHL1    C9 8807   6.091   4.434   7.423  0.1047 -0.4661  0.1352
   86CHL1    H9 8808   6.169   4.512   7.415  0.3334 -0.8738 -3.0062
   86CHL1   C10 8809   6.057   4.394   7.275  0.3798  0.0605 -0.5510
   86CHL1   C19 8810   5.922   4.311   7.276 -0.4042  0.3935 -0.7308
   86CHL1  H19A 8811   5.894   4.283   7.172 -2.8027 -0.4517  0.0684
   86CHL1  H19B 8812   5.916   4.211   7.324 -0.9021  0.1646 -1.2576
   86CHL1  H19C 8813   5.835   4.367   7.317 -0.5706  0.0338 -0.5797
   86CHL1    C1 8814   6.030   4.524   7.195 -0.0090 -0.5051  0.5782
   86CHL1   H1A 8815   5.938   4.576   7.229 -0.6858 -0.9288 -0.5218
   86CHL1   H1B 8816   6.115   4.596   7.204 -2.6221  3.0620 -0.7604
   86CHL1    C2 8817   6.004   4.497   7.045 -0.3038 -0.0788  0.1720
   86CHL1   H2A 8818   5.995   4.592   6.987 -1.1633  0.2237  0.7864
   86CHL1   H2B 8819   5.909   4.446   7.022 -0.9984  1.1813  0.1329
   86CHL1   C20 8820   6.047   4.439   7.988 -0.1850  0.1318  0.3362
   86CHL1   H20 8821   5.980   4.353   8.006 -1.6437  0.5794 -2.3744
   86CHL1   C21 8822   5.963   4.560   7.970  0.1650  0.0204 -0.5555
   86CHL1  H21A 8823   5.937   4.594   8.073 -1.7101 -2.4280 -0.1342
   86CHL1  H21B 8824   5.868   4.536   7.918 -0.3596 -1.8919  1.1443
   86CHL1  H21C 8825   6.020   4.639   7.916  0.5691 -0.7463 -1.2784
   86CHL1   C22 8826   6.139   4.451   8.107  0.5314  0.1563  0.1637
   86CHL1  H22A 8827   6.074   4.453   8.197  1.5716 -2.3280  1.0487
   86CHL1  H22B 8828   6.211   4.367   8.112  0.6897  0.3659  3.0752
   86CHL1   C23 8829   6.223   4.579   8.124  0.0690 -0.1059  0.1551
   86CHL1  H23A 8830   6.280   4.598   8.030  1.3720 -1.5686  0.6051
   86CHL1  H23B 8831   6.162   4.670   8.140  1.0300  1.0437 -2.1934
   86CHL1   C24 8832   6.325   4.563   8.233  1.1032  0.1327  0.2417
   86CHL1  H24A 8833   6.268   4.545   8.327  0.5692  1.5730  0.2252
   86CHL1  H24B 8834   6.393   4.480   8.204 -1.2201 -1.6328 -0.4218
   86CHL1   C25 8835   6.428   4.675   8.261 -0.0265  0.0993  0.0884
   86CHL1   H25 8836   6.490   4.646   8.349 -0.1226  0.9140  0.4348
   86CHL1   C26 8837   6.524   4.681   8.134  0.4779  0.1206 -0.8420
   86CHL1  H26A 8838   6.466   4.705   8.042 -1.3513  1.9023  0.6856
   86CHL1  H26B 8839   6.593   4.768   8.139  2.5338 -1.2985 -2.7306
   86CHL1  H26C 8840   6.592   4.595   8.117  1.4147  0.7210 -0.2137
   86CHL1   C27 8841   6.353   4.807   8.291 -0.2554  0.4789  0.7009
   86CHL1  H27A 8842   6.301   4.851   8.203 -1.4043  1.6186  1.9103
   86CHL1  H27B 8843   6.275   4.795   8.369 -1.2215  0.7753 -0.1827
   86CHL1  H27C 8844   6.419   4.883   8.337  0.7456 -1.4911  2.6790
   87CHL1    C3 8845   5.909   3.014   7.088  0.1907 -0.0088  0.6029
   87CHL1    H3 8846   5.809   3.058   7.108  0.5963  0.1430  2.4988
   87CHL1    O3 8847   5.959   3.061   6.964 -0.4016 -0.0980  0.3835
   87CHL1   H3' 8848   6.044   3.022   6.943  0.9591  2.5570  0.6325
   87CHL1    C4 8849   5.996   3.075   7.197 -0.4218 -0.4418  0.2984
   87CHL1   H4A 8850   6.098   3.037   7.172 -0.7498  0.5965 -3.1075
   87CHL1   H4B 8851   6.013   3.184   7.187  1.2919 -0.6777  0.2513
   87CHL1    C5 8852   5.954   3.039   7.335  0.0502 -0.0533 -0.0151
   87CHL1    C6 8853   5.925   3.130   7.435 -0.0388  0.1275  0.7942
   87CHL1    H6 8854   5.946   3.233   7.403  2.6682 -0.2335  1.1722
   87CHL1    C7 8855   5.886   3.098   7.572 -0.2558  0.3087 -0.2971
   87CHL1   H7A 8856   5.948   3.159   7.642  0.2776 -1.4277  0.8242
   87CHL1   H7B 8857   5.781   3.128   7.591 -0.3396 -0.4737  0.5333
   87CHL1    C8 8858   5.904   2.949   7.600 -0.4716 -0.1642  0.2021
   87CHL1    H8 8859   6.009   2.942   7.635 -0.7635  0.5785  1.2933
   87CHL1   C14 8860   5.824   2.917   7.725 -0.4781 -0.1639  0.3839
   87CHL1   H14 8861   5.718   2.923   7.692 -0.4882  0.1828  0.4740
   87CHL1   C15 8862   5.830   3.014   7.846  0.3235  0.0202 -0.0606
   87CHL1  H15A 8863   5.933   3.049   7.866 -0.9785  3.2517  1.7678
   87CHL1  H15B 8864   5.777   3.111   7.838  0.8553  0.4871  1.5523
   87CHL1   C16 8865   5.773   2.925   7.961 -0.1579  0.1763  0.2965
   87CHL1  H16A 8866   5.847   2.913   8.043  0.1226 -0.5237 -0.0495
   87CHL1  H16B 8867   5.677   2.965   8.000 -0.6900  0.2189 -1.0057
   87CHL1   C17 8868   5.736   2.787   7.902 -0.7301 -0.1357 -0.3912
   87CHL1   H17 8869   5.641   2.796   7.846 -1.6309  0.6631  1.1839
   87CHL1   C13 8870   5.839   2.775   7.785  0.6734 -0.8931  0.8111
   87CHL1   C18 8871   5.976   2.755   7.845 -0.5852 -0.5327 -0.1861
   87CHL1  H18A 8872   5.997   2.814   7.937  2.0062 -0.8808 -0.4813
   87CHL1  H18B 8873   5.986   2.655   7.891  0.0231 -0.5660 -0.3860
   87CHL1  H18C 8874   6.054   2.776   7.770  0.1515  1.1835  0.9803
   87CHL1   C12 8875   5.805   2.670   7.675  0.7252 -0.1537 -0.0939
   87CHL1  H12A 8876   5.844   2.571   7.708  0.6812 -1.1518 -2.8211
   87CHL1  H12B 8877   5.695   2.658   7.668  0.6776  0.0272  0.3000
   87CHL1   C11 8878   5.882   2.698   7.542  0.5666  0.0596 -0.6060
   87CHL1  H11A 8879   5.989   2.674   7.561  0.4987 -1.3997 -1.8695
   87CHL1  H11B 8880   5.850   2.628   7.462  0.8444 -1.3641  0.4863
   87CHL1    C9 8881   5.871   2.849   7.491  0.1588  0.2207 -1.2056
   87CHL1    H9 8882   5.762   2.862   7.472 -0.1715  0.0167  0.4401
   87CHL1   C10 8883   5.942   2.884   7.363 -0.5293  0.3358  0.0956
   87CHL1   C19 8884   6.078   2.819   7.351 -0.5270  0.1747 -0.2401
   87CHL1  H19A 8885   6.065   2.711   7.327 -4.0470  0.4622 -0.0787
   87CHL1  H19B 8886   6.151   2.855   7.275 -2.1398  1.2808 -1.3166
   87CHL1  H19C 8887   6.127   2.832   7.450 -3.1100 -1.1920  1.3404
   87CHL1    C1 8888   5.855   2.828   7.244 -0.5618 -0.0851  0.1268
   87CHL1   H1A 8889   5.852   2.717   7.252  3.1899 -0.2968  0.3950
   87CHL1   H1B 8890   5.753   2.872   7.254 -0.6531 -0.6360  2.2622
   87CHL1    C2 8891   5.903   2.858   7.101  0.7416 -0.2716 -0.1522
   87CHL1   H2A 8892   5.824   2.823   7.031  0.8056 -1.6227  0.4306
   87CHL1   H2B 8893   6.002   2.810   7.089  0.0549 -1.6303 -0.5783
   87CHL1   C20 8894   5.711   2.670   7.998 -0.7277 -0.0571 -0.1010
   87CHL1   H20 8895   5.804   2.647   8.053 -0.5793  1.6316  0.4153
   87CHL1   C21 8896   5.646   2.550   7.932  0.3703 -0.0668  0.3344
   87CHL1  H21A 8897   5.727   2.507   7.870 -2.5266 -3.2101 -1.6000
   87CHL1  H21B 8898   5.563   2.573   7.862  0.4547  0.9345  0.5432
   87CHL1  H21C 8899   5.604   2.478   8.005 -1.5489  1.5794  0.9617
   87CHL1   C22 8900   5.622   2.719   8.122  0.0219 -0.3727 -0.3046
   87CHL1  H22A 8901   5.661   2.819   8.151 -3.2242  0.7740  0.6002
   87CHL1  H22B 8902   5.515   2.733   8.094 -0.0002  1.6596  0.6050
   87CHL1   C23 8903   5.639   2.628   8.245 -0.5037 -0.0795  0.7800
   87CHL1  H23A 8904   5.621   2.528   8.202  0.4876 -0.4873  1.2799
   87CHL1  H23B 8905   5.741   2.636   8.289  0.5797 -1.3390 -1.3498
   87CHL1   C24 8906   5.542   2.647   8.368 -0.4043 -0.2136 -0.0363
   87CHL1  H24A 8907   5.562   2.749   8.408  2.3226 -0.9093  0.5743
   87CHL1  H24B 8908   5.438   2.652   8.328 -0.3678  2.1950  0.0299
   87CHL1   C25 8909   5.568   2.551   8.485  1.0652  0.9669  0.8150
   87CHL1   H25 8910   5.669   2.567   8.528  2.0282 -1.0547 -0.4920
   87CHL1   C26 8911   5.470   2.577   8.600 -0.1321  1.1172 -0.2623
   87CHL1  H26A 8912   5.369   2.592   8.556 -0.4253  0.0936  0.0265
   87CHL1  H26B 8913   5.470   2.487   8.665  1.4658  0.0598 -1.6321
   87CHL1  H26C 8914   5.496   2.673   8.651  0.9340  0.6679  0.0737
   87CHL1   C27 8915   5.560   2.401   8.449  0.1683 -0.0758 -0.1192
   87CHL1  H27A 8916   5.579   2.347   8.544  1.5569  0.5762  0.0069
   87CHL1  H27B 8917   5.462   2.373   8.406  0.2785  0.9227 -1.0565
   87CHL1  H27C 8918   5.648   2.371   8.388 -0.8576  2.5953 -3.1760
   88CHL1    C3 8919   3.866   1.152   6.940 -0.2424 -0.6307  0.0964
   88CHL1    H3 8920   3.963   1.202   6.960 -0.8372  0.6401 -0.0646
   88CHL1    O3 8921   3.824   1.176   6.806  0.1440  0.0328 -0.2686
   88CHL1   H3' 8922   3.828   1.272   6.799  1.1150  0.0026 -0.3119
   88CHL1    C4 8923   3.870   0.998   6.975 -0.2009  0.2785 -0.0935
   88CHL1   H4A 8924   3.771   0.953   6.951 -0.3343  0.3550  0.3105
   88CHL1   H4B 8925   3.941   0.949   6.904 -2.0996  0.2801 -2.1059
   88CHL1    C5 8926   3.905   0.977   7.116 -0.1979  0.9283 -0.1680
   88CHL1    C6 8927   4.002   0.888   7.147 -0.2834 -0.7171  0.4927
   88CHL1    H6 8928   4.057   0.840   7.065  1.6129  2.4256 -0.2399
   88CHL1    C7 8929   4.038   0.855   7.289  0.7372 -0.1908 -0.5108
   88CHL1   H7A 8930   4.065   0.748   7.306 -0.7425 -0.5351 -0.1823
   88CHL1   H7B 8931   4.132   0.901   7.327  1.0334  0.7192 -2.2525
   88CHL1    C8 8932   3.929   0.897   7.393 -0.5024 -0.1275  0.4716
   88CHL1    H8 8933   3.854   0.819   7.367  1.5113 -1.6042 -1.2313
   88CHL1   C14 8934   3.980   0.883   7.537 -0.9590  0.1905 -0.8173
   88CHL1   H14 8935   4.066   0.949   7.563 -1.2026 -0.8322  3.0712
   88CHL1   C15 8936   4.038   0.743   7.590  0.6065 -0.3482 -0.0203
   88CHL1  H15A 8937   3.969   0.672   7.540  1.1068 -0.0929 -1.1024
   88CHL1  H15B 8938   4.134   0.724   7.537  0.2908 -2.0166 -0.0454
   88CHL1   C16 8939   4.026   0.755   7.741  0.4685  0.0681 -0.1730
   88CHL1  H16A 8940   3.975   0.657   7.757  1.4356 -0.5898 -0.9986
   88CHL1  H16B 8941   4.119   0.756   7.802 -0.2531  1.2813  0.9725
   88CHL1   C17 8942   3.949   0.885   7.773  0.0528  0.4057  0.2778
   88CHL1   H17 8943   4.028   0.963   7.778  0.0948  0.3537  0.4268
   88CHL1   C13 8944   3.869   0.920   7.636 -0.2741  0.5371  0.2724
   88CHL1   C18 8945   3.744   0.818   7.624  0.1001 -0.5826  0.4411
   88CHL1  H18A 8946   3.665   0.858   7.691 -0.0705  1.0674 -0.6823
   88CHL1  H18B 8947   3.705   0.822   7.520 -0.1013 -0.7441  0.5111
   88CHL1  H18C 8948   3.770   0.711   7.636  0.3163 -0.9466 -2.5926
   88CHL1   C12 8949   3.825   1.064   7.609 -0.5862 -0.1800 -0.2993
   88CHL1  H12A 8950   3.735   1.087   7.670  0.4864  0.7621  0.9878
   88CHL1  H12B 8951   3.898   1.141   7.643 -2.4242  0.9286  1.3715
   88CHL1   C11 8952   3.769   1.080   7.470  0.2305 -0.1236  0.0748
   88CHL1  H11A 8953   3.674   1.023   7.466  0.4081 -0.4529  0.5887
   88CHL1  H11B 8954   3.741   1.187   7.454  1.7444  0.7833  2.8676
   88CHL1    C9 8955   3.876   1.038   7.365 -0.2804 -1.1092 -0.5236
   88CHL1    H9 8956   3.966   1.102   7.373  0.1873 -1.7748 -0.4425
   88CHL1   C10 8957   3.822   1.055   7.223  0.3331 -0.0641  1.2632
   88CHL1   C19 8958   3.680   0.985   7.217 -0.2247 -0.9142 -0.2365
   88CHL1  H19A 8959   3.601   1.049   7.262 -1.7305 -2.0242 -1.1882
   88CHL1  H19B 8960   3.641   0.958   7.116  0.8359 -0.3213 -0.8285
   88CHL1  H19C 8961   3.694   0.889   7.270 -1.8350 -1.3168 -0.4853
   88CHL1    C1 8962   3.814   1.206   7.181 -0.1050 -0.2538 -0.1113
   88CHL1   H1A 8963   3.734   1.254   7.241 -0.0320 -1.6125  1.1205
   88CHL1   H1B 8964   3.912   1.247   7.212 -0.3668  1.9641 -1.9351
   88CHL1    C2 8965   3.773   1.233   7.036  0.0184  0.8965  0.4662
   88CHL1   H2A 8966   3.782   1.342   7.016  0.8018  0.8861  0.6952
   88CHL1   H2B 8967   3.671   1.195   7.017  0.9903 -0.3613 -3.0461
   88CHL1   C20 8968   3.872   0.887   7.907 -0.0280  0.5912 -0.2084
   88CHL1   H20 8969   3.775   0.838   7.883 -0.3126  1.0482 -0.0044
   88CHL1   C21 8970   3.855   1.026   7.958  0.4807 -0.1573 -0.8368
   88CHL1  H21A 8971   3.954   1.062   7.995 -1.0948  1.9223  1.7198
   88CHL1  H21B 8972   3.785   1.049   8.041 -0.6800  3.1742 -2.5671
   88CHL1  H21C 8973   3.810   1.085   7.876 -1.6928  0.3165  0.6295
   88CHL1   C22 8974   3.935   0.801   8.012 -0.5447 -0.0962 -0.5838
   88CHL1  H22A 8975   3.979   0.701   7.990 -0.2980 -0.7532  2.4701
   88CHL1  H22B 8976   4.015   0.861   8.060 -1.8149  1.9523 -0.9157
   88CHL1   C23 8977   3.839   0.757   8.121 -0.3319 -0.5672  0.4275
   88CHL1  H23A 8978   3.793   0.852   8.156 -1.1184 -0.7942  0.0375
   88CHL1  H23B 8979   3.750   0.697   8.090 -3.4561  2.7055  2.2827
   88CHL1   C24 8980   3.899   0.684   8.233 -0.2176 -0.2068 -0.2242
   88CHL1  H24A 8981   3.904   0.576   8.208 -0.5155 -0.4522  0.7542
   88CHL1  H24B 8982   3.999   0.732   8.242 -1.1787  1.7781  0.6061
   88CHL1   C25 8983   3.831   0.710   8.365 -0.2132 -0.0620  0.6444
   88CHL1   H25 8984   3.792   0.814   8.357  1.4407  0.5460 -0.1421
   88CHL1   C26 8985   3.719   0.619   8.394 -0.0162 -0.6037  0.3102
   88CHL1  H26A 8986   3.663   0.590   8.302  1.7722  0.5915 -1.2317
   88CHL1  H26B 8987   3.757   0.522   8.433 -0.1193 -0.7552  0.0418
   88CHL1  H26C 8988   3.642   0.659   8.464  1.2877  0.3050  1.2700
   88CHL1   C27 8989   3.928   0.709   8.488  0.0760  0.0931 -0.3744
   88CHL1  H27A 8990   3.872   0.753   8.572  1.1489  1.4393 -0.3277
   88CHL1  H27B 8991   3.960   0.607   8.518  0.6769  0.1989 -0.6354
   88CHL1  H27C 8992   4.024   0.763   8.474  1.1861 -2.1419 -2.2498
   89CHL1    C3 8993   0.138   4.096   7.052  0.7997  0.1927  0.7154
   89CHL1    H3 8994   0.120   3.991   7.021 -1.3269  0.6225  0.3814
   89CHL1    O3 8995   0.200   4.167   6.949 -0.1097 -0.1475  0.3326
   89CHL1   H3' 8996   0.133   4.186   6.883  0.3812 -0.2443 -0.1978
   89CHL1    C4 8997  -0.005   4.157   7.087 -0.1362  1.0774  0.6726
   89CHL1   H4A 8998   0.007   4.264   7.116  0.0744  0.9415  1.0946
   89CHL1   H4B 8999  -0.061   4.159   6.990 -1.2222  0.1893  1.2566
   89CHL1    C5 9000  -0.069   4.088   7.205  0.3360  0.3202 -0.0665
   89CHL1    C6 9001  -0.187   4.024   7.190  0.1558 -0.1340  0.1473
   89CHL1    H6 9002  -0.237   4.034   7.093  0.5958  2.3758  0.1071
   89CHL1    C7 9003  -0.250   3.945   7.303 -0.2339 -0.1212 -0.2459
   89CHL1   H7A 9004  -0.358   3.969   7.312  0.0482  1.8923 -1.6057
   89CHL1   H7B 9005  -0.243   3.836   7.284  0.8875 -0.3478  1.3180
   89CHL1    C8 9006  -0.190   3.975   7.440  0.2257 -0.4082 -0.2901
   89CHL1    H8 9007  -0.228   4.073   7.476 -1.4510 -0.9816 -0.4119
   89CHL1   C14 9008  -0.243   3.867   7.537  0.4982 -0.8295 -0.7342
   89CHL1   H14 9009  -0.219   3.769   7.491 -0.3230 -1.3213 -0.1456
   89CHL1   C15 9010  -0.396   3.851   7.542  0.1374 -0.8970 -0.2385
   89CHL1  H15A 9011  -0.464   3.937   7.558 -1.0098 -1.8536  0.2455
   89CHL1  H15B 9012  -0.433   3.803   7.449 -1.2448  0.3043 -0.3404
   89CHL1   C16 9013  -0.425   3.776   7.675 -0.4242 -0.0745 -0.1074
   89CHL1  H16A 9014  -0.494   3.832   7.742 -0.4836  0.5905 -0.7130
   89CHL1  H16B 9015  -0.463   3.677   7.642  0.3310 -1.0719  1.8531
   89CHL1   C17 9016  -0.286   3.757   7.746  0.5479 -0.1816  0.1105
   89CHL1   H17 9017  -0.244   3.663   7.703  1.9403 -0.5784  2.1236
   89CHL1   C13 9018  -0.200   3.870   7.686 -0.5108  0.0211  0.1781
   89CHL1   C18 9019  -0.226   4.003   7.758  0.1558 -0.0264  0.3552
   89CHL1  H18A 9020  -0.337   4.012   7.763  0.0337 -0.7971 -0.6322
   89CHL1  H18B 9021  -0.197   4.007   7.865 -1.4395 -0.1255  0.8222
   89CHL1  H18C 9022  -0.184   4.095   7.711  2.0749 -1.5971 -1.1480
   89CHL1   C12 9023  -0.047   3.849   7.673 -0.4418  0.5048  0.1390
   89CHL1  H12A 9024   0.012   3.855   7.767 -1.1689  2.1080  0.5311
   89CHL1  H12B 9025  -0.028   3.748   7.630  1.2977  0.4082  1.0600
   89CHL1   C11 9026   0.022   3.956   7.581 -0.6597  0.4260  0.0707
   89CHL1  H11A 9027   0.015   4.056   7.631  0.9852  0.2160  0.7812
   89CHL1  H11B 9028   0.127   3.929   7.558 -1.4083 -0.8525 -2.0548
   89CHL1    C9 9029  -0.041   3.973   7.440 -0.2106  0.6580 -0.2185
   89CHL1    H9 9030  -0.014   3.874   7.397  2.1463  1.0234  0.2490
   89CHL1   C10 9031   0.018   4.078   7.333 -0.2317 -0.2218 -0.1724
   89CHL1   C19 9032   0.029   4.206   7.415  0.5648 -0.4071 -0.2704
   89CHL1  H19A 9033   0.065   4.286   7.347 -0.9024  0.3780 -0.1521
   89CHL1  H19B 9034  -0.068   4.236   7.459  0.5423 -0.8902  0.0234
   89CHL1  H19C 9035   0.091   4.191   7.506  0.2503  0.1290  0.0397
   89CHL1    C1 9036   0.160   4.029   7.296 -0.0234  0.0467  0.5783
   89CHL1   H1A 9037   0.223   4.023   7.387 -0.9272  0.4397  1.2482
   89CHL1   H1B 9038   0.158   3.923   7.263  1.0257  0.5701 -1.2872
   89CHL1    C2 9039   0.227   4.107   7.174  0.0465  0.0998  0.2734
   89CHL1   H2A 9040   0.326   4.061   7.152 -0.9799 -1.7986 -0.6152
   89CHL1   H2B 9041   0.230   4.216   7.193 -2.3774  0.1862  0.5364
   89CHL1   C20 9042  -0.297   3.733   7.900  0.4008  0.4636 -0.4885
   89CHL1   H20 9043  -0.330   3.830   7.944 -2.4824  0.2035 -1.8549
   89CHL1   C21 9044  -0.160   3.686   7.954 -0.9632 -0.7529  0.0002
   89CHL1  H21A 9045  -0.082   3.763   7.932 -1.1758 -0.3533  0.6375
   89CHL1  H21B 9046  -0.119   3.588   7.920 -0.0882 -0.1496 -0.7443
   89CHL1  H21C 9047  -0.153   3.687   8.065  1.1900  1.3889 -0.0533
   89CHL1   C22 9048  -0.410   3.632   7.936  0.2318  0.3226  0.0031
   89CHL1  H22A 9049  -0.511   3.666   7.905 -0.3646 -1.2734  0.1080
   89CHL1  H22B 9050  -0.379   3.544   7.877  2.0967 -0.3488  1.8369
   89CHL1   C23 9051  -0.419   3.592   8.087 -0.6893 -0.0815  0.3393
   89CHL1  H23A 9052  -0.494   3.511   8.088  1.0546 -1.7810 -0.2376
   89CHL1  H23B 9053  -0.324   3.552   8.129 -0.7975 -0.1236  0.5430
   89CHL1   C24 9054  -0.483   3.703   8.174 -0.2805  0.2633  0.0863
   89CHL1  H24A 9055  -0.413   3.788   8.189  0.7886 -0.5107 -0.3517
   89CHL1  H24B 9056  -0.578   3.736   8.127 -0.0686  1.1867  0.2839
   89CHL1   C25 9057  -0.518   3.655   8.318 -0.9161  0.4635 -0.0149
   89CHL1   H25 9058  -0.558   3.744   8.372  2.9256  0.9504  2.4282
   89CHL1   C26 9059  -0.625   3.545   8.313  0.1985 -0.0590 -0.1143
   89CHL1  H26A 9060  -0.706   3.589   8.251 -1.0681 -1.3901  0.5202
   89CHL1  H26B 9061  -0.578   3.448   8.285 -1.2822 -0.3090 -1.9796
   89CHL1  H26C 9062  -0.674   3.548   8.413 -0.5295 -0.9435 -0.4323
   89CHL1   C27 9063  -0.384   3.613   8.387 -0.1464  0.7508  0.0347
   89CHL1  H27A 9064  -0.407   3.590   8.493 -0.2955  1.0157  0.0594
   89CHL1  H27B 9065  -0.342   3.524   8.336  2.5076  1.4186  0.9181
   89CHL1  H27C 9066  -0.312   3.697   8.385  1.9811 -0.9578  1.2541
   90CHL1    C3 9067   0.040   5.673   6.946  0.4992 -0.0941  0.0927
   90CHL1    H3 9068   0.021   5.569   6.980  0.0847  0.2674  0.9999
   90CHL1    O3 9069   0.044   5.674   6.803 -0.2816 -0.0372 -0.1224
   90CHL1   H3' 9070  -0.045   5.693   6.772  0.0353 -1.7174 -2.3295
   90CHL1    C4 9071  -0.066   5.768   6.997  0.1205 -0.3343  0.1457
   90CHL1   H4A 9072  -0.058   5.873   6.962  0.0540 -0.6665 -0.9119
   90CHL1   H4B 9073  -0.166   5.750   6.952 -0.8616 -0.0567  2.1322
   90CHL1    C5 9074  -0.079   5.770   7.147  0.6139 -0.3015 -0.1969
   90CHL1    C6 9075  -0.190   5.729   7.211 -0.1096  0.5112  0.5132
   90CHL1    H6 9076  -0.275   5.694   7.152  0.6196 -0.8371  0.2134
   90CHL1    C7 9077  -0.213   5.735   7.362  0.6477  0.1174  0.7679
   90CHL1   H7A 9078  -0.313   5.775   7.388 -0.4270 -1.9705  0.1009
   90CHL1   H7B 9079  -0.218   5.633   7.405  1.9142 -0.0616  0.5531
   90CHL1    C8 9080  -0.099   5.819   7.433 -0.1290 -0.5371 -0.3793
   90CHL1    H8 9081  -0.120   5.926   7.414 -2.3070 -0.9979 -0.9185
   90CHL1   C14 9082  -0.097   5.778   7.578  0.4396 -0.0826  0.1245
   90CHL1   H14 9083  -0.063   5.673   7.589 -0.1539 -0.2757  0.1347
   90CHL1   C15 9084  -0.232   5.790   7.649  0.0478  0.5315 -0.7910
   90CHL1  H15A 9085  -0.277   5.885   7.613 -1.2166  0.5703  0.7841
   90CHL1  H15B 9086  -0.302   5.705   7.635 -2.6851  2.7555 -1.3651
   90CHL1   C16 9087  -0.193   5.798   7.799 -0.2107 -0.2879  0.6826
   90CHL1  H16A 9088  -0.241   5.888   7.845 -0.8615 -0.8835  1.1870
   90CHL1  H16B 9089  -0.223   5.702   7.846 -1.8030 -0.0545  0.2038
   90CHL1   C17 9090  -0.035   5.798   7.805 -0.3815  0.2441 -0.1361
   90CHL1   H17 9091  -0.010   5.689   7.804 -2.4607 -0.3028  1.2684
   90CHL1   C13 9092   0.006   5.859   7.665 -0.2241  0.0625 -0.3247
   90CHL1   C18 9093  -0.028   6.015   7.664  0.1792 -1.0838  0.9753
   90CHL1  H18A 9094  -0.137   6.035   7.674  0.3674  0.1012  0.7782
   90CHL1  H18B 9095   0.028   6.064   7.746 -2.2343  0.7473  1.6665
   90CHL1  H18C 9096   0.004   6.056   7.567 -2.9770  1.6792  0.9205
   90CHL1   C12 9097   0.146   5.827   7.610  0.2517  0.1609  0.4798
   90CHL1  H12A 9098   0.226   5.883   7.663  1.4945 -1.5571  0.4737
   90CHL1  H12B 9099   0.177   5.722   7.629 -0.3220 -0.1657 -0.3501
   90CHL1   C11 9100   0.158   5.847   7.460  0.6006  0.0970  0.0526
   90CHL1  H11A 9101   0.157   5.958   7.453  1.1334  0.0286 -1.8962
   90CHL1  H11B 9102   0.262   5.817   7.432  0.8619  0.8702  0.1769
   90CHL1    C9 9103   0.041   5.784   7.376  0.2098  0.1909  0.0654
   90CHL1    H9 9104   0.043   5.674   7.391 -2.8486  0.3859  3.0333
   90CHL1   C10 9105   0.048   5.813   7.224 -0.5805  0.4114 -0.2572
   90CHL1   C19 9106   0.071   5.964   7.208 -0.7634 -0.8618  0.6417
   90CHL1  H19A 9107   0.071   5.992   7.100  1.9838 -1.4420  0.4117
   90CHL1  H19B 9108  -0.006   6.025   7.259  0.6307  1.1234  0.5140
   90CHL1  H19C 9109   0.173   5.990   7.244 -0.0948 -1.9450 -0.4043
   90CHL1    C1 9110   0.158   5.726   7.157 -0.2408  0.2187  0.5290
   90CHL1   H1A 9111   0.255   5.750   7.204  0.1051 -1.5124  0.7619
   90CHL1   H1B 9112   0.136   5.619   7.174 -3.5088  0.9316  1.5298
   90CHL1    C2 9113   0.169   5.729   7.005 -0.0304  0.5863  0.0073
   90CHL1   H2A 9114   0.255   5.663   6.979  0.1389  0.0892  1.7357
   90CHL1   H2B 9115   0.195   5.830   6.966  0.8043 -0.5909 -2.7087
   90CHL1   C20 9116   0.028   5.860   7.928  0.5696  0.3207  0.3844
   90CHL1   H20 9117  -0.005   5.966   7.931 -3.3246 -0.6620 -0.9783
   90CHL1   C21 9118   0.179   5.838   7.923 -0.4910 -0.0232  0.6286
   90CHL1  H21A 9119   0.225   5.904   7.846  0.1491 -0.6718  0.4377
   90CHL1  H21B 9120   0.204   5.735   7.888  0.5143  0.8674 -1.4790
   90CHL1  H21C 9121   0.226   5.854   8.022  1.5250  2.3782 -0.6076
   90CHL1   C22 9122  -0.025   5.792   8.060 -0.4578 -0.4939  0.5471
   90CHL1  H22A 9123  -0.135   5.775   8.058 -0.7328  1.0091  1.5387
   90CHL1  H22B 9124   0.020   5.691   8.064  0.7032  0.0459  1.5935
   90CHL1   C23 9125   0.001   5.883   8.185  0.8368  0.2829  0.3583
   90CHL1  H23A 9126   0.103   5.879   8.229  0.7707 -2.4295  0.4468
   90CHL1  H23B 9127  -0.009   5.989   8.154 -0.5483  0.0388 -0.0911
   90CHL1   C24 9128  -0.095   5.852   8.308 -0.0572  0.1204  0.0990
   90CHL1  H24A 9129  -0.198   5.874   8.274 -0.3739 -1.0042  0.3031
   90CHL1  H24B 9130  -0.091   5.743   8.328 -0.1442 -0.4281 -2.5582
   90CHL1   C25 9131  -0.061   5.932   8.434  0.1309  0.5136 -0.1178
   90CHL1   H25 9132   0.050   5.941   8.437  0.0907  0.9969  2.7280
   90CHL1   C26 9133  -0.132   6.068   8.430 -0.1539  0.8535  0.4196
   90CHL1  H26A 9134  -0.110   6.123   8.524 -1.7834  0.2520  1.1888
   90CHL1  H26B 9135  -0.094   6.130   8.346  2.1031 -2.3384 -1.1229
   90CHL1  H26C 9136  -0.242   6.059   8.423 -0.0528  1.1924 -2.9077
   90CHL1   C27 9137  -0.105   5.856   8.557  0.3173 -0.1950 -0.7305
   90CHL1  H27A 9138  -0.032   5.783   8.597  0.2544  0.7785  1.2724
   90CHL1  H27B 9139  -0.124   5.932   8.636 -0.1952 -0.5761 -0.4846
   90CHL1  H27C 9140  -0.201   5.810   8.526  0.5223  0.1301 -1.9443
   91CHL1    C3 9141   1.384   0.239   7.188 -0.0435  0.3883 -0.5849
   91CHL1    H3 9142   1.490   0.227   7.219  0.7057 -0.4959 -3.2571
   91CHL1    O3 9143   1.387   0.273   7.051  0.7087  0.0270  0.1835
   91CHL1   H3' 9144   1.308   0.228   7.020 -0.2280 -0.0656  2.4673
   91CHL1    C4 9145   1.318   0.092   7.192  0.0689  0.3582 -0.4659
   91CHL1   H4A 9146   1.216   0.110   7.153  0.3654  0.9716 -0.9676
   91CHL1   H4B 9147   1.372   0.020   7.126  1.3679 -1.5860  2.4841
   91CHL1    C5 9148   1.313   0.037   7.338 -0.4444 -0.0649  0.5181
   91CHL1    C6 9149   1.351  -0.088   7.369 -0.2372  0.0661 -0.6728
   91CHL1    H6 9150   1.394  -0.153   7.291 -0.3358  0.5339 -1.1269
   91CHL1    C7 9151   1.353  -0.138   7.508 -0.0838  0.9650  0.4883
   91CHL1   H7A 9152   1.307  -0.238   7.492  0.3757  1.1590 -2.6892
   91CHL1   H7B 9153   1.456  -0.146   7.547 -0.0010 -2.4195 -0.1357
   91CHL1    C8 9154   1.264  -0.061   7.611  0.2557  0.3046 -0.1260
   91CHL1    H8 9155   1.159  -0.086   7.585 -0.4547  1.6785  1.2287
   91CHL1   C14 9156   1.290  -0.095   7.758 -0.4013 -0.3623 -0.1802
   91CHL1   H14 9157   1.395  -0.061   7.773 -0.2858 -1.2241  1.1303
   91CHL1   C15 9158   1.293  -0.245   7.794 -0.2765  0.2065 -0.3491
   91CHL1  H15A 9159   1.209  -0.295   7.742  0.7600 -2.8653  0.7148
   91CHL1  H15B 9160   1.386  -0.301   7.773 -0.6300 -0.8569  0.7901
   91CHL1   C16 9161   1.263  -0.246   7.940  0.2849 -0.0188  0.1891
   91CHL1  H16A 9162   1.173  -0.310   7.950  0.3818 -1.0012 -3.5207
   91CHL1  H16B 9163   1.339  -0.301   7.999  0.7062  0.5638  0.1964
   91CHL1   C17 9164   1.249  -0.094   7.986  0.3278 -0.5062  0.5506
   91CHL1   H17 9165   1.351  -0.059   8.009 -0.8286  2.9225  0.9788
   91CHL1   C13 9166   1.202  -0.019   7.854  0.0204 -0.9784 -0.2148
   91CHL1   C18 9167   1.051  -0.053   7.834  0.2657 -0.3932  0.5920
   91CHL1  H18A 9168   0.990   0.006   7.906 -1.3005 -1.4177  0.1508
   91CHL1  H18B 9169   1.019  -0.016   7.734 -1.5256  0.8406  1.5743
   91CHL1  H18C 9170   1.023  -0.159   7.851 -1.4943 -0.3314 -1.4331
   91CHL1   C12 9171   1.235   0.127   7.844  0.0628  0.4532 -0.1092
   91CHL1  H12A 9172   1.168   0.191   7.904 -0.3267  0.1533 -0.2174
   91CHL1  H12B 9173   1.340   0.146   7.876 -0.0831 -0.1668  0.7643
   91CHL1   C11 9174   1.208   0.173   7.696 -0.2798  0.4631 -0.6809
   91CHL1  H11A 9175   1.097   0.169   7.691 -0.3138 -1.2594  0.5362
   91CHL1  H11B 9176   1.239   0.280   7.696  0.9829  0.1652  1.6716
   91CHL1    C9 9177   1.282   0.091   7.586  0.0505  0.4384 -0.6000
   91CHL1    H9 9178   1.390   0.109   7.607  0.4858 -2.2706 -0.1385
   91CHL1   C10 9179   1.258   0.137   7.445  0.0312  0.0599 -0.0435
   91CHL1   C19 9180   1.105   0.151   7.416 -0.6649 -0.1005  0.0233
   91CHL1  H19A 9181   1.050   0.077   7.478 -1.3537  0.3644 -0.0213
   91CHL1  H19B 9182   1.078   0.253   7.448 -1.7803 -0.8009  1.4360
   91CHL1  H19C 9183   1.083   0.135   7.308  0.8126 -0.3730 -0.2616
   91CHL1    C1 9184   1.323   0.275   7.424  0.5195 -0.5023 -0.0302
   91CHL1   H1A 9185   1.279   0.348   7.496  0.5285  1.1835 -1.6536
   91CHL1   H1B 9186   1.428   0.267   7.460  1.3492  0.7533 -1.9795
   91CHL1    C2 9187   1.315   0.331   7.283  0.4462 -0.4543 -0.6386
   91CHL1   H2A 9188   1.370   0.428   7.287 -0.5126  0.0660  0.1546
   91CHL1   H2B 9189   1.215   0.371   7.256  0.9592  1.6422  0.3299
   91CHL1   C20 9190   1.160  -0.085   8.108 -0.3109  0.3330  0.1555
   91CHL1   H20 9191   1.053  -0.103   8.083 -0.0680  0.7206 -1.2511
   91CHL1   C21 9192   1.183   0.052   8.177 -0.0195  0.3704  0.3952
   91CHL1  H21A 9193   1.277   0.057   8.235 -0.1738  1.9708  0.5519
   91CHL1  H21B 9194   1.101   0.081   8.247  0.8313 -0.5002  1.7896
   91CHL1  H21C 9195   1.185   0.126   8.093  1.7928 -0.4735 -0.3428
   91CHL1   C22 9196   1.188  -0.190   8.219  0.8673  0.4603  0.2677
   91CHL1  H22A 9197   1.161  -0.288   8.174 -3.6333  1.4368  0.4052
   91CHL1  H22B 9198   1.295  -0.187   8.250  0.7672  0.1440  0.6653
   91CHL1   C23 9199   1.107  -0.167   8.343  0.2879  0.3866  0.5466
   91CHL1  H23A 9200   1.164  -0.089   8.398  2.3916  0.2234 -1.2627
   91CHL1  H23B 9201   1.004  -0.126   8.330  0.8000  2.0244  1.3036
   91CHL1   C24 9202   1.089  -0.298   8.425  0.6863  0.0417  0.3195
   91CHL1  H24A 9203   1.039  -0.378   8.365 -1.4163  0.4740  1.4127
   91CHL1  H24B 9204   1.184  -0.346   8.457  1.1638 -1.6536 -3.1292
   91CHL1   C25 9205   1.015  -0.282   8.557 -0.0799 -0.4600  0.2784
   91CHL1   H25 9206   1.025  -0.382   8.604  0.9591 -1.3129 -1.6109
   91CHL1   C26 9207   1.076  -0.175   8.650 -0.2480 -0.0325  0.2694
   91CHL1  H26A 9208   1.062  -0.076   8.600 -4.0584 -1.4495 -1.9235
   91CHL1  H26B 9209   1.024  -0.170   8.748 -1.0420  1.5296 -0.1917
   91CHL1  H26C 9210   1.184  -0.192   8.668 -0.1511  1.1203  0.8725
   91CHL1   C27 9211   0.865  -0.251   8.528  0.5298 -0.5800 -0.5113
   91CHL1  H27A 9212   0.809  -0.276   8.621  3.2169 -1.5729  0.9641
   91CHL1  H27B 9213   0.858  -0.141   8.513 -0.8779 -0.5076  0.4725
   91CHL1  H27C 9214   0.832  -0.313   8.443  2.7210 -0.1492 -1.7407
   92CHL1    C3 9215   4.107   2.133   6.823 -0.1546  0.6747  0.2067
   92CHL1    H3 9216   4.131   2.025   6.832  1.9034  1.1178  0.5941
   92CHL1    O3 9217   4.131   2.184   6.690 -0.0500  0.2208 -0.0813
   92CHL1   H3' 9218   4.042   2.206   6.664 -1.0084 -1.4948  1.4374
   92CHL1    C4 9219   3.961   2.154   6.856 -0.0699 -0.3494  0.1274
   92CHL1   H4A 9220   3.938   2.259   6.830 -1.3972 -1.0373 -1.6735
   92CHL1   H4B 9221   3.901   2.104   6.778 -0.7841  2.0471 -0.9337
   92CHL1    C5 9222   3.934   2.113   6.991 -0.8403  0.4649  0.1248
   92CHL1    C6 9223   3.835   2.036   7.027 -0.7942  0.6556  0.1885
   92CHL1    H6 9224   3.773   1.992   6.947 -4.0695  2.7080  1.4020
   92CHL1    C7 9225   3.805   2.006   7.169 -0.5927  0.7981  0.3965
   92CHL1   H7A 9226   3.698   2.028   7.192 -0.8323  0.5362 -0.4361
   92CHL1   H7B 9227   3.813   1.896   7.186  0.2557  0.6027 -1.0981
   92CHL1    C8 9228   3.894   2.081   7.278  0.6843  0.5299  0.4555
   92CHL1    H8 9229   3.840   2.177   7.291  1.5184  1.3490 -1.6688
   92CHL1   C14 9230   3.892   2.003   7.409 -0.1754 -0.7173  0.2071
   92CHL1   H14 9231   3.951   1.910   7.390 -2.1801 -2.0003 -0.0873
   92CHL1   C15 9232   3.755   1.956   7.462 -0.0724  0.4086 -0.3226
   92CHL1  H15A 9233   3.690   2.047   7.457  3.2217  2.9800  0.1722
   92CHL1  H15B 9234   3.732   1.863   7.405  0.5535 -0.7605  1.2691
   92CHL1   C16 9235   3.784   1.930   7.608  0.7640 -0.4536 -0.4366
   92CHL1  H16A 9236   3.709   1.982   7.672 -0.7584 -1.2068 -1.5509
   92CHL1  H16B 9237   3.787   1.821   7.625 -0.4200 -0.2674  1.2417
   92CHL1   C17 9238   3.931   1.977   7.641  0.7773  0.0394 -0.1314
   92CHL1   H17 9239   3.997   1.890   7.617 -2.6109 -2.9790  0.5975
   92CHL1   C13 9240   3.962   2.081   7.527  0.2855  0.6995 -0.4665
   92CHL1   C18 9241   3.895   2.218   7.545  0.3214  0.5200 -0.0363
   92CHL1  H18A 9242   3.911   2.283   7.457  1.4594  0.3330  0.0116
   92CHL1  H18B 9243   3.786   2.212   7.563  0.1754  0.5849 -0.8651
   92CHL1  H18C 9244   3.959   2.271   7.619  1.7556  0.0338 -0.9015
   92CHL1   C12 9245   4.107   2.098   7.480  0.1146 -0.7606  0.0440
   92CHL1  H12A 9246   4.158   2.151   7.564 -1.4846  2.1682 -0.7181
   92CHL1  H12B 9247   4.161   2.002   7.463  1.3996  0.0830 -0.8636
   92CHL1   C11 9248   4.123   2.172   7.351 -0.5903 -0.3541  0.0444
   92CHL1  H11A 9249   4.100   2.281   7.358 -0.1126 -0.1822 -0.8991
   92CHL1  H11B 9250   4.231   2.163   7.327  0.0972  0.6867  2.4793
   92CHL1    C9 9251   4.039   2.102   7.236  0.4741 -0.3596 -0.1822
   92CHL1    H9 9252   4.079   2.000   7.226  0.2785 -0.4558 -0.0005
   92CHL1   C10 9253   4.041   2.169   7.096 -0.9517  0.1018 -0.3172
   92CHL1   C19 9254   3.998   2.318   7.116  0.3790  0.1690 -0.2321
   92CHL1  H19A 9255   3.896   2.317   7.160 -0.0979 -0.6217 -1.3008
   92CHL1  H19B 9256   4.071   2.358   7.189 -1.6641 -2.3423  3.4715
   92CHL1  H19C 9257   4.003   2.372   7.019 -0.6554 -0.8024 -0.8484
   92CHL1    C1 9258   4.190   2.171   7.057  0.8851  0.4909  0.2224
   92CHL1   H1A 9259   4.258   2.229   7.124  1.6589  1.0627 -1.0121
   92CHL1   H1B 9260   4.222   2.064   7.057 -1.1672 -0.2094 -1.7148
   92CHL1    C2 9261   4.203   2.210   6.908  0.5011  0.2042 -0.5453
   92CHL1   H2A 9262   4.308   2.213   6.873  0.0977 -0.1780 -1.8558
   92CHL1   H2B 9263   4.167   2.315   6.903 -0.6846 -0.1032  0.7968
   92CHL1   C20 9264   3.962   2.015   7.785 -0.0818 -0.4719  0.4202
   92CHL1   H20 9265   3.936   2.122   7.797 -1.9729 -0.4815 -2.4962
   92CHL1   C21 9266   4.115   1.992   7.811 -0.3680  0.1087 -0.1768
   92CHL1  H21A 9267   4.144   1.885   7.808  2.9743  0.8739  0.8440
   92CHL1  H21B 9268   4.142   2.023   7.914 -2.6708 -0.8043  0.7924
   92CHL1  H21C 9269   4.181   2.049   7.743 -0.7721 -0.5746 -1.1700
   92CHL1   C22 9270   3.887   1.919   7.881  0.0557 -0.7678  0.3508
   92CHL1  H22A 9271   3.776   1.921   7.872 -0.0661 -0.5331  1.7725
   92CHL1  H22B 9272   3.918   1.815   7.857 -0.8033 -1.2956  1.4237
   92CHL1   C23 9273   3.931   1.933   8.029  0.4095  0.0476  0.1874
   92CHL1  H23A 9274   4.037   1.917   8.057  0.0602 -0.2860  1.3858
   92CHL1  H23B 9275   3.910   2.039   8.053 -0.4623 -0.0018 -0.3051
   92CHL1   C24 9276   3.836   1.850   8.114 -0.1860  0.5206  0.5854
   92CHL1  H24A 9277   3.738   1.857   8.063  0.5919 -1.8174 -1.4211
   92CHL1  H24B 9278   3.869   1.744   8.112  2.2845  1.2191 -0.7906
   92CHL1   C25 9279   3.822   1.895   8.257 -0.6880 -0.7306  0.1909
   92CHL1   H25 9280   3.772   1.994   8.253 -1.8253 -1.3222 -0.5833
   92CHL1   C26 9281   3.742   1.795   8.344  0.3816 -0.4298  0.8711
   92CHL1  H26A 9282   3.647   1.772   8.290 -0.2039  0.4691  1.4804
   92CHL1  H26B 9283   3.803   1.703   8.340  0.7955 -0.2043  1.6667
   92CHL1  H26C 9284   3.713   1.828   8.447  0.6960  2.0043  0.2375
   92CHL1   C27 9285   3.967   1.905   8.326  1.1576  0.5671 -0.0515
   92CHL1  H27A 9286   4.032   1.983   8.280  1.4247  1.1464  1.2807
   92CHL1  H27B 9287   3.955   1.938   8.431 -0.2791  0.7155 -0.2540
   92CHL1  H27C 9288   4.018   1.806   8.327 -1.3153 -0.7872  1.5308
   93CHL1    C3 9289   2.872   6.492   6.952  0.7906 -0.5488  0.2212
   93CHL1    H3 9290   2.936   6.402   6.964 -0.1200 -1.1008  1.0674
   93CHL1    O3 9291   2.829   6.503   6.818 -0.0328  0.6719  0.5473
   93CHL1   H3' 9292   2.783   6.588   6.812 -0.9243  0.1175 -0.9395
   93CHL1    C4 9293   2.751   6.482   7.050  0.1187  0.1926  0.2995
   93CHL1   H4A 9294   2.677   6.564   7.036 -2.1720 -1.3720  2.3360
   93CHL1   H4B 9295   2.692   6.391   7.028  1.1398 -0.4728  0.2555
   93CHL1    C5 9296   2.786   6.483   7.196  0.1950  0.3411 -0.1598
   93CHL1    C6 9297   2.742   6.393   7.288  0.0783 -0.4436  0.0827
   93CHL1    H6 9298   2.673   6.313   7.255 -1.0406  1.2522 -1.8710
   93CHL1    C7 9299   2.788   6.388   7.437 -0.0587 -0.6614 -0.5164
   93CHL1   H7A 9300   2.695   6.380   7.497 -0.8359 -1.4698 -1.7872
   93CHL1   H7B 9301   2.861   6.305   7.447  1.0373  0.2462 -0.7745
   93CHL1    C8 9302   2.850   6.522   7.481 -0.0554  0.4873  0.0307
   93CHL1    H8 9303   2.776   6.604   7.493 -1.2474 -0.8643  2.9192
   93CHL1   C14 9304   2.919   6.513   7.612 -0.3729  0.0154 -0.8221
   93CHL1   H14 9305   3.011   6.451   7.610 -0.2689  0.0465  1.1279
   93CHL1   C15 9306   2.838   6.455   7.729 -0.3785  0.0381  0.6361
   93CHL1  H15A 9307   2.734   6.491   7.714  0.8425  3.5483 -0.3413
   93CHL1  H15B 9308   2.847   6.344   7.737 -0.9593  0.0555  1.6459
   93CHL1   C16 9309   2.910   6.505   7.854  0.4033  0.0127  0.4100
   93CHL1  H16A 9310   2.849   6.573   7.917 -0.3700 -0.0537 -0.2544
   93CHL1  H16B 9311   2.940   6.423   7.923 -2.8241  0.1146  2.0849
   93CHL1   C17 9312   3.031   6.597   7.806  1.0635  1.1901 -0.7929
   93CHL1   H17 9313   3.119   6.534   7.780 -0.4786 -0.7435 -1.5910
   93CHL1   C13 9314   2.978   6.645   7.669  0.9546 -0.2413  0.4543
   93CHL1   C18 9315   2.866   6.758   7.691 -0.0226  0.5928  0.4783
   93CHL1  H18A 9316   2.900   6.840   7.757 -0.7849  0.1808  1.3928
   93CHL1  H18B 9317   2.836   6.799   7.592  0.6006 -1.2373 -0.5127
   93CHL1  H18C 9318   2.777   6.711   7.736 -0.5592 -0.1673 -1.2660
   93CHL1   C12 9319   3.085   6.685   7.565 -0.3968 -0.1327  0.3127
   93CHL1  H12A 9320   3.154   6.766   7.598 -0.0787  0.8684 -2.5043
   93CHL1  H12B 9321   3.159   6.602   7.555 -0.1053  0.2590 -1.0513
   93CHL1   C11 9322   3.022   6.702   7.422 -0.1478  0.6160 -0.5013
   93CHL1  H11A 9323   2.956   6.790   7.430  0.0110  0.5845  1.9700
   93CHL1  H11B 9324   3.102   6.725   7.349 -0.9255  0.4058 -1.4423
   93CHL1    C9 9325   2.950   6.572   7.374  0.3606 -0.3338 -0.8144
   93CHL1    H9 9326   3.020   6.487   7.363 -0.3634 -0.9598 -0.6586
   93CHL1   C10 9327   2.886   6.597   7.236  0.2197 -0.0365 -0.0630
   93CHL1   C19 9328   2.803   6.725   7.238  0.5407 -0.0600  0.4223
   93CHL1  H19A 9329   2.878   6.807   7.240  0.0625  0.4100 -0.4270
   93CHL1  H19B 9330   2.742   6.735   7.146 -0.0204 -0.8829  0.6936
   93CHL1  H19C 9331   2.733   6.728   7.324 -0.8616 -0.3806 -0.6750
   93CHL1    C1 9332   3.001   6.602   7.126  0.2101  0.0362 -0.1367
   93CHL1   H1A 9333   3.062   6.693   7.145 -0.4270  0.0839  1.9455
   93CHL1   H1B 9334   3.070   6.515   7.132  0.5613  0.1248 -2.0477
   93CHL1    C2 9335   2.956   6.615   6.981  0.4061 -0.0179  0.2553
   93CHL1   H2A 9336   3.051   6.625   6.924 -0.2361 -1.1736 -1.0851
   93CHL1   H2B 9337   2.883   6.699   6.969  0.8886  0.7733  2.4563
   93CHL1   C20 9338   3.068   6.701   7.915 -1.1780 -0.0974  0.7161
   93CHL1   H20 9339   2.983   6.771   7.923  0.1786  1.7196 -0.0956
   93CHL1   C21 9340   3.187   6.786   7.865 -0.3406 -0.9400  0.4786
   93CHL1  H21A 9341   3.138   6.865   7.805  0.7743 -0.7937 -0.2766
   93CHL1  H21B 9342   3.262   6.722   7.814  0.6191 -0.1808  0.9085
   93CHL1  H21C 9343   3.237   6.837   7.950 -0.1987 -1.2207  0.5663
   93CHL1   C22 9344   3.094   6.640   8.052 -0.1625  0.5668 -0.0422
   93CHL1  H22A 9345   3.095   6.719   8.130 -1.7725  1.4115 -0.8241
   93CHL1  H22B 9346   2.998   6.592   8.081 -0.0207 -0.6436 -1.4624
   93CHL1   C23 9347   3.213   6.546   8.062  0.1625 -0.7185  0.0344
   93CHL1  H23A 9348   3.201   6.461   7.991  1.2058 -0.2426 -0.7398
   93CHL1  H23B 9349   3.305   6.596   8.027  0.4913 -1.0873  0.3620
   93CHL1   C24 9350   3.237   6.509   8.208 -0.3795  0.3348 -0.5530
   93CHL1  H24A 9351   3.216   6.601   8.268  0.2811  0.5252 -0.6063
   93CHL1  H24B 9352   3.156   6.442   8.242  0.6617 -1.1894 -0.9568
   93CHL1   C25 9353   3.380   6.458   8.240  0.1021  0.3310  0.6134
   93CHL1   H25 9354   3.444   6.544   8.214  1.5595 -0.5039  1.3429
   93CHL1   C26 9355   3.393   6.430   8.393  0.7052  0.3792  0.2431
   93CHL1  H26A 9356   3.343   6.508   8.453 -0.1163  0.0556 -0.0040
   93CHL1  H26B 9357   3.327   6.342   8.412  1.2011  0.2415  1.4054
   93CHL1  H26C 9358   3.499   6.413   8.423  0.8893 -0.1102 -0.6298
   93CHL1   C27 9359   3.410   6.335   8.158  0.6163 -0.3424  0.2104
   93CHL1  H27A 9360   3.343   6.255   8.196 -0.6963  0.7092  0.1682
   93CHL1  H27B 9361   3.378   6.353   8.053 -0.8275  0.9680  0.8441
   93CHL1  H27C 9362   3.518   6.310   8.166  0.8826  0.4581 -0.6669
   94CHL1    C3 9363   4.985   2.716   6.949  0.2582  0.1879 -0.0307
   94CHL1    H3 9364   4.957   2.609   6.954 -0.6716  0.4564  0.7576
   94CHL1    O3 9365   5.026   2.747   6.820 -0.6185  0.3128  0.4780
   94CHL1   H3' 9366   5.074   2.830   6.827  1.8457 -0.6511 -2.8426
   94CHL1    C4 9367   4.872   2.805   6.999  0.0534  0.0178 -0.3896
   94CHL1   H4A 9368   4.900   2.910   6.977  0.8383  0.0353  0.6415
   94CHL1   H4B 9369   4.789   2.770   6.934  0.9107 -0.4984 -1.2416
   94CHL1    C5 9370   4.840   2.774   7.147 -0.5821 -0.1329 -0.3010
   94CHL1    C6 9371   4.711   2.749   7.185  0.5301 -0.0195 -1.0950
   94CHL1    H6 9372   4.629   2.744   7.111  0.7146 -0.0833 -1.2976
   94CHL1    C7 9373   4.667   2.730   7.333 -0.0564 -0.2174  0.3326
   94CHL1   H7A 9374   4.563   2.767   7.344 -0.6752 -1.7116 -0.1546
   94CHL1   H7B 9375   4.662   2.620   7.347 -1.9026 -0.1333  0.5391
   94CHL1    C8 9376   4.774   2.774   7.436 -0.8772 -0.1504  0.0428
   94CHL1    H8 9377   4.759   2.882   7.455 -2.6538 -0.1548 -1.1329
   94CHL1   C14 9378   4.745   2.708   7.573 -0.0870  0.7883  0.0325
   94CHL1   H14 9379   4.740   2.599   7.552 -0.4279  0.7665  0.2167
   94CHL1   C15 9380   4.612   2.742   7.640 -0.3840 -0.6051 -0.5393
   94CHL1  H15A 9381   4.601   2.853   7.638  2.1799 -0.2722 -0.0686
   94CHL1  H15B 9382   4.528   2.700   7.582 -2.1691  3.2523 -1.0971
   94CHL1   C16 9383   4.632   2.697   7.779 -0.4594 -0.3048 -0.1048
   94CHL1  H16A 9384   4.604   2.777   7.850  1.0273 -0.8031  1.0979
   94CHL1  H16B 9385   4.584   2.598   7.796  0.6309 -0.7786  0.3456
   94CHL1   C17 9386   4.778   2.661   7.805 -0.3991  0.0099 -0.1980
   94CHL1   H17 9387   4.799   2.553   7.788  0.4995 -0.1963  1.9323
   94CHL1   C13 9388   4.851   2.733   7.684 -0.8216 -0.1634  0.3574
   94CHL1   C18 9389   4.864   2.889   7.714 -0.2028  0.3250 -0.3621
   94CHL1  H18A 9390   4.871   2.950   7.622  1.1987  1.5524  0.5097
   94CHL1  H18B 9391   4.776   2.936   7.762  0.8462  1.1878  0.7924
   94CHL1  H18C 9392   4.947   2.912   7.785 -2.3843 -2.5092  3.5382
   94CHL1   C12 9393   4.985   2.671   7.636 -0.5198 -0.6830 -0.2863
   94CHL1  H12A 9394   5.064   2.701   7.707  1.5478 -0.7061 -2.4383
   94CHL1  H12B 9395   4.980   2.560   7.636 -0.4159 -0.6990  0.9867
   94CHL1   C11 9396   5.032   2.732   7.502  0.5058  0.9708  0.2525
   94CHL1  H11A 9397   5.056   2.838   7.523  1.0600  0.5530  1.9073
   94CHL1  H11B 9398   5.124   2.689   7.456  1.7241  2.1831  1.4960
   94CHL1    C9 9399   4.913   2.732   7.388 -0.7241  0.0447 -0.6593
   94CHL1    H9 9400   4.889   2.625   7.370  1.0878 -0.2870 -1.2193
   94CHL1   C10 9401   4.955   2.776   7.246  0.3950  0.0492 -0.3021
   94CHL1   C19 9402   4.999   2.929   7.256 -0.0563  0.1151 -0.2188
   94CHL1  H19A 9403   5.031   2.969   7.158  0.2599  2.8909  0.9245
   94CHL1  H19B 9404   4.913   2.985   7.297  0.7721  0.3687  1.2294
   94CHL1  H19C 9405   5.098   2.939   7.306 -0.2320  0.1973  0.1167
   94CHL1    C1 9406   5.070   2.685   7.184 -0.6653 -0.3505  0.0304
   94CHL1   H1A 9407   5.166   2.692   7.239 -1.6398  0.4883  1.7117
   94CHL1   H1B 9408   5.046   2.577   7.177 -2.2768  0.0668 -1.9859
   94CHL1    C2 9409   5.106   2.726   7.042  0.0740  0.4576 -0.2581
   94CHL1   H2A 9410   5.185   2.654   7.009 -1.2923 -0.6046 -1.3574
   94CHL1   H2B 9411   5.138   2.832   7.044 -0.7646  0.7155 -0.4494
   94CHL1   C20 9412   4.823   2.680   7.952  0.4128 -0.5686 -0.4461
   94CHL1   H20 9413   4.828   2.788   7.977  2.1590 -0.3935 -1.4297
   94CHL1   C21 9414   4.963   2.623   7.973  0.4948  0.1558 -0.0558
   94CHL1  H21A 9415   4.990   2.612   8.081  1.7133  0.0168 -0.3573
   94CHL1  H21B 9416   5.040   2.689   7.927  0.2712  1.7912  1.7894
   94CHL1  H21C 9417   4.975   2.521   7.931  3.3520 -0.0793  1.0641
   94CHL1   C22 9418   4.722   2.620   8.046 -0.0498 -0.4228 -0.0265
   94CHL1  H22A 9419   4.624   2.672   8.040  0.4136  0.5134  0.3421
   94CHL1  H22B 9420   4.709   2.517   8.006  0.4644 -0.3294 -0.4487
   94CHL1   C23 9421   4.758   2.617   8.195 -0.9903 -0.9286 -0.2494
   94CHL1  H23A 9422   4.852   2.569   8.229 -0.0809  2.4522  2.5045
   94CHL1  H23B 9423   4.765   2.723   8.225 -5.2587 -0.8711  1.2074
   94CHL1   C24 9424   4.651   2.553   8.285 -0.7934  0.4060 -0.4126
   94CHL1  H24A 9425   4.552   2.581   8.243 -2.1987 -2.4872  0.7288
   94CHL1  H24B 9426   4.664   2.443   8.273  1.6482  0.4069  1.4074
   94CHL1   C25 9427   4.664   2.575   8.434 -0.0652  0.7903 -0.2949
   94CHL1   H25 9428   4.673   2.685   8.450  2.5064  0.5878  0.1252
   94CHL1   C26 9429   4.543   2.515   8.509  0.5556 -0.5190  0.2294
   94CHL1  H26A 9430   4.452   2.559   8.463  0.9236  0.2243  0.1934
   94CHL1  H26B 9431   4.532   2.405   8.510 -2.7519 -0.3493 -1.8652
   94CHL1  H26C 9432   4.539   2.556   8.612  0.5857  0.8877 -0.2954
   94CHL1   C27 9433   4.798   2.513   8.501  0.0054 -0.4728  0.3145
   94CHL1  H27A 9434   4.886   2.542   8.439 -0.5059  1.0311  0.2492
   94CHL1  H27B 9435   4.813   2.556   8.602  2.1565  0.4149 -0.3129
   94CHL1  H27C 9436   4.780   2.404   8.494 -1.0102 -0.2145 -1.7470
   95CHL1    C3 9437   4.844   1.833   6.589 -0.0631  0.9329  0.7524
   95CHL1    H3 9438   4.930   1.767   6.611  0.5207 -0.0603 -3.5137
   95CHL1    O3 9439   4.853   1.875   6.452 -0.1152 -0.8224  1.2892
   95CHL1   H3' 9440   4.875   1.969   6.451  1.5987 -1.1256 -1.1833
   95CHL1    C4 9441   4.709   1.759   6.616 -0.4528  0.3904 -0.3240
   95CHL1   H4A 9442   4.625   1.813   6.567 -0.6846 -0.7729 -1.2428
   95CHL1   H4B 9443   4.710   1.665   6.558 -1.8084 -0.0176  0.2822
   95CHL1    C5 9444   4.679   1.728   6.760  0.1167 -0.1486 -0.1934
   95CHL1    C6 9445   4.647   1.606   6.804  1.0877 -0.0832  1.0999
   95CHL1    H6 9446   4.651   1.520   6.734  1.9030 -0.5700  1.7224
   95CHL1    C7 9447   4.619   1.567   6.942  0.3689  0.7230 -0.1841
   95CHL1   H7A 9448   4.532   1.499   6.952  1.0371  0.1206  2.4257
   95CHL1   H7B 9449   4.695   1.502   6.990 -2.0707 -1.3180  1.1387
   95CHL1    C8 9450   4.583   1.692   7.030 -0.2024 -0.1852 -0.9490
   95CHL1    H8 9451   4.482   1.730   7.004  0.1936  1.1313 -0.6647
   95CHL1   C14 9452   4.565   1.656   7.179 -0.7359  0.4508 -0.8011
   95CHL1   H14 9453   4.658   1.619   7.228 -2.0756 -0.1552  1.4416
   95CHL1   C15 9454   4.465   1.546   7.212 -0.1687 -0.5529 -0.2185
   95CHL1  H15A 9455   4.368   1.570   7.162  0.0666  0.2560 -0.3010
   95CHL1  H15B 9456   4.490   1.444   7.176  0.0544 -0.2029 -1.0706
   95CHL1   C16 9457   4.448   1.555   7.364  0.0378 -0.3826 -0.2582
   95CHL1  H16A 9458   4.339   1.558   7.388  0.2007  0.0669  0.4278
   95CHL1  H16B 9459   4.503   1.473   7.414  0.3581 -0.2907 -0.4608
   95CHL1   C17 9460   4.527   1.687   7.410 -1.0094  0.1585  0.3357
   95CHL1   H17 9461   4.635   1.664   7.424 -0.3537  1.6210 -1.8793
   95CHL1   C13 9462   4.536   1.770   7.279 -0.1796 -1.0245 -0.1298
   95CHL1   C18 9463   4.401   1.837   7.241  0.2122  0.2695  0.2950
   95CHL1  H18A 9464   4.396   1.937   7.290  1.2439 -0.8609  2.8739
   95CHL1  H18B 9465   4.388   1.865   7.134 -2.4887 -1.0318  0.2078
   95CHL1  H18C 9466   4.310   1.783   7.275 -0.5658  0.3799 -1.5129
   95CHL1   C12 9467   4.661   1.868   7.268  0.4492  0.2799 -0.2049
   95CHL1  H12A 9468   4.663   1.958   7.333  1.6454  0.1211 -0.0012
   95CHL1  H12B 9469   4.751   1.809   7.295 -0.1257  0.4484  2.3858
   95CHL1   C11 9470   4.689   1.915   7.122 -0.0922 -0.6501 -0.4686
   95CHL1  H11A 9471   4.610   1.992   7.110 -0.3285 -0.9630 -0.9676
   95CHL1  H11B 9472   4.782   1.976   7.116 -1.6088  1.9527  0.6967
   95CHL1    C9 9473   4.692   1.802   7.012  0.6979 -0.4467  0.2110
   95CHL1    H9 9474   4.789   1.751   7.032  0.8415 -0.2515  0.0167
   95CHL1   C10 9475   4.691   1.848   6.862 -0.0475  0.3800  0.0353
   95CHL1   C19 9476   4.579   1.950   6.850  1.0509 -0.1905  0.7262
   95CHL1  H19A 9477   4.569   1.980   6.744  2.0191 -0.9900  0.3910
   95CHL1  H19B 9478   4.482   1.913   6.890  1.0804  0.1648  1.1434
   95CHL1  H19C 9479   4.598   2.035   6.919 -1.9957 -0.6996  2.3770
   95CHL1    C1 9480   4.837   1.912   6.829  1.2031  0.3793  0.2078
   95CHL1   H1A 9481   4.845   2.009   6.882  1.8911  0.3313  0.2069
   95CHL1   H1B 9482   4.913   1.835   6.856  1.4843  0.6986  0.3340
   95CHL1    C2 9483   4.853   1.952   6.679  0.0090 -0.9159 -0.6517
   95CHL1   H2A 9484   4.953   1.999   6.662  0.1397 -1.3639 -1.1552
   95CHL1   H2B 9485   4.778   2.028   6.648 -0.5654 -0.8672  0.7923
   95CHL1   C20 9486   4.467   1.748   7.534 -0.4805  0.3646 -0.5462
   95CHL1   H20 9487   4.357   1.765   7.524 -1.3978 -3.8624  0.2641
   95CHL1   C21 9488   4.523   1.891   7.548  0.2838  0.4410 -0.4586
   95CHL1  H21A 9489   4.481   1.954   7.467 -1.6637  1.5060  1.2679
   95CHL1  H21B 9490   4.634   1.895   7.554  0.2595  0.6359 -0.1073
   95CHL1  H21C 9491   4.487   1.933   7.644  0.3240  2.9093 -1.4488
   95CHL1   C22 9492   4.480   1.667   7.667 -0.4268  0.1498  0.6094
   95CHL1  H22A 9493   4.442   1.566   7.644  0.8326  0.0130 -1.0354
   95CHL1  H22B 9494   4.591   1.667   7.670 -0.4081 -0.9087  0.0076
   95CHL1   C23 9495   4.414   1.734   7.792 -0.1036  0.0502 -0.4575
   95CHL1  H23A 9496   4.501   1.788   7.835  0.5958 -0.8139 -0.7481
   95CHL1  H23B 9497   4.345   1.813   7.756 -0.4454 -0.1337 -0.2116
   95CHL1   C24 9498   4.355   1.631   7.894  0.0321  0.4348  0.2122
   95CHL1  H24A 9499   4.277   1.569   7.845 -1.6909  2.5099  0.1709
   95CHL1  H24B 9500   4.435   1.564   7.931 -1.9827 -0.7302  2.7710
   95CHL1   C25 9501   4.292   1.691   8.023 -0.3861  0.2493 -0.3342
   95CHL1   H25 9502   4.206   1.754   7.994  0.6989  1.0443 -1.9851
   95CHL1   C26 9503   4.258   1.585   8.118 -0.3747 -0.1413  0.5066
   95CHL1  H26A 9504   4.185   1.514   8.074  2.0054 -2.0122 -0.5906
   95CHL1  H26B 9505   4.343   1.525   8.156 -0.5367 -0.1944  0.7955
   95CHL1  H26C 9506   4.204   1.625   8.207 -1.0032 -1.6746  0.8336
   95CHL1   C27 9507   4.396   1.783   8.099  0.1029 -0.6269 -0.0838
   95CHL1  H27A 9508   4.480   1.725   8.143  1.7533  0.8678 -1.1261
   95CHL1  H27B 9509   4.442   1.862   8.036  1.0673 -0.5096  0.7384
   95CHL1  H27C 9510   4.339   1.845   8.171  2.2311 -0.5178  1.6106
   96CHL1    C3 9511   4.725   1.136   6.656 -0.1292  0.3059  0.3643
   96CHL1    H3 9512   4.638   1.193   6.696 -2.6688 -1.3319 -2.3849
   96CHL1    O3 9513   4.724   1.151   6.516  0.3774 -0.2422  0.4605
   96CHL1   H3' 9514   4.812   1.132   6.481  0.2884 -0.8502  0.5675
   96CHL1    C4 9515   4.846   1.201   6.720 -0.2841  0.1661  0.0743
   96CHL1   H4A 9516   4.938   1.150   6.683 -0.7610 -1.7605  1.3985
   96CHL1   H4B 9517   4.844   1.310   6.698 -0.3891  0.6926  2.4489
   96CHL1    C5 9518   4.832   1.172   6.869  0.3631 -0.0410 -0.4753
   96CHL1    C6 9519   4.828   1.278   6.956 -0.4580  0.2064  0.0385
   96CHL1    H6 9520   4.844   1.377   6.912  2.0420 -0.1997 -0.0809
   96CHL1    C7 9521   4.806   1.269   7.107 -0.3718  0.3444  0.1386
   96CHL1   H7A 9522   4.877   1.337   7.158  0.1236  0.2211 -0.3756
   96CHL1   H7B 9523   4.706   1.307   7.137 -0.1246  0.7039  0.5275
   96CHL1    C8 9524   4.833   1.128   7.158  0.6507 -0.2674 -0.2488
   96CHL1    H8 9525   4.943   1.116   7.171  1.0113  1.6096 -1.2155
   96CHL1   C14 9526   4.769   1.118   7.295 -0.2950 -0.3743 -0.4923
   96CHL1   H14 9527   4.659   1.114   7.280 -0.1642 -3.1093 -1.2042
   96CHL1   C15 9528   4.783   1.238   7.398  0.0148  0.2858  0.2893
   96CHL1  H15A 9529   4.888   1.273   7.388  0.3290 -0.6948  0.0096
   96CHL1  H15B 9530   4.711   1.320   7.377 -0.2142  0.6178  2.1708
   96CHL1   C16 9531   4.755   1.180   7.537  0.2564 -0.5660 -0.2358
   96CHL1  H16A 9532   4.852   1.182   7.590  0.0459  0.2934  0.1311
   96CHL1  H16B 9533   4.676   1.236   7.591  0.5544  0.8993 -1.2458
   96CHL1   C17 9534   4.736   1.023   7.526 -0.0042 -0.6557  0.4926
   96CHL1   H17 9535   4.626   1.011   7.515 -0.0289  0.6324 -1.2104
   96CHL1   C13 9536   4.796   0.989   7.381 -0.3244 -0.7593 -0.4791
   96CHL1   C18 9537   4.945   0.963   7.400  0.4676  0.2059 -0.4944
   96CHL1  H18A 9538   4.997   1.046   7.453 -3.1497  0.9025  2.4096
   96CHL1  H18B 9539   4.946   0.862   7.447  2.1631  1.0903  1.5748
   96CHL1  H18C 9540   4.983   0.955   7.296  0.6403  1.2087 -0.5186
   96CHL1   C12 9541   4.729   0.880   7.292  0.3769 -0.1986 -0.4732
   96CHL1  H12A 9542   4.750   0.782   7.339  1.2492 -0.2845 -1.0316
   96CHL1  H12B 9543   4.619   0.894   7.294  0.2059 -1.0291 -2.2712
   96CHL1   C11 9544   4.775   0.886   7.147 -0.5364  0.1468  0.3751
   96CHL1  H11A 9545   4.883   0.862   7.138 -0.2854  1.0698  0.7632
   96CHL1  H11B 9546   4.717   0.824   7.075  0.7347  1.4490 -1.8648
   96CHL1    C9 9547   4.767   1.020   7.076 -0.1569 -0.5284  0.2767
   96CHL1    H9 9548   4.661   1.053   7.075 -0.1534 -0.4865  0.9814
   96CHL1   C10 9549   4.801   1.027   6.922  0.4761  0.3180 -0.5254
   96CHL1   C19 9550   4.943   0.967   6.898 -0.4438 -0.0699 -0.2096
   96CHL1  H19A 9551   4.950   0.869   6.951 -0.6204 -0.6231 -1.1827
   96CHL1  H19B 9552   4.969   0.953   6.791  1.4826 -0.7119  0.2972
   96CHL1  H19C 9553   5.021   1.035   6.939 -1.1874 -1.1653  3.3649
   96CHL1    C1 9554   4.683   0.966   6.838  0.3467  0.1354 -0.1965
   96CHL1   H1A 9555   4.682   0.856   6.854  2.1332  0.0939 -0.1782
   96CHL1   H1B 9556   4.588   1.011   6.874  0.6193  0.3891  0.2137
   96CHL1    C2 9557   4.699   0.989   6.693 -0.0808  0.0916  0.1722
   96CHL1   H2A 9558   4.604   0.963   6.641  0.3370  1.1702 -1.2174
   96CHL1   H2B 9559   4.780   0.927   6.647 -1.4215  0.1525 -2.4772
   96CHL1   C20 9560   4.775   0.949   7.652  0.2126 -0.1973 -0.1431
   96CHL1   H20 9561   4.885   0.946   7.669  0.1797  1.5101  0.5950
   96CHL1   C21 9562   4.717   0.804   7.639  0.4484 -0.4084 -0.5016
   96CHL1  H21A 9563   4.609   0.825   7.619  0.6378  0.0398 -1.0978
   96CHL1  H21B 9564   4.722   0.757   7.740 -1.4297 -1.2358 -0.7604
   96CHL1  H21C 9565   4.755   0.736   7.561 -2.7288 -1.7551 -1.0422
   96CHL1   C22 9566   4.722   1.023   7.782 -0.4653 -0.8206  0.2667
   96CHL1  H22A 9567   4.770   1.124   7.787  1.1552 -1.4097 -1.8812
   96CHL1  H22B 9568   4.614   1.042   7.763 -0.1013 -0.1350 -1.3283
   96CHL1   C23 9569   4.750   0.945   7.915  0.4743 -0.4699  1.0143
   96CHL1  H23A 9570   4.671   0.867   7.915 -0.5085  0.4983  0.7536
   96CHL1  H23B 9571   4.853   0.903   7.909  0.7971  0.4409 -0.1739
   96CHL1   C24 9572   4.730   1.024   8.049 -0.6187 -0.3943 -0.3276
   96CHL1  H24A 9573   4.787   1.119   8.043  1.0532 -1.4362 -3.1991
   96CHL1  H24B 9574   4.621   1.047   8.055 -0.5156  0.1963 -0.6387
   96CHL1   C25 9575   4.783   0.946   8.167 -0.0014 -0.2685  0.5445
   96CHL1   H25 9576   4.891   0.932   8.145 -0.1039 -0.0755 -0.1209
   96CHL1   C26 9577   4.770   1.022   8.299  0.2215  1.1293  0.0191
   96CHL1  H26A 9578   4.839   1.110   8.297  1.2574  0.3375  0.0950
   96CHL1  H26B 9579   4.664   1.049   8.315  0.7473  1.8922  2.6032
   96CHL1  H26C 9580   4.800   0.947   8.374  0.0323  1.2503  0.2174
   96CHL1   C27 9581   4.714   0.812   8.189 -0.2184  0.4682  0.3449
   96CHL1  H27A 9582   4.711   0.750   8.097  1.3186  0.5410  0.2093
   96CHL1  H27B 9583   4.769   0.751   8.264  2.2249  1.1386 -0.7976
   96CHL1  H27C 9584   4.609   0.823   8.222 -0.5111 -0.4371 -0.2726
   97OSM      N 9585   2.617   2.304  11.181 -0.2591  0.8190 -0.4056
   97OSM    C15 9586   2.529   2.289  11.302 -0.2595 -0.1554 -0.6204
   97OSM   H15A 9587   2.435   2.261  11.257 -0.4154 -2.3516  0.9486
   97OSM   H15B 9588   2.516   2.381  11.357  0.5508  0.8260 -1.9742
   97OSM   H15C 9589   2.559   2.206  11.363 -0.6627  0.6758  0.7382
   97OSM    C14 9590   2.567   2.428  11.111  0.0177  0.0434  0.1416
   97OSM   H14A 9591   2.462   2.415  11.088  0.0076  2.3637 -1.4468
   97OSM   H14B 9592   2.610   2.447  11.014 -0.8408  1.4760  0.0256
   97OSM   H14C 9593   2.589   2.523  11.157 -2.4503  0.9839 -0.4940
   97OSM    C13 9594   2.758   2.322  11.218 -0.0605 -0.8360  0.0488
   97OSM   H13A 9595   2.838   2.346  11.150  2.3017 -1.2227  2.4817
   97OSM   H13B 9596   2.792   2.225  11.252 -0.3041 -0.4893  1.3519
   97OSM   H13C 9597   2.777   2.399  11.292  0.3762  1.2221 -2.1078
   97OSM    C12 9598   2.601   2.183  11.089  0.4687 -0.4249 -0.1201
   97OSM   H12A 9599   2.662   2.104  11.129  1.0116 -0.5038 -1.0654
   97OSM   H12B 9600   2.648   2.210  10.995  2.5641 -0.4559  0.8732
   97OSM    C11 9601   2.460   2.133  11.052  0.3672 -0.1424 -0.8377
   97OSM   H11A 9602   2.485   2.050  10.982  1.5697 -0.4428 -0.0934
   97OSM   H11B 9603   2.417   2.212  10.987 -1.6912 -0.9949 -0.5620
   97OSM      P 9604   2.375   1.958  11.211 -0.1764  0.0211 -0.0822
   97OSM    O13 9605   2.506   1.915  11.257  0.2505 -0.5197 -0.4135
   97OSM    O14 9606   2.263   1.952  11.302  0.1539  0.1964 -0.1515
   97OSM    O11 9607   2.333   1.878  11.090 -0.0717 -0.2229  0.2808
   97OSM    O12 9608   2.376   2.101  11.155 -0.7110 -0.3141 -0.6290
   97OSM    C1S 9609   2.217   1.898  11.008 -0.6924  1.1070  0.0315
   97OSM    H1S 9610   2.178   2.001  11.019  0.3287  1.4974  0.1629
   97OSM    H1T 9611   2.139   1.825  11.036  0.5493 -0.2430  0.1122
   97OSM     NF 9612   2.133   1.916  10.770  0.4602  0.1990 -0.1125
   97OSM    HNF 9613   2.085   1.840  10.727 -0.3155  0.3743  0.4142
   97OSM    C2S 9614   2.251   1.889  10.853 -0.3012 -0.5016 -0.5037
   97OSM    H2S 9615   2.323   1.970  10.829  0.9584 -1.7263 -0.9875
   97OSM    C3S 9616   2.314   1.746  10.825 -0.7393 -0.3463  0.9982
   97OSM    H3S 9617   2.242   1.663  10.839 -0.3329 -0.8806  0.0320
   97OSM     O3 9618   2.425   1.703  10.907  0.4838 -0.2704 -0.5216
   97OSM    HO3 9619   2.431   1.766  10.979  0.6053 -0.8308 -0.0312
   97OSM    C4S 9620   2.357   1.736  10.678  0.5187 -0.5377  0.8143
   97OSM    H4S 9621   2.304   1.658  10.622  1.6975 -0.6690 -0.1646
   97OSM    C5S 9622   2.458   1.782  10.609 -1.1381 -0.4083 -0.6924
   97OSM    H5S 9623   2.528   1.856  10.648 -1.5831 -1.1603  1.6993
   97OSM    C6S 9624   2.478   1.736  10.471 -0.6010 -0.1614 -0.2149
   97OSM    H6S 9625   2.499   1.627  10.477  3.0319  0.5015  2.1801
   97OSM    H6T 9626   2.578   1.769  10.435 -0.0727 -1.9165 -0.4479
   97OSM    C7S 9627   2.372   1.782  10.369 -0.0360 -0.8934  0.5583
   97OSM    H7S 9628   2.372   1.892  10.357 -0.7638 -0.9766 -0.2834
   97OSM    H7T 9629   2.271   1.753  10.404 -1.0605  1.6253 -0.1103
   97OSM    C8S 9630   2.392   1.719  10.225 -0.6039  0.3468 -0.3780
   97OSM    H8S 9631   2.394   1.611  10.248  1.5370  0.6411  1.1137
   97OSM    H8T 9632   2.494   1.745  10.189 -1.1379 -0.3639 -2.5412
   97OSM    C9S 9633   2.290   1.769  10.123 -0.1465  0.0060  0.8810
   97OSM    H9S 9634   2.312   1.878  10.124 -1.6304  0.3350  0.0383
   97OSM    H9T 9635   2.186   1.769  10.162 -0.8240 -1.5360 -0.7973
   97OSM   C10S 9636   2.293   1.706   9.979  0.2981  0.5530 -0.3094
   97OSM   H10S 9637   2.216   1.742   9.909  1.1914 -3.2301 -3.6214
   97OSM   H10T 9638   2.267   1.598   9.980  1.0642  0.3441 -1.1461
   97OSM   C11S 9639   2.428   1.726   9.903 -0.2771  0.1816 -0.7815
   97OSM   H11S 9640   2.507   1.660   9.945  0.5449  0.8693 -1.2343
   97OSM   H11T 9641   2.456   1.832   9.921  0.6949 -0.1582 -0.1976
   97OSM   C12S 9642   2.408   1.716   9.762 -0.0375  0.6854 -0.1219
   97OSM   H12S 9643   2.342   1.801   9.734 -2.5501 -1.3929 -0.8157
   97OSM   H12T 9644   2.352   1.625   9.732 -1.0141  0.6630  1.6392
   97OSM   C13S 9645   2.536   1.738   9.682  0.3594 -0.7666  0.6830
   97OSM   H13S 9646   2.619   1.669   9.706 -0.8151 -2.0148  1.3023
   97OSM   H13T 9647   2.559   1.844   9.707 -2.5933  0.3925 -1.0581
   97OSM   C14S 9648   2.516   1.741   9.527  0.1329 -0.0677 -0.0863
   97OSM   H14S 9649   2.444   1.823   9.508  1.9068  1.6094  0.1815
   97OSM   H14T 9650   2.466   1.646   9.497  1.3833 -1.5591  2.2312
   97OSM   C15S 9651   2.648   1.760   9.453  0.3277 -0.4982  0.0759
   97OSM   H15S 9652   2.727   1.701   9.504  0.3123 -0.5917 -0.0084
   97OSM   H15T 9653   2.684   1.865   9.460  2.6960 -1.0681 -2.1353
   97OSM   C16S 9654   2.635   1.721   9.303  0.4641  0.3883  0.9025
   97OSM   H16S 9655   2.536   1.757   9.270  1.2864  2.8146  0.9233
   97OSM   H16T 9656   2.645   1.610   9.301 -1.5476  0.1669  1.0511
   97OSM   C17S 9657   2.750   1.773   9.211  0.0825  0.2770  0.9619
   97OSM   H17S 9658   2.848   1.736   9.247  0.4868  0.9662  0.6066
   97OSM   H17T 9659   2.747   1.883   9.232 -0.3730  0.2788  0.8990
   97OSM   C18S 9660   2.737   1.740   9.058 -0.2331  0.6336 -0.1367
   97OSM   H18S 9661   2.763   1.635   9.033 -0.7123  0.1141  1.4298
   97OSM   H18T 9662   2.798   1.802   8.989  0.0437 -0.5988 -1.0321
   97OSM   H18U 9663   2.632   1.761   9.030 -0.5845 -1.9082 -1.0710
   97OSM    C1F 9664   2.081   2.037  10.762 -0.7695  0.0011 -0.4186
   97OSM     OF 9665   2.119   2.126  10.835  0.4055 -0.1836 -0.0680
   97OSM    C2F 9666   1.976   2.062  10.666  0.1569  0.8987  0.0123
   97OSM    H2F 9667   1.949   2.170  10.658  0.3099  0.7966 -3.1725
   97OSM    H2G 9668   1.884   2.005  10.692  0.7989 -0.0407  0.2680
   97OSM    C3F 9669   2.022   2.019  10.523 -0.1639  0.5859  1.6087
   97OSM    H3F 9670   1.930   2.010  10.461  0.1130 -0.3075  1.3148
   97OSM    H3G 9671   2.077   1.923  10.522  0.2874  0.8109 -0.2347
   97OSM    C4F 9672   2.113   2.128  10.470  0.4424 -0.0854 -0.4962
   97OSM    H4F 9673   2.200   2.139  10.538 -0.5647 -1.5629  1.1117
   97OSM    H4G 9674   2.061   2.225  10.485 -2.1901 -1.5515  0.5592
   97OSM    C5F 9675   2.160   2.126  10.315 -0.9492 -0.3111 -0.4444
   97OSM    H5F 9676   2.230   2.041  10.300 -3.3499 -2.4864  0.0629
   97OSM    H5G 9677   2.211   2.220  10.283 -1.4366  0.7236  1.6484
   97OSM    C6F 9678   2.052   2.104  10.217  0.0689  0.0481 -0.6873
   97OSM    H6F 9679   1.959   2.155  10.249  0.4134 -0.3931  1.0955
   97OSM    H6G 9680   2.031   1.997  10.235 -1.0988 -0.2309 -3.2849
   97OSM    C7F 9681   2.084   2.114  10.065  0.1638  0.4953 -0.6317
   97OSM    H7F 9682   2.153   2.036  10.027  1.3973  1.5723 -0.6456
   97OSM    H7G 9683   2.133   2.211  10.045  0.8910  0.2672  0.0231
   97OSM    C8F 9684   1.955   2.113   9.977 -0.2586  0.8833  0.3027
   97OSM    H8F 9685   1.887   2.193  10.012  0.0113  0.8582  0.8966
   97OSM    H8G 9686   1.911   2.016  10.010  0.8010  0.7836  1.5159
   97OSM    C9F 9687   1.987   2.133   9.830 -0.9896 -0.4399  0.3361
   97OSM    H9F 9688   2.002   2.240   9.811  0.4746 -0.1854  2.5204
   97OSM   C10F 9689   1.995   2.040   9.741  0.0112  1.1500 -0.6055
   97OSM   H10F 9690   2.032   2.080   9.646 -0.8801  3.3624 -0.0693
   97OSM   C11F 9691   1.956   1.895   9.751 -0.7661 -0.2090  0.2602
   97OSM   H11F 9692   1.858   1.876   9.800 -1.2628  1.0882 -0.1821
   97OSM   H11G 9693   2.039   1.855   9.813  1.8019  2.7722 -0.9767
   97OSM   C12F 9694   1.957   1.801   9.626 -0.2819 -0.0143 -0.5700
   97OSM   H12F 9695   1.938   1.693   9.642  0.3010 -0.2619 -1.4794
   97OSM   H12G 9696   2.062   1.803   9.589  1.3760 -1.1376  3.4560
   97OSM   C13F 9697   1.870   1.860   9.508 -0.4943  0.4994  0.5043
   97OSM   H13F 9698   1.877   1.968   9.484 -0.4870  0.2823 -0.5096
   97OSM   H13G 9699   1.764   1.847   9.539 -0.8619 -0.5674 -1.1053
   97OSM   C14F 9700   1.904   1.780   9.385  0.3232 -0.3705  0.2123
   97OSM   H14F 9701   1.869   1.678   9.413  0.4959 -0.4840  0.0227
   97OSM   H14G 9702   2.013   1.771   9.364  0.3228  0.6890 -0.3251
   97OSM   C15F 9703   1.826   1.831   9.261  0.1854 -0.1333 -0.1358
   97OSM   H15F 9704   1.843   1.759   9.178  0.5164 -0.8344  0.5248
   97OSM   H15G 9705   1.864   1.932   9.234 -0.5891  0.5571  1.2435
   97OSM   C16F 9706   1.672   1.856   9.275 -0.1021  0.1712  0.4342
   97OSM   H16F 9707   1.658   1.929   9.357 -3.8824 -0.4986  0.5650
   97OSM   H16G 9708   1.609   1.768   9.300 -1.1007  0.7787  0.1438
   97OSM   C17F 9709   1.603   1.931   9.149 -0.0436  0.5439 -0.3024
   97OSM   H17F 9710   1.652   2.030   9.135 -2.8786  2.2419  1.0753
   97OSM   H17G 9711   1.497   1.931   9.182  0.0561 -0.0551  0.0400
   97OSM   C18F 9712   1.623   1.847   9.025 -0.4611 -0.3666  0.8914
   97OSM   H18F 9713   1.563   1.886   8.940  1.8129 -0.3329 -0.7842
   97OSM   H18G 9714   1.587   1.745   9.048  2.9949 -1.8293  0.4211
   97OSM   H18H 9715   1.732   1.850   9.004 -0.2325  1.2531  2.0632
   98OSM      N 9716   1.754   1.833  11.208 -0.4534 -0.2828 -0.3730
   98OSM    C15 9717   1.692   1.963  11.178 -0.5974 -0.0168  0.0056
   98OSM   H15A 9718   1.761   2.040  11.147 -1.1547  1.3306  1.9425
   98OSM   H15B 9719   1.643   2.001  11.266 -0.8605  0.0733 -0.1792
   98OSM   H15C 9720   1.607   1.949  11.112 -0.1147 -2.1747 -0.2414
   98OSM    C14 9721   1.841   1.869  11.324  0.1756  0.1591  0.1129
   98OSM   H14A 9722   1.903   1.954  11.300  1.3807 -0.7910 -0.2540
   98OSM   H14B 9723   1.901   1.784  11.354 -0.2412  0.2261  1.1689
   98OSM   H14C 9724   1.790   1.900  11.414  1.9454 -2.5009  2.2371
   98OSM    C13 9725   1.647   1.735  11.248 -0.2433  0.0415  0.3712
   98OSM   H13A 9726   1.588   1.779  11.327  1.1614 -0.2245  1.6224
   98OSM   H13B 9727   1.683   1.644  11.292 -2.4253 -0.7611  0.5947
   98OSM   H13C 9728   1.583   1.715  11.163  2.2559 -0.8563 -1.4012
   98OSM    C12 9729   1.840   1.779  11.097 -0.1050  0.0251  0.1606
   98OSM   H12A 9730   1.865   1.677  11.122  2.2017  0.3681 -0.5073
   98OSM   H12B 9731   1.934   1.830  11.088  0.8243 -1.9097 -2.2574
   98OSM    C11 9732   1.785   1.775  10.953 -0.1841 -0.2089  0.2077
   98OSM   H11A 9733   1.867   1.742  10.885  0.3081  2.3664 -0.5757
   98OSM   H11B 9734   1.757   1.877  10.921  0.9294  0.2177  0.5339
   98OSM      P 9735   1.659   1.550  10.896 -0.1291 -0.2759  0.2867
   98OSM    O13 9736   1.727   1.450  10.982 -0.6446  0.5529 -0.1360
   98OSM    O14 9737   1.519   1.520  10.866  0.5862  0.5007  0.4757
   98OSM    O11 9738   1.739   1.552  10.754  0.5773 -0.1815 -0.2670
   98OSM    O12 9739   1.668   1.693  10.946 -0.2634 -0.6941  0.5355
   98OSM    C1S 9740   1.693   1.622  10.644 -0.4795 -0.3690  0.0990
   98OSM    H1S 9741   1.751   1.717  10.632 -0.8460 -0.0592  0.7038
   98OSM    H1T 9742   1.589   1.661  10.641  0.2736  1.7189 -1.0326
   98OSM     NF 9743   1.700   1.617  10.394  0.0832  0.2369  0.1520
   98OSM    HNF 9744   1.612   1.644  10.358  0.0500  0.3254  0.2993
   98OSM    C2S 9745   1.712   1.536  10.513  0.6431  0.9739 -0.0799
   98OSM    H2S 9746   1.815   1.500  10.531 -0.7262 -2.1738  2.5529
   98OSM    C3S 9747   1.624   1.403  10.514  0.0049 -0.2062  0.6859
   98OSM    H3S 9748   1.521   1.440  10.495 -1.0477 -1.4904  3.4103
   98OSM     O3 9749   1.629   1.332  10.632  0.3976 -0.6159  0.6462
   98OSM    HO3 9750   1.668   1.396  10.692  0.8377 -0.3350  0.0736
   98OSM    C4S 9751   1.647   1.308  10.396  0.2698  0.4210 -0.1015
   98OSM    H4S 9752   1.609   1.355  10.304 -4.2782 -0.7200  0.9681
   98OSM    C5S 9753   1.713   1.187  10.398 -0.1990 -0.0530  0.7737
   98OSM    H5S 9754   1.765   1.153  10.489 -0.2819  0.8545  1.1741
   98OSM    C6S 9755   1.743   1.102  10.282 -0.1083 -0.2894  0.0050
   98OSM    H6S 9756   1.707   1.006  10.325  2.4737 -1.0846  0.5747
   98OSM    H6T 9757   1.851   1.084  10.266  0.0153  0.4908 -0.0695
   98OSM    C7S 9758   1.676   1.139  10.150  0.1484  0.2604  0.0060
   98OSM    H7S 9759   1.731   1.223  10.101 -1.5910  1.4624  0.0032
   98OSM    H7T 9760   1.568   1.163  10.166  0.0948  0.5155 -0.6736
   98OSM    C8S 9761   1.687   1.025  10.040  0.1660  0.1810 -0.6132
   98OSM    H8S 9762   1.645   0.933  10.086 -1.8988  0.5994 -1.5450
   98OSM    H8T 9763   1.796   1.011  10.023  0.8956 -1.5000  4.0635
   98OSM    C9S 9764   1.614   1.055   9.903  0.4888  1.1578  0.6598
   98OSM    H9S 9765   1.651   1.156   9.876  1.8860  0.5049  0.0547
   98OSM    H9T 9766   1.505   1.051   9.922 -0.1662 -3.3780 -2.4733
   98OSM   C10S 9767   1.640   0.952   9.794  0.7515  0.3827  1.1456
   98OSM   H10S 9768   1.557   0.878   9.796  1.8630 -1.3727 -3.4030
   98OSM   H10T 9769   1.738   0.899   9.796  0.8144  0.4321 -0.0276
   98OSM   C11S 9770   1.623   1.015   9.651 -0.0731 -0.1687  0.2898
   98OSM   H11S 9771   1.671   1.115   9.640  0.6598 -0.6858 -1.6926
   98OSM   H11T 9772   1.516   1.036   9.631  0.4914  0.8416 -2.0812
   98OSM   C12S 9773   1.679   0.935   9.539  0.6030 -0.4840  0.9126
   98OSM   H12S 9774   1.627   0.839   9.522 -0.9678  0.4803 -0.0082
   98OSM   H12T 9775   1.789   0.920   9.548  0.7181  0.0682  0.5239
   98OSM   C13S 9776   1.674   1.009   9.400 -0.4249  0.2995 -0.1598
   98OSM   H13S 9777   1.741   0.958   9.328  0.3944 -1.1230  1.5163
   98OSM   H13T 9778   1.710   1.113   9.413  1.0140 -0.3886  1.8078
   98OSM   C14S 9779   1.537   1.008   9.334 -0.5301  0.1630 -0.5836
   98OSM   H14S 9780   1.479   1.077   9.399 -1.5971 -1.5920  0.4033
   98OSM   H14T 9781   1.492   0.907   9.343  0.0858 -0.1747 -1.1131
   98OSM   C15S 9782   1.546   1.064   9.189  0.8836  0.2685  0.3076
   98OSM   H15S 9783   1.601   0.990   9.126  0.9288 -1.2930  2.0920
   98OSM   H15T 9784   1.600   1.161   9.196 -1.2106  1.6154 -1.2040
   98OSM   C16S 9785   1.398   1.086   9.134  0.2994  0.0851  0.1627
   98OSM   H16S 9786   1.344   1.160   9.197 -0.5092  0.0930 -0.5209
   98OSM   H16T 9787   1.337   0.993   9.144 -0.2350  0.3675 -0.3780
   98OSM   C17S 9788   1.403   1.134   8.990  0.3215  0.1051  0.9388
   98OSM   H17S 9789   1.297   1.136   8.955 -0.0374 -4.2816  1.2239
   98OSM   H17T 9790   1.452   1.053   8.931 -2.9989 -1.8916  0.6517
   98OSM   C18S 9791   1.469   1.266   8.958 -0.1365  0.4272  0.3170
   98OSM   H18S 9792   1.578   1.250   8.942 -0.3036 -0.9151  0.3326
   98OSM   H18T 9793   1.446   1.327   9.047 -0.9486 -0.4905  0.7488
   98OSM   H18U 9794   1.421   1.310   8.868  0.6971 -0.2079 -0.4685
   98OSM    C1F 9795   1.804   1.692  10.358 -0.3537  0.3035 -0.1112
   98OSM     OF 9796   1.911   1.691  10.416  0.1231  0.1511 -0.4178
   98OSM    C2F 9797   1.768   1.796  10.260 -0.1474  0.0898  0.9722
   98OSM    H2F 9798   1.826   1.887  10.288 -0.2517 -0.3342  2.6676
   98OSM    H2G 9799   1.659   1.817  10.260  0.1501  1.8567 -0.3553
   98OSM    C3F 9800   1.798   1.747  10.107  0.5512 -0.7307 -0.5920
   98OSM    H3F 9801   1.893   1.690  10.115 -0.2474 -2.0545 -0.3266
   98OSM    H3G 9802   1.812   1.838  10.044 -0.0657 -0.7489 -0.7572
   98OSM    C4F 9803   1.676   1.671  10.055  0.3398 -0.1031  0.0805
   98OSM    H4F 9804   1.580   1.727  10.066  1.5005  1.8410  0.8508
   98OSM    H4G 9805   1.679   1.571  10.104  0.4350 -0.2137 -0.1546
   98OSM    C5F 9806   1.692   1.645   9.911  0.4751  0.2184 -0.0279
   98OSM    H5F 9807   1.791   1.604   9.881  0.3851 -0.4079  0.5032
   98OSM    H5G 9808   1.670   1.747   9.872  1.4523  0.8688  1.0691
   98OSM    C6F 9809   1.582   1.551   9.861  0.4077  0.4724 -0.0182
   98OSM    H6F 9810   1.486   1.574   9.911  1.4714  1.7969  1.5488
   98OSM    H6G 9811   1.599   1.442   9.880  1.5135  0.4822 -0.8358
   98OSM    C7F 9812   1.553   1.570   9.711  0.9469 -0.2958 -0.5287
   98OSM    H7F 9813   1.646   1.569   9.650 -0.3355 -3.0698 -2.6515
   98OSM    H7G 9814   1.510   1.672   9.703  1.7819  0.5175  3.1639
   98OSM    C8F 9815   1.466   1.454   9.661 -0.0989 -0.3505 -0.1904
   98OSM    H8F 9816   1.376   1.464   9.725  0.7043 -0.4264  0.9904
   98OSM    H8G 9817   1.516   1.355   9.673  0.0697 -0.4116 -1.2504
   98OSM    C9F 9818   1.426   1.478   9.511  0.7336 -0.0933 -0.1513
   98OSM    H9F 9819   1.324   1.517   9.497  1.1089  0.5213 -1.3213
   98OSM   C10F 9820   1.506   1.469   9.400  0.1334 -0.5026  0.2500
   98OSM   H10F 9821   1.464   1.502   9.304  1.2920 -1.6700 -0.6794
   98OSM   C11F 9822   1.651   1.429   9.378 -0.1770  0.0909  0.2902
   98OSM   H11F 9823   1.666   1.321   9.398 -0.2687 -0.0717 -0.4821
   98OSM   H11G 9824   1.720   1.486   9.443 -1.7964  2.5484 -0.0144
   98OSM   C12F 9825   1.690   1.459   9.229 -0.1468  0.0449  0.0243
   98OSM   H12F 9826   1.701   1.569   9.217 -0.8281  0.2563  1.1769
   98OSM   H12G 9827   1.614   1.422   9.156 -1.2936 -0.8849  1.6375
   98OSM   C13F 9828   1.814   1.390   9.174 -0.3567  1.1066  0.1655
   98OSM   H13F 9829   1.789   1.286   9.143 -0.3729  1.2248 -0.2272
   98OSM   H13G 9830   1.889   1.380   9.256 -2.0218  0.3871  1.6583
   98OSM   C14F 9831   1.877   1.462   9.059  0.1318 -0.1416 -0.1887
   98OSM   H14F 9832   1.985   1.434   9.051  0.6977  1.5004  1.1344
   98OSM   H14G 9833   1.883   1.568   9.089  0.3144 -0.7732  2.1923
   98OSM   C15F 9834   1.796   1.458   8.929  0.4528 -0.5640  0.9407
   98OSM   H15F 9835   1.698   1.510   8.939  0.8178  0.7689 -1.3957
   98OSM   H15G 9836   1.780   1.351   8.906  1.8365 -0.4255 -0.9733
   98OSM   C16F 9837   1.867   1.522   8.800 -0.0188  0.7972 -0.2222
   98OSM   H16F 9838   1.811   1.512   8.705 -2.5945 -3.1573  1.4405
   98OSM   H16G 9839   1.951   1.450   8.792 -0.4627 -0.0015  1.6238
   98OSM   C17F 9840   1.911   1.673   8.797  0.5028  0.4901 -0.0247
   98OSM   H17F 9841   1.973   1.695   8.887  1.8029 -3.2648  0.1765
   98OSM   H17G 9842   1.821   1.737   8.783  0.4769  0.1965 -1.3288
   98OSM   C18F 9843   2.001   1.679   8.676 -0.0622  0.4159  0.3607
   98OSM   H18F 9844   2.102   1.638   8.700 -0.1885 -0.2171 -0.1622
   98OSM   H18G 9845   2.012   1.785   8.643 -1.9883  0.5424  0.0181
   98OSM   H18H 9846   1.972   1.620   8.587 -0.6794  0.5306  0.4857
   99OSM      N 9847   3.902   1.657  11.010  0.3271  0.3404 -0.6517
   99OSM    C15 9848   3.844   1.769  11.093 -0.0509 -0.0412 -0.6813
   99OSM   H15A 9849   3.763   1.737  11.158  0.6552  1.5122  1.0474
   99OSM   H15B 9850   3.799   1.844  11.030 -0.6724 -1.6589 -2.2599
   99OSM   H15C 9851   3.924   1.822  11.142 -1.0281  0.3655  0.5435
   99OSM    C14 9852   3.982   1.581  11.116 -0.1646 -0.8153 -0.2227
   99OSM   H14A 9853   3.914   1.521  11.175  0.7658 -3.5880 -1.7799
   99OSM   H14B 9854   4.050   1.642  11.174  3.0670 -3.5550 -0.7842
   99OSM   H14C 9855   4.040   1.506  11.064 -0.1282 -0.1444 -1.1679
   99OSM    C13 9856   3.798   1.567  10.950  0.5493  0.1347  0.1674
   99OSM   H13A 9857   3.723   1.620  10.893  0.7078 -1.3235 -1.5220
   99OSM   H13B 9858   3.751   1.507  11.026  0.5501 -1.6100 -1.1275
   99OSM   H13C 9859   3.842   1.495  10.882  1.6780  1.0762 -0.1407
   99OSM    C12 9860   3.999   1.702  10.897  0.2390 -0.0062 -0.8675
   99OSM   H12A 9861   3.939   1.759  10.829  0.7641  1.8933  0.1679
   99OSM   H12B 9862   4.021   1.612  10.842 -0.0703 -2.3323  2.4834
   99OSM    C11 9863   4.122   1.786  10.930 -0.1854  0.6429  0.3851
   99OSM   H11A 9864   4.190   1.793  10.842  1.0339  0.3008  1.2805
   99OSM   H11B 9865   4.182   1.733  11.007 -0.0411  1.9006  1.1812
   99OSM      P 9866   4.026   2.030  10.913 -0.3458  0.1125 -0.1563
   99OSM    O13 9867   3.887   2.051  10.959  0.2085  0.4501  0.1850
   99OSM    O14 9868   4.115   2.151  10.924 -0.3282 -0.1971  0.0897
   99OSM    O11 9869   4.015   1.982  10.762  0.0044  0.1369 -0.2207
   99OSM    O12 9870   4.091   1.910  10.985  0.2551 -0.5517 -0.5938
   99OSM    C1S 9871   3.962   2.080  10.671 -0.1181 -0.1720  0.0250
   99OSM    H1S 9872   4.019   2.174  10.682  0.9509 -0.7374 -0.5069
   99OSM    H1T 9873   3.858   2.104  10.701 -0.5511  0.1848 -1.6590
   99OSM     NF 9874   3.930   2.152  10.442  0.2770 -0.3226  0.1462
   99OSM    HNF 9875   3.834   2.173  10.427  0.5628  0.4575 -0.6996
   99OSM    C2S 9876   3.967   2.037  10.527  0.0579 -0.2815  0.1191
   99OSM    H2S 9877   4.073   2.018  10.502  0.5924  0.6663  1.5294
   99OSM    C3S 9878   3.889   1.912  10.507 -0.3577  0.3290 -0.1683
   99OSM    H3S 9879   3.788   1.931  10.549 -0.1840  4.5271 -1.1904
   99OSM     O3 9880   3.942   1.800  10.574  0.5988 -0.0433  0.0565
   99OSM    HO3 9881   3.990   1.841  10.646  1.8733  1.5978 -1.6098
   99OSM    C4S 9882   3.884   1.889  10.358 -0.0222  0.1036 -0.5974
   99OSM    H4S 9883   3.983   1.887  10.310  0.7942  2.7382  0.7520
   99OSM    C5S 9884   3.766   1.888  10.298  0.3762 -0.7927  0.6623
   99OSM    H5S 9885   3.675   1.895  10.361  1.0395 -0.8619  1.6551
   99OSM    C6S 9886   3.742   1.865  10.152  0.3525 -0.9743  0.3308
   99OSM    H6S 9887   3.676   1.949  10.121  0.9730 -0.2158  0.9946
   99OSM    H6T 9888   3.683   1.775  10.127 -0.8075 -0.0224 -0.5053
   99OSM    C7S 9889   3.875   1.878  10.066  0.4020  0.1421 -0.8583
   99OSM    H7S 9890   3.942   1.795  10.097 -0.1428 -0.0180 -0.0905
   99OSM    H7T 9891   3.935   1.969  10.083  1.2041 -0.6442  0.7414
   99OSM    C8S 9892   3.838   1.864   9.921  0.2933 -0.3391  0.6213
   99OSM    H8S 9893   3.801   1.963   9.887 -0.9984 -1.0301 -0.0279
   99OSM    H8T 9894   3.753   1.793   9.915 -0.7670  0.9989 -1.1574
   99OSM    C9S 9895   3.948   1.829   9.822  0.6878  0.1191  0.0725
   99OSM    H9S 9896   3.968   1.723   9.852  0.5465  0.0457 -0.0937
   99OSM    H9T 9897   4.037   1.890   9.847  1.8766 -0.3400 -2.6819
   99OSM   C10S 9898   3.911   1.814   9.675 -0.4470 -0.8124 -0.3570
   99OSM   H10S 9899   3.801   1.822   9.663 -0.4459 -1.2242 -0.6749
   99OSM   H10T 9900   3.933   1.711   9.640  0.6254 -0.2466 -1.4203
   99OSM   C11S 9901   3.999   1.916   9.592  0.1618 -0.0509  0.3361
   99OSM   H11S 9902   4.108   1.902   9.608  0.0206 -0.1677  1.2850
   99OSM   H11T 9903   3.966   2.010   9.641  0.0045 -0.6699  1.4585
   99OSM   C12S 9904   3.969   1.915   9.450 -0.1974  0.3807 -0.4490
   99OSM   H12S 9905   3.998   1.815   9.410 -0.9700 -0.6821  1.5155
   99OSM   H12T 9906   3.861   1.936   9.438 -0.6818 -0.2765  2.2002
   99OSM   C13S 9907   4.047   2.023   9.370 -0.2921 -0.0485 -0.7363
   99OSM   H13S 9908   4.152   1.987   9.367 -0.1665  0.1239  1.0606
   99OSM   H13T 9909   4.051   2.109   9.440 -0.6255 -0.7488  0.1576
   99OSM   C14S 9910   3.998   2.059   9.227  0.0549  0.1798 -0.6535
   99OSM   H14S 9911   4.055   2.144   9.183 -2.0083  1.2982 -1.2697
   99OSM   H14T 9912   3.894   2.094   9.239  0.1764 -0.0606  1.4620
   99OSM   C15S 9913   4.020   1.934   9.142  0.7301  0.2628 -0.3195
   99OSM   H15S 9914   3.955   1.856   9.189  2.5063 -0.7785  0.5004
   99OSM   H15T 9915   4.124   1.896   9.153  0.2919 -1.1239 -0.6749
   99OSM   C16S 9916   3.986   1.948   8.994 -0.1743 -0.3018 -0.2933
   99OSM   H16S 9917   4.040   2.035   8.953  1.2333  1.0827  3.9397
   99OSM   H16T 9918   3.881   1.981   8.981  0.3226  2.3274  1.6090
   99OSM   C17S 9919   4.031   1.829   8.898 -0.5374 -0.3777 -0.2396
   99OSM   H17S 9920   3.980   1.735   8.926  0.9397 -1.1603 -0.0487
   99OSM   H17T 9921   4.137   1.806   8.924 -0.8303 -1.1728  0.2749
   99OSM   C18S 9922   4.013   1.854   8.752  0.0374 -0.1774 -0.2231
   99OSM   H18S 9923   4.045   1.762   8.699 -1.0181 -1.7535  1.7653
   99OSM   H18T 9924   4.054   1.949   8.711  0.2289 -0.6878 -1.2444
   99OSM   H18U 9925   3.906   1.855   8.723  0.5955 -2.5390 -2.8753
   99OSM    C1F 9926   4.022   2.250  10.434 -0.3358  0.2669  0.0596
   99OSM     OF 9927   4.139   2.229  10.469 -0.2863 -0.1639  0.1523
   99OSM    C2F 9928   3.976   2.384  10.387 -0.3986  0.0191  0.0195
   99OSM    H2F 9929   4.033   2.464  10.440 -0.1217  0.1272 -0.4399
   99OSM    H2G 9930   3.869   2.397  10.415  0.0074  0.1063  1.6082
   99OSM    C3F 9931   3.996   2.402  10.234 -0.1040 -0.5057 -0.2704
   99OSM    H3F 9932   3.937   2.492  10.208 -1.8900 -1.4152  0.4313
   99OSM    H3G 9933   4.104   2.416  10.215 -0.0677 -1.8552 -1.2086
   99OSM    C4F 9934   3.941   2.288  10.142 -0.1713 -0.4964 -0.3178
   99OSM    H4F 9935   3.976   2.190  10.179 -0.0658 -0.3367  0.0045
   99OSM    H4G 9936   3.988   2.288  10.041  2.1734  0.9360  0.7008
   99OSM    C5F 9937   3.789   2.288  10.130 -0.1184  0.6555  0.1367
   99OSM    H5F 9938   3.752   2.338  10.222  0.8112  2.2588 -0.3241
   99OSM    H5G 9939   3.744   2.187  10.122  0.5545  0.2668  1.1270
   99OSM    C6F 9940   3.758   2.374  10.010  0.8166  0.7143 -0.0166
   99OSM    H6F 9941   3.801   2.333   9.916 -0.2263 -0.6088  0.0548
   99OSM    H6G 9942   3.805   2.474  10.014  1.7095  0.3571 -0.9514
   99OSM    C7F 9943   3.607   2.386   9.992  0.1810  0.3516 -0.7638
   99OSM    H7F 9944   3.571   2.423  10.090  1.6713 -1.1508  0.4230
   99OSM    H7G 9945   3.557   2.287   9.980 -2.9644  1.7716 -0.1332
   99OSM    C8F 9946   3.566   2.468   9.876 -0.0127 -0.1245 -0.8122
   99OSM    H8F 9947   3.456   2.462   9.867 -0.2152  0.6307  0.7427
   99OSM    H8G 9948   3.610   2.420   9.786 -1.2928 -0.3945 -1.3058
   99OSM    C9F 9949   3.594   2.619   9.889 -0.2587  0.3171  0.1828
   99OSM    H9F 9950   3.546   2.668   9.974 -0.6490  0.8313 -0.3222
   99OSM   C10F 9951   3.688   2.692   9.820  0.8372 -0.0420 -0.4919
   99OSM   H10F 9952   3.702   2.800   9.841  0.9548 -0.0168 -0.6970
   99OSM   C11F 9953   3.761   2.637   9.706 -0.3104  0.1241  0.0190
   99OSM   H11F 9954   3.725   2.550   9.647  0.2277  1.1740 -1.9835
   99OSM   H11G 9955   3.864   2.613   9.740 -0.7667  1.1703  2.3266
   99OSM   C12F 9956   3.772   2.749   9.595 -0.0693 -0.2270 -0.0672
   99OSM   H12F 9957   3.818   2.839   9.642 -0.0661 -0.6994  0.8713
   99OSM   H12G 9958   3.669   2.767   9.559  0.4056  0.7947 -0.9551
   99OSM   C13F 9959   3.863   2.728   9.466  0.1244 -0.1862 -0.7011
   99OSM   H13F 9960   3.826   2.801   9.392  0.6934  2.4401  1.4431
   99OSM   H13G 9961   3.826   2.632   9.425 -0.9368 -0.1064  0.0372
   99OSM   C14F 9962   4.017   2.743   9.493 -0.5224  0.0558 -0.1495
   99OSM   H14F 9963   4.064   2.648   9.526  0.1363  0.3253 -0.3090
   99OSM   H14G 9964   4.033   2.819   9.573  0.6236 -0.7419  0.3960
   99OSM   C15F 9965   4.078   2.796   9.364 -1.3967  0.3266  0.3256
   99OSM   H15F 9966   4.164   2.866   9.381  1.1145 -2.2691 -0.8546
   99OSM   H15G 9967   4.004   2.838   9.294 -1.8242  2.3836  1.8935
   99OSM   C16F 9968   4.145   2.682   9.283 -0.1113  0.1260  0.1282
   99OSM   H16F 9969   4.073   2.602   9.253  1.2801 -0.7441 -1.0238
   99OSM   H16G 9970   4.222   2.632   9.346 -0.9262  0.5541  1.5161
   99OSM   C17F 9971   4.207   2.724   9.146 -0.1616  0.2921 -0.3928
   99OSM   H17F 9972   4.127   2.775   9.089 -2.1326  0.7188  2.5206
   99OSM   H17G 9973   4.233   2.633   9.087  0.8788  0.2417  0.1224
   99OSM   C18F 9974   4.322   2.819   9.161  0.0465  0.1902  0.0317
   99OSM   H18F 9975   4.401   2.774   9.225  0.2401 -1.9837 -1.6312
   99OSM   H18G 9976   4.277   2.915   9.192 -0.2774 -0.2054  0.8317
   99OSM   H18H 9977   4.360   2.836   9.058  1.0296 -1.2714  0.1102
  100OSM      N 9978   5.853   2.324  11.256  0.2077  0.4133  0.1753
  100OSM    C15 9979   5.763   2.202  11.273  0.8818 -0.4818  0.5714
  100OSM   H15A 9980   5.675   2.217  11.333 -0.0960 -1.7132 -0.4917
  100OSM   H15B 9981   5.810   2.113  11.310 -1.1694 -1.3883  1.1325
  100OSM   H15C 9982   5.714   2.192  11.177  0.3196  1.2189  0.6431
  100OSM    C14 9983   5.772   2.452  11.237  0.1569  0.8160  0.1328
  100OSM   H14A 9984   5.752   2.457  11.131 -1.4752  0.4339  0.3962
  100OSM   H14B 9985   5.834   2.538  11.258 -0.8759  1.3845  0.9426
  100OSM   H14C 9986   5.681   2.462  11.295  0.8610  0.8732  1.2477
  100OSM    C13 9987   5.930   2.333  11.383  0.2431 -0.1265  0.5287
  100OSM   H13A 9988   5.865   2.370  11.462 -0.5219  0.9040 -0.5461
  100OSM   H13B 9989   6.008   2.406  11.366 -0.3979  0.6145  0.7292
  100OSM   H13C 9990   5.965   2.236  11.414  3.7279 -0.8587 -4.4368
  100OSM    C12 9991   5.943   2.307  11.132 -1.0064 -0.4165 -0.1945
  100OSM   H12A 9992   6.013   2.227  11.149  0.2783  0.9697  1.4682
  100OSM   H12B 9993   6.001   2.398  11.124 -1.1499 -0.1963  1.1217
  100OSM    C11 9994   5.876   2.282  10.999  0.8963 -0.1969 -0.4088
  100OSM   H11A 9995   5.821   2.187  11.013 -0.3153  0.7325  1.6383
  100OSM   H11B 9996   5.948   2.253  10.919 -3.0064 -2.4303 -3.4934
  100OSM      P 9997   5.787   2.439  10.814 -0.0054  0.2367 -0.5963
  100OSM    O13 9998   5.707   2.342  10.742  0.5977  0.2225 -0.5465
  100OSM    O14 9999   5.728   2.578  10.827 -0.0308 -0.3950 -0.4714
  100OSM    O1110000   5.939   2.446  10.768 -0.5447  0.1387  0.0105
  100OSM    O1210001   5.789   2.383  10.964  0.4166  0.2961 -0.6312
  100OSM    C1S10002   5.977   2.363  10.651 -0.4822  0.3048 -0.1625
  100OSM    H1S10003   5.930   2.262  10.652 -1.5230  0.7837  0.9743
  100OSM    H1T10004   6.087   2.344  10.657 -0.1591  1.8239 -0.8451
  100OSM     NF10005   5.941   2.340  10.396  0.5640 -0.6998  0.3564
  100OSM    HNF10006   6.029   2.307  10.363  0.6003 -0.6131  0.3667
  100OSM    C2S10007   5.943   2.427  10.515  0.0658  0.0648 -0.1102
  100OSM    H2S10008   5.840   2.467  10.525 -0.7023 -0.8129 -3.3211
  100OSM    C3S10009   6.027   2.558  10.507  0.4232  0.2204 -0.0048
  100OSM    H3S10010   6.136   2.541  10.517  0.3175  0.7761  2.9920
  100OSM     O310011   5.998   2.654  10.611 -0.4216 -0.3225  0.1470
  100OSM    HO310012   5.945   2.610  10.678 -2.5265  0.6907 -0.7602
  100OSM    C4S10013   6.015   2.626  10.369 -0.3445 -0.2260 -0.3917
  100OSM    H4S10014   6.088   2.591  10.295  0.4416 -2.0263  1.1667
  100OSM    C5S10015   5.933   2.721  10.329  0.6880 -0.1077 -0.8337
  100OSM    H5S10016   5.861   2.765  10.400  0.8392 -1.6374  0.3117
  100OSM    C6S10017   5.925   2.785  10.191  0.1476 -1.1864  0.5364
  100OSM    H6S10018   5.935   2.893  10.212 -1.7098 -0.5000 -1.7174
  100OSM    H6T10019   5.830   2.774  10.134  0.3929 -2.3807  0.3240
  100OSM    C7S10020   6.044   2.751  10.091 -0.3506  0.0644  0.4864
  100OSM    H7S10021   6.030   2.650  10.048  1.8886 -0.3345  0.5783
  100OSM    H7T10022   6.138   2.767  10.148 -0.8067  2.0449  0.7425
  100OSM    C8S10023   6.055   2.851   9.981 -0.3333  0.7677 -0.1243
  100OSM    H8S10024   6.151   2.836   9.927 -0.9537 -1.4033 -0.7564
  100OSM    H8T10025   6.072   2.940  10.044 -2.2797  0.4721  0.8971
  100OSM    C9S10026   5.952   2.862   9.874 -0.4923  0.2144  0.3027
  100OSM    H9S10027   5.867   2.927   9.903 -0.1438  0.6409  0.3844
  100OSM    H9T10028   5.907   2.764   9.848 -0.9252 -0.1616  2.3299
  100OSM   C10S10029   6.002   2.926   9.741  0.1403 -0.2389  1.3260
  100OSM   H10S10030   6.072   2.853   9.694  0.4843  0.8716  0.0304
  100OSM   H10T10031   6.054   3.024   9.742 -1.6941  0.9185 -1.7048
  100OSM   C11S10032   5.890   2.940   9.644  0.4964  0.1425  0.5254
  100OSM   H11S10033   5.811   3.004   9.687  1.4235  0.8340  1.2550
  100OSM   H11T10034   5.858   2.838   9.613  0.5761 -0.2479  1.6931
  100OSM   C12S10035   5.929   3.026   9.519 -0.2099 -0.0621 -1.3095
  100OSM   H12S10036   5.966   3.124   9.555 -0.5839  0.0597 -1.2597
  100OSM   H12T10037   5.828   3.045   9.476 -1.3317 -0.7423  0.8630
  100OSM   C13S10038   6.028   2.970   9.416  0.1210 -0.2504  0.6063
  100OSM   H13S10039   6.096   2.900   9.469  0.7814  0.4667  0.7335
  100OSM   H13T10040   6.085   3.056   9.374  0.6759 -0.1547  1.5156
  100OSM   C14S10041   5.960   2.889   9.301  0.3974 -0.4599  0.0183
  100OSM   H14S10042   6.051   2.847   9.253  1.6118  2.3319 -0.2917
  100OSM   H14T10043   5.913   2.957   9.227  0.2762 -0.6013 -0.0362
  100OSM   C15S10044   5.860   2.776   9.331  0.2062  0.0493 -0.6596
  100OSM   H15S10045   5.768   2.818   9.378  2.5830  3.4964  1.3421
  100OSM   H15T10046   5.916   2.708   9.399  1.7362  2.2806  0.4186
  100OSM   C16S10047   5.832   2.683   9.207 -0.0211 -0.0010 -0.1058
  100OSM   H16S10048   5.759   2.602   9.229  0.5378 -0.1233  1.4432
  100OSM   H16T10049   5.920   2.631   9.165  0.3080 -0.8192  1.5010
  100OSM   C17S10050   5.771   2.771   9.093 -0.9950  0.0977 -0.0299
  100OSM   H17S10051   5.838   2.852   9.059 -0.8433  0.2256  0.5614
  100OSM   H17T10052   5.689   2.818   9.151 -0.1789 -0.0039  1.2383
  100OSM   C18S10053   5.714   2.691   8.977 -0.1095  0.3181 -0.3699
  100OSM   H18S10054   5.660   2.595   8.997  0.6307 -0.1872 -0.7347
  100OSM   H18T10055   5.792   2.662   8.903 -0.5932  1.2524 -1.2760
  100OSM   H18U10056   5.649   2.761   8.921 -1.1695  0.8599  1.4831
  100OSM    C1F10057   5.837   2.260  10.382 -0.0070 -0.4200  0.4833
  100OSM     OF10058   5.740   2.269  10.453  0.1077  0.0392 -0.9001
  100OSM    C2F10059   5.849   2.148  10.282 -0.3889  0.7233  0.2669
  100OSM    H2F10060   5.754   2.091  10.271  0.6434 -1.0889  0.3680
  100OSM    H2G10061   5.921   2.076  10.327  0.2594  1.7184  0.8538
  100OSM    C3F10062   5.897   2.213  10.149 -0.3892  0.8793 -0.8897
  100OSM    H3F10063   5.927   2.133  10.079  0.9975  2.5970 -2.3692
  100OSM    H3G10064   5.992   2.269  10.162  0.4529 -0.6103 -0.3768
  100OSM    C4F10065   5.809   2.313  10.080  0.3381 -0.0675  0.5052
  100OSM    H4F10066   5.803   2.404  10.143 -0.4938 -2.6602  4.5431
  100OSM    H4G10067   5.708   2.269  10.063  0.2454  0.7040 -1.1164
  100OSM    C5F10068   5.877   2.347   9.947 -0.2011 -0.0007 -0.2432
  100OSM    H5F10069   5.888   2.257   9.883  0.0304 -1.7178  2.0983
  100OSM    H5G10070   5.979   2.384   9.973 -0.7655  2.0390 -0.7346
  100OSM    C6F10071   5.815   2.476   9.877  0.2247  0.1085 -0.5626
  100OSM    H6F10072   5.874   2.474   9.783  1.5652  0.9747  0.2307
  100OSM    H6G10073   5.835   2.562   9.945  0.9971  0.6396 -1.4437
  100OSM    C7F10074   5.657   2.475   9.851  0.0439  0.3118 -0.1660
  100OSM    H7F10075   5.603   2.478   9.948  0.7323  1.2345  0.2093
  100OSM    H7G10076   5.631   2.375   9.813 -1.9790 -0.1190  2.1198
  100OSM    C8F10077   5.607   2.579   9.749  0.7738  0.1014 -0.6189
  100OSM    H8F10078   5.614   2.683   9.790  1.5266 -0.4448  0.7089
  100OSM    H8G10079   5.500   2.550   9.758  1.1954 -0.9032  2.9232
  100OSM    C9F10080   5.664   2.575   9.607 -0.1910 -0.5709 -0.6472
  100OSM    H9F10081   5.757   2.628   9.582 -0.0274 -1.0198 -0.9962
  100OSM   C10F10082   5.615   2.513   9.498 -0.2777  0.4621  0.3275
  100OSM   H10F10083   5.669   2.518   9.402 -1.7617  2.6407 -0.4656
  100OSM   C11F10084   5.494   2.424   9.503 -0.2403 -0.0427  0.7265
  100OSM   H11F10085   5.459   2.403   9.606  0.6789 -1.2503  0.8069
  100OSM   H11G10086   5.523   2.326   9.460 -2.0458 -0.0726 -0.5602
  100OSM   C12F10087   5.370   2.480   9.431 -0.0878  0.0688  0.4466
  100OSM   H12F10088   5.329   2.572   9.478  0.7941  0.5299  0.3445
  100OSM   H12G10089   5.286   2.409   9.443 -0.8949  0.8076 -0.6453
  100OSM   C13F10090   5.388   2.492   9.279 -0.3900 -0.0267 -1.4994
  100OSM   H13F10091   5.418   2.393   9.237 -0.4957 -2.0281  2.6345
  100OSM   H13G10092   5.473   2.563   9.270  1.6317 -1.9718  0.8180
  100OSM   C14F10093   5.262   2.539   9.206  1.0612 -0.0731  0.0656
  100OSM   H14F10094   5.220   2.633   9.250 -0.2902 -0.5755 -0.1111
  100OSM   H14G10095   5.185   2.462   9.225  0.4521 -0.0646 -2.1356
  100OSM   C15F10096   5.291   2.563   9.062  0.1796 -0.3592  0.2184
  100OSM   H15F10097   5.335   2.471   9.016 -0.8719 -0.0968 -1.4102
  100OSM   H15G10098   5.363   2.644   9.038 -0.7494  0.0460 -1.3066
  100OSM   C16F10099   5.164   2.581   8.976  0.8628 -0.3663  0.0928
  100OSM   H16F10100   5.124   2.683   8.995  1.7228  0.2504 -1.1885
  100OSM   H16G10101   5.089   2.508   9.011 -0.4662  1.4439  1.1821
  100OSM   C17F10102   5.182   2.563   8.825  0.1107  0.6192 -0.2713
  100OSM   H17F10103   5.097   2.497   8.798  1.0055 -0.9276  0.6171
  100OSM   H17G10104   5.273   2.506   8.800  0.8416 -0.6500  4.2655
  100OSM   C18F10105   5.165   2.703   8.769 -0.1585  0.3748 -0.5436
  100OSM   H18F10106   5.073   2.755   8.804  0.8306  1.0206  1.2195
  100OSM   H18G10107   5.172   2.700   8.658  0.1270 -0.8086 -0.5037
  100OSM   H18H10108   5.250   2.769   8.796 -0.7686  0.9185  0.1047
  101OSM      N10109   1.829   2.503  11.299  0.4343  0.3537 -0.8064
  101OSM    C1510110   1.789   2.393  11.390 -0.0889  0.2853 -0.1637
  101OSM   H15A10111   1.872   2.324  11.394  0.8747  1.2790 -1.9559
  101OSM   H15B10112   1.709   2.331  11.352 -0.7862 -0.1139  1.8389
  101OSM   H15C10113   1.771   2.434  11.489 -2.3345  2.7222 -1.4605
  101OSM    C1410114   1.709   2.572  11.255  0.4493  0.0475 -0.9687
  101OSM   H14A10115   1.734   2.644  11.178  1.1279  0.3747 -0.4498
  101OSM   H14B10116   1.665   2.626  11.338  1.0304 -1.7052  0.5266
  101OSM   H14C10117   1.637   2.505  11.211  0.7625 -1.3697  0.5865
  101OSM    C1310118   1.919   2.591  11.375  0.4218 -0.0695  0.0669
  101OSM   H13A10119   1.979   2.658  11.314  1.3754  0.1947  1.2639
  101OSM   H13B10120   1.998   2.531  11.418  0.7282 -1.5206 -2.3115
  101OSM   H13C10121   1.873   2.643  11.457  2.9660  0.5190  1.1991
  101OSM    C1210122   1.910   2.438  11.186  0.1569 -0.1264 -0.8108
  101OSM   H12A10123   1.842   2.366  11.142  0.1534 -0.1282 -0.8023
  101OSM   H12B10124   1.994   2.390  11.234 -0.2080 -0.1729 -0.2079
  101OSM    C1110125   1.961   2.529  11.073 -0.2813  0.9745 -0.7093
  101OSM   H11A10126   2.020   2.465  11.004 -3.2840 -2.7523 -0.1518
  101OSM   H11B10127   2.028   2.601  11.125  1.8067 -0.3257 -1.4974
  101OSM      P10128   1.787   2.512  10.898 -0.2577  0.1143  0.1529
  101OSM    O1310129   1.779   2.371  10.946 -0.4854 -0.2891 -0.1576
  101OSM    O1410130   1.658   2.575  10.866 -0.5199 -0.2084  0.4433
  101OSM    O1110131   1.882   2.511  10.775 -0.3840  0.5320  0.0304
  101OSM    O1210132   1.857   2.600  11.007 -0.5509  0.3497 -0.0522
  101OSM    C1S10133   1.943   2.625  10.726 -0.9952  0.1541 -0.2675
  101OSM    H1S10134   2.023   2.657  10.796 -0.6948 -2.3985  0.6703
  101OSM    H1T10135   1.873   2.712  10.724 -2.1280 -0.6766  1.1711
  101OSM     NF10136   2.043   2.744  10.549  0.3349 -0.8143  0.0013
  101OSM    HNF10137   1.996   2.822  10.510 -0.0519 -0.8646  0.3526
  101OSM    C2S10138   1.989   2.616  10.582  0.5613  0.1052 -0.4531
  101OSM    H2S10139   2.071   2.541  10.572  0.5248  0.3210 -3.0427
  101OSM    C3S10140   1.881   2.575  10.479  0.2638  0.8402 -0.2162
  101OSM    H3S10141   1.806   2.658  10.477 -0.7002  0.0579  1.5937
  101OSM     O310142   1.798   2.462  10.517  0.1128 -0.2114 -0.3836
  101OSM    HO310143   1.832   2.447  10.605 -0.3491 -0.6371 -0.2755
  101OSM    C4S10144   1.933   2.571  10.341 -0.2845 -0.2738  0.0321
  101OSM    H4S10145   1.921   2.671  10.296 -2.4303 -1.2618 -1.7856
  101OSM    C5S10146   1.971   2.469  10.265 -0.1217  0.1038 -0.1176
  101OSM    H5S10147   1.972   2.365  10.304  1.2966  0.5961  1.3014
  101OSM    C6S10148   2.002   2.477  10.120 -0.3206  0.4926 -0.1960
  101OSM    H6S10149   1.907   2.465  10.064  0.4019 -2.6000 -0.9349
  101OSM    H6T10150   2.069   2.392  10.095 -1.9717 -0.9587  0.1601
  101OSM    C7S10151   2.083   2.599  10.087 -0.0152 -0.0515 -0.6535
  101OSM    H7S10152   2.154   2.626  10.169 -1.5420 -2.0361  1.4352
  101OSM    H7T10153   2.009   2.682  10.076 -1.1758 -0.8147  1.0751
  101OSM    C8S10154   2.163   2.592   9.954  0.1413  0.2992  0.2583
  101OSM    H8S10155   2.209   2.491   9.945 -1.0077 -0.0739 -2.5264
  101OSM    H8T10156   2.228   2.682   9.953 -1.2337  1.3657 -2.4035
  101OSM    C9S10157   2.068   2.602   9.829 -0.0823 -0.4477 -0.2984
  101OSM    H9S10158   2.013   2.698   9.829  0.2640 -0.2367  0.7308
  101OSM    H9T10159   1.991   2.522   9.834  1.6109 -2.1117  0.6785
  101OSM   C10S10160   2.147   2.602   9.695  0.7761  0.3088 -0.5013
  101OSM   H10S10161   2.243   2.656   9.709  1.2820 -0.1151 -2.0723
  101OSM   H10T10162   2.093   2.672   9.628  0.4156  0.7782  0.2657
  101OSM   C11S10163   2.162   2.450   9.655 -0.2915  0.5852  0.2706
  101OSM   H11S10164   2.069   2.392   9.668 -0.5471  1.0029  0.3277
  101OSM   H11T10165   2.238   2.409   9.725 -1.2406  2.2930  2.4198
  101OSM   C12S10166   2.207   2.425   9.513  0.1545 -0.0006  0.1438
  101OSM   H12S10167   2.317   2.444   9.505  0.2493 -1.2882 -2.5902
  101OSM   H12T10168   2.159   2.506   9.454 -1.0121 -0.5775  0.2767
  101OSM   C13S10169   2.176   2.291   9.451  0.9990 -0.1361  0.2063
  101OSM   H13S10170   2.084   2.249   9.497  1.9583 -2.6365  0.0109
  101OSM   H13T10171   2.256   2.215   9.467 -0.2432 -2.5693 -3.8620
  101OSM   C14S10172   2.156   2.296   9.299  0.4039  0.3786 -0.3257
  101OSM   H14S10173   2.252   2.320   9.250  0.3701  0.4463 -0.3583
  101OSM   H14T10174   2.089   2.380   9.271  0.4299  0.4272 -0.2415
  101OSM   C15S10175   2.098   2.161   9.245 -0.3212 -0.1324 -0.1798
  101OSM   H15S10176   1.997   2.133   9.282 -0.4653 -0.4168 -0.7848
  101OSM   H15T10177   2.180   2.093   9.277 -0.4953  0.0888  0.7762
  101OSM   C16S10178   2.093   2.162   9.089 -0.2902 -0.5855  0.0216
  101OSM   H16S10179   2.195   2.180   9.048  0.6771 -1.6483  1.8669
  101OSM   H16T10180   2.032   2.247   9.051 -0.6241 -0.2177  1.3303
  101OSM   C17S10181   2.059   2.027   9.024 -0.5671  0.0838 -0.0375
  101OSM   H17S10182   1.948   2.024   9.022 -0.5466 -2.0962 -0.6503
  101OSM   H17T10183   2.094   1.960   9.106 -1.0912 -1.6411 -1.1580
  101OSM   C18S10184   2.123   1.999   8.886 -0.6943  0.1679 -0.0884
  101OSM   H18S10185   2.071   2.053   8.804 -0.2325 -0.3825 -0.7624
  101OSM   H18T10186   2.110   1.892   8.858 -0.8482  0.4942 -1.3224
  101OSM   H18U10187   2.233   2.013   8.891 -0.6749  0.0861 -0.2763
  101OSM    C1F10188   2.163   2.784  10.594 -0.3874  0.6657  0.9611
  101OSM     OF10189   2.229   2.703  10.663  0.3256 -0.1022 -0.0350
  101OSM    C2F10190   2.224   2.925  10.571  0.3147  0.8951  0.5368
  101OSM    H2F10191   2.227   2.974  10.671 -1.0449  2.0646  0.0238
  101OSM    H2G10192   2.151   2.995  10.526 -0.4276  0.4563  1.0430
  101OSM    C3F10193   2.357   2.922  10.499 -0.5932  0.2380  0.8337
  101OSM    H3F10194   2.419   2.848  10.555 -0.2778  0.2155  0.4651
  101OSM    H3G10195   2.420   3.012  10.517  0.2890 -0.6761  2.6232
  101OSM    C4F10196   2.359   2.879  10.356 -1.2615 -0.0447  0.1664
  101OSM    H4F10197   2.312   2.959  10.295  1.0176  0.9674 -0.3884
  101OSM    H4G10198   2.300   2.785  10.345 -1.5243  0.1706 -0.3155
  101OSM    C5F10199   2.499   2.870  10.298 -0.5423  0.2338  0.0184
  101OSM    H5F10200   2.566   2.806  10.360  0.8610  1.1907 -0.4468
  101OSM    H5G10201   2.546   2.970  10.291 -0.0121 -0.0391 -0.4851
  101OSM    C6F10202   2.491   2.822  10.155  0.0349 -0.0739 -0.3356
  101OSM    H6F10203   2.412   2.749  10.127 -0.1957  0.2807 -0.6204
  101OSM    H6G10204   2.467   2.907  10.088  1.5699 -0.7235 -1.7752
  101OSM    C7F10205   2.622   2.753  10.120 -0.3744 -0.3458 -0.6729
  101OSM    H7F10206   2.625   2.655  10.173 -1.7725  0.0889  0.2642
  101OSM    H7G10207   2.716   2.799  10.156  0.2649 -2.5161  0.6241
  101OSM    C8F10208   2.641   2.751   9.964  0.0770 -0.6069 -0.2903
  101OSM    H8F10209   2.743   2.720   9.936 -0.5932 -1.6760 -1.6791
  101OSM    H8G10210   2.620   2.856   9.934 -0.9474 -0.4678  0.8390
  101OSM    C9F10211   2.539   2.668   9.886  0.4388 -0.0096  0.4581
  101OSM    H9F10212   2.438   2.665   9.928  0.1936  2.3387  0.1334
  101OSM   C10F10213   2.561   2.595   9.774  0.8704  0.1359 -0.3018
  101OSM   H10F10214   2.478   2.532   9.738 -0.2359  1.4490 -0.1379
  101OSM   C11F10215   2.690   2.580   9.694  0.5138 -0.3072 -0.1726
  101OSM   H11F10216   2.695   2.479   9.648 -0.0950 -0.3190 -0.2096
  101OSM   H11G10217   2.783   2.585   9.756  1.8777  1.1414 -2.2300
  101OSM   C12F10218   2.699   2.682   9.572  0.0106 -0.0679  0.0547
  101OSM   H12F10219   2.795   2.660   9.521 -0.3990  0.7857 -1.1369
  101OSM   H12G10220   2.710   2.787   9.606 -3.7557  0.7538 -0.8440
  101OSM   C13F10221   2.593   2.675   9.464  0.5646  0.1981  0.4510
  101OSM   H13F10222   2.531   2.767   9.470  0.0631 -0.2016  1.6323
  101OSM   H13G10223   2.520   2.593   9.485 -0.1749  0.4500 -0.9888
  101OSM   C14F10224   2.643   2.641   9.322 -0.4428 -0.0835  0.5272
  101OSM   H14F10225   2.671   2.534   9.308  1.4514  0.4615 -0.0916
  101OSM   H14G10226   2.740   2.696   9.315  0.1916 -1.3541 -1.3697
  101OSM   C15F10227   2.557   2.700   9.215 -0.2391  0.4968 -0.2965
  101OSM   H15F10228   2.611   2.703   9.118  0.5202 -0.1788  0.0989
  101OSM   H15G10229   2.526   2.804   9.239  1.1423  0.6604  0.9223
  101OSM   C16F10230   2.425   2.622   9.191 -0.0554 -0.0394 -0.5285
  101OSM   H16F10231   2.370   2.618   9.287 -0.4768  2.5185 -0.5876
  101OSM   H16G10232   2.454   2.518   9.165 -0.6678 -0.8620  1.8730
  101OSM   C17F10233   2.339   2.699   9.090 -0.9738  0.7784 -0.2054
  101OSM   H17F10234   2.397   2.717   8.998 -0.7862 -0.8834 -0.4519
  101OSM   H17G10235   2.319   2.799   9.133  0.8538  0.6670  1.0129
  101OSM   C18F10236   2.211   2.626   9.053 -0.5195  0.5155 -0.6232
  101OSM   H18F10237   2.240   2.523   9.022  0.7560  1.0245 -1.1948
  101OSM   H18G10238   2.163   2.679   8.968 -0.3165  0.4886 -0.7548
  101OSM   H18H10239   2.144   2.626   9.142 -1.4478  0.1873 -1.3086
  102OSM      N10240   3.540   4.610  10.702  0.6650  0.5518  0.0882
  102OSM    C1510241   3.437   4.506  10.684 -0.5683  0.6267 -0.7257
  102OSM   H15A10242   3.481   4.409  10.667 -0.2127  0.7176 -0.3455
  102OSM   H15B10243   3.360   4.524  10.611  0.7872  0.8387 -2.1489
  102OSM   H15C10244   3.377   4.503  10.774 -0.4516 -1.2198 -0.6769
  102OSM    C1410245   3.473   4.742  10.728 -0.3571 -0.1944 -0.1535
  102OSM   H14A10246   3.386   4.719  10.788 -2.6857  0.1532 -3.1668
  102OSM   H14B10247   3.439   4.787  10.636 -2.5173 -3.1503 -0.9503
  102OSM   H14C10248   3.537   4.813  10.778 -0.8252 -0.6209  1.1190
  102OSM    C1310249   3.623   4.580  10.827 -0.0501  0.3261  0.2788
  102OSM   H13A10250   3.670   4.484  10.813 -0.9357 -0.3329  1.6798
  102OSM   H13B10251   3.573   4.572  10.922  0.5711  0.4588  0.6149
  102OSM   H13C10252   3.697   4.657  10.844 -0.2041  0.2400  1.4141
  102OSM    C1210253   3.625   4.612  10.579  0.0666  0.2718  0.8816
  102OSM   H12A10254   3.702   4.687  10.575 -0.9188  1.2892 -2.1045
  102OSM   H12B10255   3.555   4.645  10.503 -0.9934 -0.5996  1.4407
  102OSM    C1110256   3.698   4.485  10.525 -0.0496  0.0020 -0.1294
  102OSM   H11A10257   3.747   4.501  10.427  0.3470  0.4278  0.1329
  102OSM   H11B10258   3.623   4.404  10.511 -0.3968  0.3810 -0.4771
  102OSM      P10259   3.929   4.527  10.636 -0.1489 -0.0255 -0.4192
  102OSM    O1310260   3.904   4.603  10.763 -0.3156 -0.4527  0.0811
  102OSM    O1410261   4.051   4.446  10.626 -0.4048 -0.0870  0.3686
  102OSM    O1110262   3.933   4.630  10.514 -0.0044  0.0861  0.6051
  102OSM    O1210263   3.805   4.440  10.603  0.6897 -0.5259  0.2105
  102OSM    C1S10264   4.048   4.710  10.492 -1.0217  0.8303  0.9236
  102OSM    H1S10265   4.141   4.660  10.528 -0.4045  1.2073 -0.1159
  102OSM    H1T10266   4.040   4.813  10.534  0.5283  0.1231  3.1693
  102OSM     NF10267   4.205   4.787  10.315 -0.1184  0.2208  0.2817
  102OSM    HNF10268   4.218   4.885  10.303  0.3588  0.2745  1.1362
  102OSM    C2S10269   4.070   4.733  10.332 -0.0055  0.1167  0.4488
  102OSM    H2S10270   4.074   4.632  10.284  2.1387  0.1203  0.5264
  102OSM    C3S10271   3.951   4.812  10.267 -0.7150  0.4720 -0.0883
  102OSM    H3S10272   3.958   4.909  10.322  0.9164  0.6832 -0.6173
  102OSM     O310273   3.832   4.744  10.287 -0.1405  0.2331  0.1522
  102OSM    HO310274   3.847   4.683  10.359 -0.2489  1.7300  1.5159
  102OSM    C4S10275   3.971   4.846  10.120 -0.4000 -0.3436 -0.1606
  102OSM    H4S10276   3.939   4.770  10.048 -0.6404 -1.8458  1.4694
  102OSM    C5S10277   4.018   4.970  10.075 -0.2479 -0.3601 -0.0916
  102OSM    H5S10278   4.055   5.053  10.138 -1.1957 -0.3939  0.5400
  102OSM    C6S10279   4.041   4.991   9.925  0.5455 -0.2227 -0.4070
  102OSM    H6S10280   3.996   5.090   9.900  1.3596  0.5892  1.1229
  102OSM    H6T10281   3.981   4.914   9.874 -0.9253 -1.5831  3.0507
  102OSM    C7S10282   4.191   5.005   9.881  0.0340 -1.6054  0.1295
  102OSM    H7S10283   4.244   4.909   9.862  0.2019 -1.5164  0.1416
  102OSM    H7T10284   4.257   5.071   9.942 -0.2360  0.3212 -1.5446
  102OSM    C8S10285   4.196   5.074   9.743  0.3431 -0.2667  0.3686
  102OSM    H8S10286   4.180   5.184   9.747  4.0209  0.4158  0.0401
  102OSM    H8T10287   4.118   5.033   9.675  0.1655  0.5712  0.0491
  102OSM    C9S10288   4.326   5.058   9.659  0.5445  0.8926 -0.4857
  102OSM    H9S10289   4.351   4.952   9.637  2.8276  0.6664  2.4872
  102OSM    H9T10290   4.418   5.082   9.718  0.0491  1.1438  0.2088
  102OSM   C10S10291   4.328   5.144   9.530  0.2705  0.1983  0.2710
  102OSM   H10S10292   4.312   5.250   9.556  0.2228  0.6176 -1.3457
  102OSM   H10T10293   4.237   5.121   9.470 -0.2655 -0.2199  1.2265
  102OSM   C11S10294   4.448   5.127   9.450 -0.1206 -0.4516 -0.0134
  102OSM   H11S10295   4.468   5.020   9.424  1.4980 -0.3023  0.4866
  102OSM   H11T10296   4.536   5.165   9.506 -2.0220  1.9738  1.5209
  102OSM   C12S10297   4.448   5.197   9.308  0.0005 -0.6394 -0.6142
  102OSM   H12S10298   4.448   5.307   9.319 -0.4207 -0.6303 -0.6984
  102OSM   H12T10299   4.349   5.175   9.263 -1.4642  2.8674  0.6016
  102OSM   C13S10300   4.547   5.140   9.210  0.5329 -0.2748  0.5195
  102OSM   H13S10301   4.525   5.032   9.197  0.5313 -0.1878 -0.2365
  102OSM   H13T10302   4.651   5.143   9.248  0.5589 -0.4756  0.4652
  102OSM   C14S10303   4.536   5.203   9.069 -0.9752  0.2156 -0.3899
  102OSM   H14S10304   4.626   5.269   9.076 -1.0199  0.2111  0.3066
  102OSM   H14T10305   4.448   5.270   9.079  0.1824  2.0696 -1.7875
  102OSM   C15S10306   4.544   5.102   8.953 -0.2584  0.0534  0.0924
  102OSM   H15S10307   4.457   5.033   8.959  0.1856 -0.3914  2.6241
  102OSM   H15T10308   4.634   5.038   8.970  0.2530  0.8815  0.5635
  102OSM   C16S10309   4.552   5.192   8.828 -0.1461 -0.1420 -0.4848
  102OSM   H16S10310   4.575   5.115   8.751 -2.1026 -1.6920  0.3586
  102OSM   H16T10311   4.616   5.282   8.828  1.0383 -0.9556 -0.0322
  102OSM   C17S10312   4.411   5.235   8.802 -0.4123 -1.0574  0.5067
  102OSM   H17S10313   4.384   5.311   8.878  0.1610 -1.7194  1.3946
  102OSM   H17T10314   4.343   5.148   8.790 -2.4009  0.5483 -0.5430
  102OSM   C18S10315   4.399   5.306   8.664 -0.1108  0.0833  0.3591
  102OSM   H18S10316   4.298   5.322   8.622 -0.6341  0.7546  1.8319
  102OSM   H18T10317   4.453   5.233   8.599  0.7584 -0.1679  1.3394
  102OSM   H18U10318   4.451   5.404   8.668 -0.3038  0.1458  1.7143
  102OSM    C1F10319   4.313   4.717  10.344 -0.6648  0.4617 -0.4882
  102OSM     OF10320   4.304   4.599  10.373  0.7125  0.5190  0.6360
  102OSM    C2F10321   4.444   4.786  10.322  0.0732  0.0427 -0.6656
  102OSM    H2F10322   4.503   4.776  10.416 -3.1859  0.6515  1.6443
  102OSM    H2G10323   4.420   4.893  10.305 -2.1107 -0.1083  0.9022
  102OSM    C3F10324   4.541   4.745  10.203  0.1180  0.2377 -0.2022
  102OSM    H3F10325   4.558   4.637  10.225  0.8198  0.0018 -1.7208
  102OSM    H3G10326   4.645   4.782  10.216  0.4836 -0.7865 -0.0992
  102OSM    C4F10327   4.486   4.783  10.065  0.7738  0.0057 -0.4872
  102OSM    H4F10328   4.486   4.894  10.060  1.0916 -0.0087 -0.8869
  102OSM    H4G10329   4.380   4.752  10.057  0.3466  1.2923 -0.1268
  102OSM    C5F10330   4.563   4.726   9.951  0.2145  0.2709 -0.1493
  102OSM    H5F10331   4.573   4.615   9.960  0.2194  0.3327  0.7667
  102OSM    H5G10332   4.667   4.759   9.967  2.3395 -3.7662 -3.5784
  102OSM    C6F10333   4.524   4.774   9.807 -0.7900  0.1077 -0.0582
  102OSM    H6F10334   4.501   4.882   9.820 -1.0160  0.1514 -0.7380
  102OSM    H6G10335   4.424   4.730   9.787 -0.6338  0.3198 -1.4648
  102OSM    C7F10336   4.612   4.735   9.690  0.0693 -0.2693 -0.5829
  102OSM    H7F10337   4.625   4.626   9.675  1.5711 -0.4661  1.6880
  102OSM    H7G10338   4.718   4.764   9.707  0.1244 -1.4103  1.3254
  102OSM    C8F10339   4.580   4.792   9.547  0.5342  0.1519 -0.1328
  102OSM    H8F10340   4.680   4.790   9.500  0.5824  1.2343 -0.0954
  102OSM    H8G10341   4.546   4.898   9.551 -1.1582 -0.3183 -1.3608
  102OSM    C9F10342   4.476   4.729   9.470  0.0105 -0.7706  0.0639
  102OSM    H9F10343   4.379   4.757   9.514 -0.7616  0.7879 -2.3933
  102OSM   C10F10344   4.480   4.650   9.358  0.1621 -0.2142  1.1029
  102OSM   H10F10345   4.390   4.628   9.298  1.5513 -0.4753 -0.9640
  102OSM   C11F10346   4.608   4.610   9.296 -0.3497  0.1013  0.4875
  102OSM   H11F10347   4.620   4.499   9.287 -1.6207 -0.0365  0.2614
  102OSM   H11G10348   4.702   4.641   9.346 -0.5645  0.7691  0.4774
  102OSM   C12F10349   4.608   4.676   9.154 -0.1990  0.0442 -0.4523
  102OSM   H12F10350   4.611   4.787   9.164  1.6162 -0.0031  0.0515
  102OSM   H12G10351   4.521   4.642   9.095  0.3706 -0.8877 -0.7702
  102OSM   C13F10352   4.731   4.628   9.074  0.4856 -0.5357  0.6907
  102OSM   H13F10353   4.732   4.517   9.087 -1.5219 -0.6705  0.0293
  102OSM   H13G10354   4.830   4.669   9.102  0.8827 -0.9147 -0.1369
  102OSM   C14F10355   4.710   4.658   8.921 -0.1763  0.5448  0.4309
  102OSM   H14F10356   4.683   4.765   8.910 -3.6937 -0.0062  2.3982
  102OSM   H14G10357   4.610   4.617   8.898  0.4673  0.4321 -2.6336
  102OSM   C15F10358   4.814   4.593   8.822  0.2607  0.0996 -1.1679
  102OSM   H15F10359   4.771   4.595   8.719 -0.6543 -1.8384 -0.8574
  102OSM   H15G10360   4.818   4.484   8.843 -1.9949 -0.0631 -1.2712
  102OSM   C16F10361   4.954   4.649   8.838 -0.0683 -0.1174  0.3114
  102OSM   H16F10362   5.009   4.628   8.744 -1.4022  0.7741 -0.7127
  102OSM   H16G10363   5.010   4.600   8.921  0.4922 -1.1466 -0.6525
  102OSM   C17F10364   4.955   4.807   8.848  1.0503 -0.2668 -0.2426
  102OSM   H17F10365   5.063   4.834   8.860  0.5197  1.9680  0.0218
  102OSM   H17G10366   4.882   4.847   8.921  1.1621  3.5315 -1.9399
  102OSM   C18F10367   4.907   4.876   8.713 -0.5474 -0.1650 -0.5882
  102OSM   H18F10368   4.808   4.840   8.677  0.0194 -2.2793 -0.1621
  102OSM   H18G10369   4.997   4.885   8.650 -1.7525  0.9362 -2.2389
  102OSM   H18H10370   4.889   4.984   8.736 -0.9545  0.3935 -3.2302
  103OSM      N10371   3.852   1.018  10.812 -0.1359 -0.1023 -0.0343
  103OSM    C1510372   3.892   1.132  10.905 -0.5513 -0.0753 -0.1506
  103OSM   H15A10373   3.998   1.142  10.886 -0.0303 -2.8374  0.7923
  103OSM   H15B10374   3.869   1.110  11.008 -0.5505 -1.9946 -0.5176
  103OSM   H15C10375   3.839   1.224  10.888  0.4865  1.1547  2.5836
  103OSM    C1410376   3.911   1.040  10.676 -0.4946  0.7269 -0.1093
  103OSM   H14A10377   3.873   0.967  10.607  0.7184 -0.3201  0.2927
  103OSM   H14B10378   4.018   1.027  10.680 -0.8813 -3.9766 -0.4044
  103OSM   H14C10379   3.895   1.139  10.634  2.2753  2.0816  1.6998
  103OSM    C1310380   3.907   0.889  10.867 -0.4093 -0.3045 -0.3802
  103OSM   H13A10381   4.014   0.885  10.862 -0.4631 -2.9310 -0.5191
  103OSM   H13B10382   3.868   0.803  10.814 -2.0375  0.0648  0.1398
  103OSM   H13C10383   3.881   0.882  10.971  2.1456  2.0461  0.5480
  103OSM    C1210384   3.701   1.008  10.798 -0.4680 -0.1780  0.2613
  103OSM   H12A10385   3.665   1.011  10.899  0.1802  2.0013  0.4825
  103OSM   H12B10386   3.682   0.907  10.766 -0.3016  0.1586 -0.9749
  103OSM    C1110387   3.635   1.116  10.710  0.0429 -0.3199 -0.2673
  103OSM   H11A10388   3.530   1.084  10.695  0.3485 -1.2762 -0.4115
  103OSM   H11B10389   3.677   1.111  10.608 -2.1223 -0.0057 -1.2153
  103OSM      P10390   3.533   1.332  10.824 -0.0964  0.0168  0.0123
  103OSM    O1310391   3.507   1.296  10.962  0.7538  0.8801 -0.0360
  103OSM    O1410392   3.564   1.474  10.803 -0.1373 -0.4899  0.0452
  103OSM    O1110393   3.402   1.285  10.738  0.3955 -0.1222 -0.2819
  103OSM    O1210394   3.649   1.247  10.764  0.3434  0.2797 -0.0225
  103OSM    C1S10395   3.390   1.343  10.609 -0.4171 -0.4067 -0.4047
  103OSM    H1S10396   3.442   1.273  10.542  0.9133 -0.4787  0.6541
  103OSM    H1T10397   3.444   1.440  10.604 -0.7098 -0.2120  0.0620
  103OSM     NF10398   3.254   1.489  10.472 -0.3170 -0.2923 -0.5168
  103OSM    HNF10399   3.284   1.582  10.490  1.1707 -1.0394  1.2227
  103OSM    C2S10400   3.243   1.385  10.578  0.2630  0.6673  0.1164
  103OSM    H2S10401   3.185   1.299  10.538  1.6981 -0.2666 -0.0435
  103OSM    C3S10402   3.160   1.420  10.709 -0.2417 -0.9399 -0.3545
  103OSM    H3S10403   3.212   1.504  10.760 -1.8096  1.7181 -2.7955
  103OSM     O310404   3.149   1.319  10.814  0.6833  0.3288 -0.8586
  103OSM    HO310405   3.225   1.263  10.797  0.3010  0.1095 -1.9354
  103OSM    C4S10406   3.026   1.486  10.682  1.3546 -0.4748 -0.2992
  103OSM    H4S10407   3.029   1.595  10.664  2.0791 -0.7671 -2.1599
  103OSM    C5S10408   2.914   1.420  10.655 -0.3181 -0.5291  0.4483
  103OSM    H5S10409   2.914   1.310  10.661  0.1348 -0.5042  0.9743
  103OSM    C6S10410   2.784   1.476  10.607 -0.1371 -0.4898 -0.1047
  103OSM    H6S10411   2.789   1.585  10.630  0.6141 -1.0376  2.6671
  103OSM    H6T10412   2.690   1.436  10.652 -2.1993  3.7683 -0.1025
  103OSM    C7S10413   2.789   1.471  10.450 -0.5748 -0.5228 -0.5343
  103OSM    H7S10414   2.687   1.483  10.407  0.2679 -0.2128 -2.5702
  103OSM    H7T10415   2.811   1.370  10.409 -0.3917 -0.3480 -0.8737
  103OSM    C8S10416   2.892   1.569  10.381  0.7487  0.2066 -0.1795
  103OSM    H8S10417   2.997   1.545  10.408  1.5515  0.0705 -3.1052
  103OSM    H8T10418   2.882   1.671  10.426  1.7697  1.2921 -2.2855
  103OSM    C9S10419   2.882   1.573  10.231  0.9055  0.6495  0.3072
  103OSM    H9S10420   2.958   1.641  10.187  1.7621  0.1591  0.9820
  103OSM    H9T10421   2.780   1.610  10.208  0.3430 -1.1103 -0.1788
  103OSM   C10S10422   2.898   1.438  10.162  0.3991 -0.1097  0.0643
  103OSM   H10S10423   2.802   1.385  10.182 -0.9843  1.3240 -2.2597
  103OSM   H10T10424   2.992   1.393  10.199  1.2614  1.2956 -0.3433
  103OSM   C11S10425   2.910   1.445  10.000 -0.5351 -0.1096 -0.3483
  103OSM   H11S10426   3.011   1.483   9.975  0.5747 -2.1894  0.6910
  103OSM   H11T10427   2.838   1.526   9.976  0.8328  1.1908 -0.1518
  103OSM   C12S10428   2.890   1.309   9.935  0.0639  0.2859 -0.1806
  103OSM   H12S10429   2.789   1.274   9.965  0.1673 -2.3908 -2.6088
  103OSM   H12T10430   2.965   1.241   9.980  0.0989 -0.5309 -1.4453
  103OSM   C13S10431   2.907   1.314   9.779 -0.8590  0.1035 -0.2226
  103OSM   H13S10432   2.894   1.208   9.746 -0.4244 -0.0868  0.2147
  103OSM   H13T10433   3.012   1.327   9.747 -0.9870 -1.7481 -1.5537
  103OSM   C14S10434   2.823   1.405   9.697  0.2617  0.7353 -0.1658
  103OSM   H14S10435   2.847   1.506   9.736  0.9193  0.4948  0.0611
  103OSM   H14T10436   2.718   1.375   9.720  0.6980  1.0994  2.7098
  103OSM   C15S10437   2.835   1.388   9.542  0.2568  0.3905 -0.0671
  103OSM   H15S10438   2.746   1.429   9.491 -0.2196 -0.1558  0.3130
  103OSM   H15T10439   2.841   1.282   9.510 -0.9012  0.3161 -0.0612
  103OSM   C16S10440   2.967   1.461   9.496  0.7476  0.1766  0.2574
  103OSM   H16S10441   3.052   1.424   9.558 -0.2267 -0.5913  1.1804
  103OSM   H16T10442   2.956   1.567   9.527  1.1658 -0.1929  1.7678
  103OSM   C17S10443   2.980   1.441   9.347  0.2784 -0.9960 -0.2765
  103OSM   H17S10444   2.891   1.476   9.290  0.5718  2.8271  1.2823
  103OSM   H17T10445   3.001   1.333   9.331  0.5586 -0.7772 -1.4817
  103OSM   C18S10446   3.092   1.521   9.290  0.0082  0.1576  0.0106
  103OSM   H18S10447   3.193   1.499   9.331  0.4225  0.0126 -1.0716
  103OSM   H18T10448   3.075   1.630   9.307 -0.6811 -0.0677  0.8370
  103OSM   H18U10449   3.085   1.508   9.180 -2.6651 -1.2377  0.2718
  103OSM    C1F10450   3.252   1.449  10.346  0.1390 -0.7570 -0.1286
  103OSM     OF10451   3.228   1.333  10.311 -0.0901 -0.0727 -0.3392
  103OSM    C2F10452   3.285   1.561  10.244  0.5862  0.7060 -0.0444
  103OSM    H2F10453   3.393   1.581  10.264  0.5708  1.0750 -0.3315
  103OSM    H2G10454   3.220   1.645  10.273 -2.6649 -0.6841 -2.6614
  103OSM    C3F10455   3.271   1.515  10.104  0.1974  0.7679 -1.0393
  103OSM    H3F10456   3.162   1.494  10.091  0.3703 -1.0298  0.0131
  103OSM    H3G10457   3.321   1.418  10.084 -0.4293  0.8728 -3.3964
  103OSM    C4F10458   3.319   1.620  10.003  0.5001  0.3279  0.6654
  103OSM    H4F10459   3.430   1.628  10.009  0.6707 -1.9369  1.9019
  103OSM    H4G10460   3.274   1.720  10.017  0.3996  0.5379 -0.9861
  103OSM    C5F10461   3.303   1.576   9.855  0.2392 -0.3235 -0.3630
  103OSM    H5F10462   3.195   1.560   9.834  0.1652 -2.7900  1.4985
  103OSM    H5G10463   3.361   1.481   9.852  0.4119 -0.1891 -1.8042
  103OSM    C6F10464   3.364   1.671   9.757  0.4748 -0.2281 -0.0734
  103OSM    H6F10465   3.466   1.705   9.787  1.1272 -1.2895 -1.0127
  103OSM    H6G10466   3.303   1.764   9.764  3.5006  1.8107  1.2461
  103OSM    C7F10467   3.375   1.620   9.615 -0.2567  0.2478 -0.6544
  103OSM    H7F10468   3.270   1.607   9.580 -1.5063  0.9664  2.5416
  103OSM    H7G10469   3.417   1.516   9.614 -2.3895 -0.6651 -1.8246
  103OSM    C8F10470   3.450   1.703   9.514  0.2358 -0.5174 -0.0889
  103OSM    H8F10471   3.555   1.717   9.548 -0.2269  0.7401  0.9118
  103OSM    H8G10472   3.397   1.801   9.517  1.0330 -0.0799  0.1451
  103OSM    C9F10473   3.444   1.622   9.382  0.1098 -0.4018  0.5326
  103OSM    H9F10474   3.454   1.512   9.387 -2.0860 -0.7005 -0.5221
  103OSM   C10F10475   3.430   1.675   9.257  0.6540  0.6587  0.5186
  103OSM   H10F10476   3.445   1.612   9.168  2.4062  3.1445 -1.0828
  103OSM   C11F10477   3.420   1.821   9.224 -0.2395  0.0968  0.3759
  103OSM   H11F10478   3.426   1.885   9.314 -1.7650 -0.5921  1.0152
  103OSM   H11G10479   3.321   1.839   9.177 -0.1530 -2.8382 -1.1920
  103OSM   C12F10480   3.530   1.873   9.126 -1.1275 -0.4994 -0.2229
  103OSM   H12F10481   3.516   1.822   9.028 -2.0017 -0.4419 -0.1395
  103OSM   H12G10482   3.638   1.863   9.151 -0.5889  0.9146 -1.7985
  103OSM   C13F10483   3.512   2.028   9.103  0.0275  0.1327 -0.3193
  103OSM   H13F10484   3.611   2.077   9.094 -0.4959  1.5728  1.2749
  103OSM   H13G10485   3.467   2.065   9.197 -0.2145 -1.6900  0.3260
  103OSM   C14F10486   3.435   2.055   8.975 -0.5768  0.0935  1.0705
  103OSM   H14F10487   3.405   2.162   8.964 -0.9923 -0.0295  1.0286
  103OSM   H14G10488   3.352   1.986   8.950  0.4752 -0.0428 -2.7408
  103OSM   C15F10489   3.525   2.033   8.859  0.2385  1.0433 -0.0299
  103OSM   H15F10490   3.464   1.981   8.781  2.5631 -0.0353 -1.2245
  103OSM   H15G10491   3.606   1.962   8.884 -0.5551  0.2296  0.3058
  103OSM   C16F10492   3.591   2.165   8.809  0.2971  0.9639 -0.2986
  103OSM   H16F10493   3.668   2.193   8.884  0.9422 -0.1707 -0.5048
  103OSM   H16G10494   3.519   2.248   8.801  2.1203  2.7041  0.4427
  103OSM   C17F10495   3.670   2.148   8.675  0.0090 -0.1185 -0.1020
  103OSM   H17F10496   3.620   2.088   8.596  0.0776  1.3115 -1.2603
  103OSM   H17G10497   3.743   2.066   8.692 -1.4115 -1.9304 -2.2960
  103OSM   C18F10498   3.734   2.271   8.609  0.0135  0.3186  0.1553
  103OSM   H18F10499   3.794   2.329   8.682  2.4771  1.0224 -2.2486
  103OSM   H18G10500   3.659   2.348   8.577  1.0235  0.8731 -0.9685
  103OSM   H18H10501   3.797   2.241   8.522 -0.6783  1.7828 -0.8994
  104OSM      N10502   4.883   6.787  11.079 -0.7415 -0.2751 -0.5111
  104OSM    C1510503   4.989   6.721  11.163 -0.1926 -0.0028  0.1215
  104OSM   H15A10504   4.938   6.668  11.242 -2.4886 -2.0265 -2.4932
  104OSM   H15B10505   5.055   6.792  11.209 -1.0649 -1.2118  3.5219
  104OSM   H15C10506   5.051   6.645  11.116  3.3451  2.0299  1.1378
  104OSM    C1410507   4.765   6.693  11.068  0.8622  0.3004 -0.3419
  104OSM   H14A10508   4.771   6.613  10.996 -2.5709 -1.8283  1.4702
  104OSM   H14B10509   4.688   6.760  11.033  2.5940  2.4502 -0.2435
  104OSM   H14C10510   4.738   6.652  11.164 -0.1849  0.8669 -0.3846
  104OSM    C1310511   4.842   6.917  11.137 -0.1779  0.0291 -0.3815
  104OSM   H13A10512   4.929   6.967  11.176  0.4262  0.2505 -1.9359
  104OSM   H13B10513   4.770   6.910  11.217  1.7831 -0.7645  1.4025
  104OSM   H13C10514   4.805   6.992  11.069 -0.7957  1.4676  1.4519
  104OSM    C1210515   4.950   6.817  10.947 -0.0412  0.2458 -0.5342
  104OSM   H12A10516   4.987   6.728  10.899  2.8619  0.9884  0.1772
  104OSM   H12B10517   5.029   6.890  10.953  0.6577 -0.1814 -3.2236
  104OSM    C1110518   4.854   6.878  10.838 -0.1908  0.0656  0.0845
  104OSM   H11A10519   4.758   6.821  10.841  0.2053 -0.5803  1.4703
  104OSM   H11B10520   4.889   6.860  10.734 -2.1648  0.2091 -0.6474
  104OSM      P10521   4.939   7.124  10.832  0.0279  0.2828 -0.6218
  104OSM    O1310522   4.882   7.260  10.848  0.3047  0.0099  0.0673
  104OSM    O1410523   5.053   7.090  10.918 -0.0408 -0.2317  0.0108
  104OSM    O1110524   4.972   7.090  10.675  0.0276  0.2129 -0.1059
  104OSM    O1210525   4.818   7.016  10.858  0.0322  0.2374 -0.2388
  104OSM    C1S10526   4.875   7.100  10.575 -1.3285  0.1335  0.8326
  104OSM    H1S10527   4.796   7.168  10.612  0.7889  2.1599  1.9273
  104OSM    H1T10528   4.852   6.996  10.543  0.9412  0.0680 -0.8328
  104OSM     NF10529   4.816   7.208  10.360  0.4998 -0.3317 -1.1644
  104OSM    HNF10530   4.796   7.156  10.278 -2.4176 -0.4783 -0.4792
  104OSM    C2S10531   4.931   7.181  10.447  0.7257 -0.7977 -0.1444
  104OSM    H2S10532   4.982   7.276  10.475  1.6105 -0.8500 -1.4742
  104OSM    C3S10533   5.039   7.088  10.377 -0.1134  0.2392  0.3614
  104OSM    H3S10534   4.992   6.991  10.351 -1.5676  0.4466  1.9831
  104OSM     O310535   5.139   7.046  10.470  0.5885 -0.0842  0.5875
  104OSM    HO310536   5.096   7.060  10.555 -0.3712 -3.1801  0.7206
  104OSM    C4S10537   5.092   7.148  10.258 -0.3303 -0.0567 -0.1621
  104OSM    H4S10538   5.100   7.258  10.256 -2.2158  0.1120 -2.0104
  104OSM    C5S10539   5.109   7.076  10.143 -0.2780  0.1318  0.0003
  104OSM    H5S10540   5.090   6.968  10.149 -1.3792  0.2687 -0.6970
  104OSM    C6S10541   5.153   7.124  10.004 -0.1673 -0.5822  0.2301
  104OSM    H6S10542   5.261   7.150   9.999  0.0848 -1.5905  0.2441
  104OSM    H6T10543   5.089   7.211   9.977 -0.3831 -0.7737  0.1198
  104OSM    C7S10544   5.129   7.006   9.905 -0.0408  0.2614 -0.1898
  104OSM    H7S10545   5.021   6.979   9.900  0.0990 -0.1835 -1.1435
  104OSM    H7T10546   5.183   6.914   9.936  1.2782  0.1268 -2.6618
  104OSM    C8S10547   5.179   7.050   9.765  0.3930  0.0312  0.5768
  104OSM    H8S10548   5.287   7.073   9.778  0.3051  0.9400 -0.1860
  104OSM    H8T10549   5.117   7.139   9.740  2.3585  1.1762 -0.4930
  104OSM    C9S10550   5.163   6.942   9.651 -0.1281 -0.1978 -0.3465
  104OSM    H9S10551   5.064   6.895   9.670 -0.2084  1.0904  3.4077
  104OSM    H9T10552   5.242   6.871   9.684 -1.3175 -0.5541  2.0061
  104OSM   C10S10553   5.178   6.997   9.507  0.8962  0.3919 -0.8750
  104OSM   H10S10554   5.280   7.040   9.517  1.1319 -0.7255  2.7798
  104OSM   H10T10555   5.100   7.075   9.495  1.6465  1.1259 -1.0956
  104OSM   C11S10556   5.161   6.888   9.396  0.0745 -0.0089 -0.0447
  104OSM   H11S10557   5.055   6.855   9.391  0.0629  0.1797 -1.4202
  104OSM   H11T10558   5.223   6.801   9.426 -0.5662 -1.3485 -2.3016
  104OSM   C12S10559   5.197   6.939   9.262  0.4255  0.0690 -0.1357
  104OSM   H12S10560   5.297   6.987   9.267  1.8493 -2.6526 -0.7291
  104OSM   H12T10561   5.127   7.018   9.225  3.7142  3.9658  1.2586
  104OSM   C13S10562   5.204   6.838   9.144  0.2407  0.2349 -0.1999
  104OSM   H13S10563   5.112   6.777   9.151 -0.7924  1.5944 -1.4237
  104OSM   H13T10564   5.303   6.788   9.156  0.2072  0.3658  0.7089
  104OSM   C14S10565   5.219   6.906   9.014 -0.5662 -0.0205 -0.3907
  104OSM   H14S10566   5.287   6.994   9.019 -1.3045  0.8891 -3.6866
  104OSM   H14T10567   5.116   6.944   8.997 -0.6987 -0.0630  0.2807
  104OSM   C15S10568   5.249   6.817   8.899 -0.3955 -0.2180 -0.7766
  104OSM   H15S10569   5.332   6.747   8.921  0.5115  1.5912  2.2122
  104OSM   H15T10570   5.282   6.890   8.822  0.9021  0.9062  0.7761
  104OSM   C16S10571   5.122   6.742   8.861 -0.6429 -0.4179  0.7886
  104OSM   H16S10572   5.045   6.811   8.821  2.0697 -0.1124 -4.8573
  104OSM   H16T10573   5.079   6.691   8.950  0.6159  0.9535  2.2641
  104OSM   C17S10574   5.144   6.639   8.752 -0.6263  0.0541 -0.5240
  104OSM   H17S10575   5.050   6.579   8.749 -1.4180  1.1690  0.7188
  104OSM   H17T10576   5.232   6.576   8.774 -1.5825 -1.0465  0.2961
  104OSM   C18S10577   5.181   6.707   8.618 -0.9509 -0.2800  0.4671
  104OSM   H18S10578   5.274   6.769   8.620 -1.4890  0.7382 -1.9916
  104OSM   H18T10579   5.092   6.763   8.582  0.1773 -0.0123 -2.1790
  104OSM   H18U10580   5.193   6.629   8.540 -4.3156 -0.1590 -0.3119
  104OSM    C1F10581   4.720   7.301  10.380  0.2066  0.4661  0.1550
  104OSM     OF10582   4.742   7.404  10.447 -0.3171 -0.5136 -0.0881
  104OSM    C2F10583   4.586   7.273  10.314 -0.0402  0.2935 -0.2966
  104OSM    H2F10584   4.509   7.254  10.391 -1.0892 -0.0710 -1.3872
  104OSM    H2G10585   4.583   7.193  10.236  0.0171  0.6130 -0.6286
  104OSM    C3F10586   4.555   7.409  10.249  0.4465 -0.4791  0.3401
  104OSM    H3F10587   4.529   7.474  10.335 -1.2829 -0.7080  0.0270
  104OSM    H3G10588   4.463   7.396  10.188  0.5799 -0.2464  0.0855
  104OSM    C4F10589   4.648   7.479  10.149  0.2292  0.6671  0.3077
  104OSM    H4F10590   4.683   7.399  10.081  0.3757  1.0633 -0.0859
  104OSM    H4G10591   4.728   7.517  10.216 -2.2212  5.3897  0.9913
  104OSM    C5F10592   4.604   7.607  10.069  0.5502 -0.7383 -0.2842
  104OSM    H5F10593   4.684   7.677  10.036 -1.3204  1.2291 -0.9146
  104OSM    H5G10594   4.534   7.666  10.132 -1.1888 -2.4826 -0.4714
  104OSM    C6F10595   4.521   7.560   9.946 -0.6984  0.3285 -0.7551
  104OSM    H6F10596   4.472   7.651   9.905  2.8994  2.1968 -1.2815
  104OSM    H6G10597   4.435   7.497   9.977  0.7283 -0.5675  1.6948
  104OSM    C7F10598   4.605   7.494   9.833 -0.5910  0.3536 -0.9510
  104OSM    H7F10599   4.647   7.394   9.860 -1.4731 -0.3669 -2.1255
  104OSM    H7G10600   4.689   7.563   9.812  0.4824  0.0309  1.8121
  104OSM    C8F10601   4.525   7.477   9.707  0.0427 -0.9408  0.4252
  104OSM    H8F10602   4.496   7.582   9.685  2.7457  0.0047  1.0010
  104OSM    H8G10603   4.437   7.417   9.737 -1.3082 -1.4477 -3.8319
  104OSM    C9F10604   4.592   7.417   9.591 -0.4331 -0.3313 -0.1751
  104OSM    H9F10605   4.625   7.313   9.608  2.8244  0.8889  1.7521
  104OSM   C10F10606   4.625   7.479   9.478 -0.3188  0.1731  0.8720
  104OSM   H10F10607   4.644   7.409   9.395 -2.5238  0.4541  0.0613
  104OSM   C11F10608   4.598   7.626   9.445  0.1894 -0.6473  0.1104
  104OSM   H11F10609   4.626   7.690   9.531 -0.2269 -1.5254  0.9129
  104OSM   H11G10610   4.489   7.648   9.438  0.2321 -0.4894 -0.0879
  104OSM   C12F10611   4.659   7.674   9.317  0.3858 -0.0928  1.1055
  104OSM   H12F10612   4.767   7.650   9.310  0.3055 -0.1971 -0.0682
  104OSM   H12G10613   4.663   7.784   9.308 -0.4109 -0.1467 -0.1939
  104OSM   C13F10614   4.586   7.623   9.192  0.4143 -0.1442  0.3982
  104OSM   H13F10615   4.482   7.661   9.192 -0.7773 -2.9230  3.4201
  104OSM   H13G10616   4.583   7.513   9.204  0.1285  0.0335  2.1688
  104OSM   C14F10617   4.658   7.662   9.062 -0.0146  0.1221  0.0585
  104OSM   H14F10618   4.767   7.648   9.080  0.3768  0.8501 -1.5971
  104OSM   H14G10619   4.637   7.770   9.048  0.1177  0.3324  1.3643
  104OSM   C15F10620   4.609   7.574   8.942 -0.5938 -0.9516  0.0123
  104OSM   H15F10621   4.506   7.605   8.916 -0.7375  0.4597  2.0091
  104OSM   H15G10622   4.618   7.466   8.966 -0.2638 -1.5759 -2.5836
  104OSM   C16F10623   4.708   7.597   8.821 -0.3757 -0.0453 -0.5224
  104OSM   H16F10624   4.807   7.555   8.850 -1.1519 -1.5824  0.0451
  104OSM   H16G10625   4.730   7.701   8.790 -0.9218  1.3043  3.1380
  104OSM   C17F10626   4.663   7.521   8.697 -0.2690  0.4681  0.4372
  104OSM   H17F10627   4.571   7.574   8.664  0.8484  1.6085 -1.0130
  104OSM   H17G10628   4.646   7.415   8.727  4.3813 -0.3807  0.8887
  104OSM   C18F10629   4.771   7.524   8.596  0.0589  0.0367  0.5811
  104OSM   H18F10630   4.851   7.452   8.625 -0.6851 -0.1721  2.2325
  104OSM   H18G10631   4.819   7.624   8.592 -2.0104  1.0891  0.5357
  104OSM   H18H10632   4.749   7.498   8.490  1.7525 -4.5244  1.1453
  105OSM      N10633   1.336   3.647  11.032 -0.0353 -0.5657  0.0866
  105OSM    C1510634   1.439   3.630  11.139 -0.1527 -0.3120  0.1591
  105OSM   H15A10635   1.403   3.687  11.224  0.3091 -1.0023  0.8352
  105OSM   H15B10636   1.532   3.674  11.105  0.1727  0.0284  1.3948
  105OSM   H15C10637   1.455   3.525  11.157 -1.1988 -0.4685  0.2318
  105OSM    C1410638   1.219   3.566  11.082 -0.0962  0.5145 -0.8491
  105OSM   H14A10639   1.126   3.580  11.027 -0.1911  0.0822 -0.8035
  105OSM   H14B10640   1.208   3.573  11.189 -0.1926  0.1856 -0.8367
  105OSM   H14C10641   1.255   3.466  11.062  1.4757  0.8114  0.3698
  105OSM    C1310642   1.285   3.790  11.018 -0.1077 -0.8720 -0.9410
  105OSM   H13A10643   1.219   3.822  11.098 -1.5272  1.2598 -2.8612
  105OSM   H13B10644   1.231   3.800  10.925  1.6547  0.2612 -1.9079
  105OSM   H13C10645   1.372   3.854  11.014  0.6412 -1.8196 -0.3417
  105OSM    C1210646   1.384   3.597  10.891  0.0112 -0.3919  0.3662
  105OSM   H12A10647   1.463   3.666  10.864 -0.7465 -0.1373 -1.3608
  105OSM   H12B10648   1.304   3.603  10.819 -1.2908  0.0687  1.8212
  105OSM    C1110649   1.454   3.463  10.863 -0.2543 -0.5120 -0.5198
  105OSM   H11A10650   1.551   3.462  10.918 -0.1153 -1.5928 -0.7503
  105OSM   H11B10651   1.480   3.455  10.755  2.1608  1.6212 -0.1806
  105OSM      P10652   1.376   3.220  10.853  0.0144 -0.6470 -0.2570
  105OSM    O1310653   1.510   3.158  10.856 -0.0071 -0.1239  0.1351
  105OSM    O1410654   1.273   3.151  10.935  0.7346 -0.2111  0.6187
  105OSM    O1110655   1.347   3.240  10.699  0.1574 -0.0237 -0.3086
  105OSM    O1210656   1.384   3.356  10.925 -0.7270  0.7183  0.3018
  105OSM    C1S10657   1.211   3.275  10.664  0.3144  0.0920  0.2762
  105OSM    H1S10658   1.183   3.377  10.696  3.0601  0.6834  1.0353
  105OSM    H1T10659   1.141   3.197  10.702  0.4132  1.0261  2.5845
  105OSM     NF10660   1.065   3.334  10.465  0.3916 -0.0939  0.1018
  105OSM    HNF10661   0.994   3.271  10.434  0.4380  0.0667 -0.3279
  105OSM    C2S10662   1.192   3.281  10.509  0.4741  0.1634  0.4993
  105OSM    H2S10663   1.274   3.351  10.484  0.8487 -0.3695  0.2228
  105OSM    C3S10664   1.223   3.140  10.449 -0.1469  0.3207  0.4139
  105OSM    H3S10665   1.139   3.076  10.485 -0.4518  1.4164  1.7633
  105OSM     O310666   1.342   3.072  10.506  0.6113  0.0116  0.0280
  105OSM    HO310667   1.355   3.127  10.584 -1.7123 -2.0115  2.0238
  105OSM    C4S10668   1.211   3.133  10.296 -0.0993 -0.5130 -0.0435
  105OSM    H4S10669   1.117   3.085  10.267 -1.6732  2.3095  0.0054
  105OSM    C5S10670   1.301   3.160  10.200 -0.1429 -0.1236  0.8103
  105OSM    H5S10671   1.398   3.205  10.224 -0.7767  2.1149 -0.5421
  105OSM    C6S10672   1.280   3.129  10.055  0.0161  0.2205  0.1139
  105OSM    H6S10673   1.175   3.153  10.030 -0.0501 -0.9804 -0.9026
  105OSM    H6T10674   1.303   3.022  10.032 -1.5342 -0.1675  0.2804
  105OSM    C7S10675   1.375   3.208   9.961  0.4452  0.2982  0.3973
  105OSM    H7S10676   1.476   3.164   9.977 -0.0685 -0.7570  0.8340
  105OSM    H7T10677   1.360   3.316   9.983 -0.4687  0.0641  1.0185
  105OSM    C8S10678   1.334   3.189   9.811  0.1252 -0.0415  0.9581
  105OSM    H8S10679   1.229   3.224   9.795  0.3956  1.2693  1.8329
  105OSM    H8T10680   1.330   3.078   9.819  1.5101 -0.1017  0.9478
  105OSM    C9S10681   1.423   3.236   9.690  0.0678 -0.4264 -0.6417
  105OSM    H9S10682   1.527   3.196   9.690  0.3509  0.2453  0.4855
  105OSM    H9T10683   1.437   3.347   9.697  1.6277 -0.5694 -1.0245
  105OSM   C10S10684   1.362   3.191   9.562  0.5143  0.1606 -0.2471
  105OSM   H10S10685   1.253   3.211   9.555  0.4970 -0.1829 -1.1422
  105OSM   H10T10686   1.386   3.084   9.547  1.4929 -0.0170  2.1242
  105OSM   C11S10687   1.422   3.258   9.437 -0.0524 -0.2895 -0.3248
  105OSM   H11S10688   1.533   3.253   9.438 -0.0843 -3.4889  0.4656
  105OSM   H11T10689   1.386   3.362   9.421 -0.4438  0.2015  2.9905
  105OSM   C12S10690   1.386   3.185   9.306  0.4143 -0.6169 -0.5682
  105OSM   H12S10691   1.276   3.179   9.315  0.3337  1.8960  1.2556
  105OSM   H12T10692   1.440   3.088   9.297 -1.8214 -2.0384  0.5358
  105OSM   C13S10693   1.426   3.264   9.178  0.2962  0.2758  0.4720
  105OSM   H13S10694   1.536   3.279   9.179  0.0692  2.1527  1.5977
  105OSM   H13T10695   1.384   3.366   9.189  0.3316  0.3461 -0.0007
  105OSM   C14S10696   1.376   3.194   9.048 -0.2679  0.6512  0.3773
  105OSM   H14S10697   1.274   3.154   9.066 -2.0465  3.8997 -1.5523
  105OSM   H14T10698   1.445   3.107   9.036  1.3623  1.7437  1.4224
  105OSM   C15S10699   1.358   3.277   8.925  0.1808  0.3528 -0.0547
  105OSM   H15S10700   1.452   3.333   8.906 -0.3529  1.7603  1.2290
  105OSM   H15T10701   1.282   3.357   8.942  0.1632  0.4804 -0.7045
  105OSM   C16S10702   1.314   3.197   8.808  0.9842  0.3272  0.6403
  105OSM   H16S10703   1.222   3.143   8.840 -1.1421  2.2058 -1.8354
  105OSM   H16T10704   1.391   3.121   8.783  1.2218  0.3867  1.1704
  105OSM   C17S10705   1.292   3.299   8.700  0.5738  0.1752 -0.5257
  105OSM   H17S10706   1.254   3.392   8.749  1.4924  0.6235 -0.6384
  105OSM   H17T10707   1.214   3.273   8.626 -0.4347  1.1209  0.1810
  105OSM   C18S10708   1.425   3.342   8.626  0.1138  0.4004 -0.6466
  105OSM   H18S10709   1.473   3.256   8.575  3.6022  0.9390  1.4202
  105OSM   H18T10710   1.497   3.378   8.702 -0.5981  0.8255 -0.1635
  105OSM   H18U10711   1.392   3.422   8.556  2.0457  1.7519 -0.0859
  105OSM    C1F10712   1.035   3.460  10.484 -0.3284 -1.0182 -0.3699
  105OSM     OF10713   1.123   3.536  10.529 -0.1706  0.0023 -0.3253
  105OSM    C2F10714   0.887   3.505  10.479 -0.3674 -0.2777  0.4954
  105OSM    H2F10715   0.854   3.528  10.583 -0.6391 -0.5087  0.4603
  105OSM    H2G10716   0.825   3.424  10.436 -1.7500  0.6498  0.6666
  105OSM    C3F10717   0.868   3.636  10.394  0.3936 -0.2642  0.1390
  105OSM    H3F10718   0.954   3.700  10.421  0.2159 -0.1645  0.4826
  105OSM    H3G10719   0.778   3.697  10.417 -0.3705 -1.6016  0.8369
  105OSM    C4F10720   0.878   3.608  10.247 -0.1402 -0.2326 -0.1605
  105OSM    H4F10721   0.805   3.534  10.207 -1.7988  0.7711  0.9001
  105OSM    H4G10722   0.980   3.563  10.239 -0.2243 -0.6990  1.1277
  105OSM    C5F10723   0.873   3.734  10.158 -0.0864 -0.0260 -0.7708
  105OSM    H5F10724   0.957   3.796  10.196 -3.1093  2.6458  2.2768
  105OSM    H5G10725   0.779   3.790  10.176 -1.6081 -2.0620 -1.9918
  105OSM    C6F10726   0.888   3.702  10.013 -0.0612  0.3052  0.5948
  105OSM    H6F10727   0.793   3.663   9.970  0.7180 -1.1531  0.1226
  105OSM    H6G10728   0.967   3.626   9.997 -2.3357 -1.7348 -1.9243
  105OSM    C7F10729   0.950   3.814   9.927  0.1553 -0.3089 -0.6792
  105OSM    H7F10730   1.048   3.844   9.971 -0.0664 -1.3310  0.5598
  105OSM    H7G10731   0.888   3.906   9.939 -0.2164 -0.6303 -0.0791
  105OSM    C8F10732   0.966   3.787   9.779 -0.5155  0.0623 -0.0185
  105OSM    H8F10733   1.026   3.695   9.763 -1.2397 -0.0225 -2.7205
  105OSM    H8G10734   1.017   3.874   9.733 -0.0821 -0.7714 -1.1422
  105OSM    C9F10735   0.836   3.764   9.707  0.3056 -0.6908  0.5499
  105OSM    H9F10736   0.748   3.722   9.757 -0.8210  2.4297  1.4614
  105OSM   C10F10737   0.818   3.795   9.581  0.1518  0.0382  0.1924
  105OSM   H10F10738   0.715   3.796   9.543  0.6597 -1.9015 -1.3836
  105OSM   C11F10739   0.915   3.851   9.484 -0.1423 -0.2449 -0.1949
  105OSM   H11F10740   1.018   3.874   9.518 -0.1944  1.5729 -1.1782
  105OSM   H11G10741   0.873   3.946   9.444  0.1758  1.5733  3.3957
  105OSM   C12F10742   0.935   3.752   9.373 -0.4904  0.1205  0.8015
  105OSM   H12F10743   0.835   3.733   9.327 -0.1133  0.4178 -0.1649
  105OSM   H12G10744   0.992   3.665   9.411  2.7738  1.4279 -0.6818
  105OSM   C13F10745   1.014   3.801   9.246  0.8923 -0.0867 -0.2916
  105OSM   H13F10746   1.118   3.826   9.278  1.8310 -2.1160 -1.5215
  105OSM   H13G10747   0.973   3.902   9.225  1.1894 -0.1800 -1.3545
  105OSM   C14F10748   0.992   3.706   9.129 -0.2542 -0.3863 -0.1114
  105OSM   H14F10749   0.889   3.716   9.090 -1.2874  1.1941  2.7416
  105OSM   H14G10750   1.009   3.603   9.166 -0.7647 -0.2306  0.5588
  105OSM   C15F10751   1.090   3.730   9.016  0.1325 -0.5168 -0.4349
  105OSM   H15F10752   1.190   3.738   9.062 -0.3061  1.1266  0.2920
  105OSM   H15G10753   1.073   3.828   8.966 -2.6785 -0.9541 -0.5129
  105OSM   C16F10754   1.080   3.619   8.908  0.2020 -0.1379  0.3078
  105OSM   H16F10755   1.072   3.517   8.951 -0.0581 -1.4494 -2.6118
  105OSM   H16G10756   1.174   3.625   8.849  0.4897 -0.2770  0.7472
  105OSM   C17F10757   0.974   3.653   8.798 -0.1171  0.1112  0.0732
  105OSM   H17F10758   0.956   3.762   8.789  0.6582  0.3187  0.8447
  105OSM   H17G10759   0.879   3.598   8.812 -0.6270 -0.2089 -3.6396
  105OSM   C18F10760   1.009   3.605   8.654  0.0493 -0.5348  0.2414
  105OSM   H18F10761   1.101   3.661   8.624  0.1213  1.1673  3.1893
  105OSM   H18G10762   0.922   3.616   8.587  0.2440  0.4480  0.1379
  105OSM   H18H10763   1.035   3.497   8.657 -0.7247 -0.8373 -2.0632
  106OSM      N10764   6.511   2.522  10.594 -0.2257 -0.2172  0.1741
  106OSM    C1510765   6.496   2.451  10.464 -0.1951  0.0057 -0.7256
  106OSM   H15A10766   6.423   2.487  10.393  0.2740  0.2486 -1.0908
  106OSM   H15B10767   6.477   2.346  10.479  0.7528  0.2937  4.5944
  106OSM   H15C10768   6.589   2.448  10.408  0.3556 -0.5004  0.1985
  106OSM    C1410769   6.589   2.655  10.579 -0.1216 -0.4145 -0.0600
  106OSM   H14A10770   6.603   2.705  10.674  0.2615 -1.9529  0.7146
  106OSM   H14B10771   6.546   2.723  10.506 -2.7629  0.7021  2.3484
  106OSM   H14C10772   6.686   2.625  10.541  0.1344  0.6086 -0.2438
  106OSM    C1310773   6.376   2.565  10.651  0.1862  1.1716 -0.3007
  106OSM   H13A10774   6.386   2.626  10.739  2.8683 -0.7396  0.8539
  106OSM   H13B10775   6.323   2.473  10.674  0.2333  1.2444  0.0974
  106OSM   H13C10776   6.324   2.611  10.568 -2.1759  0.3746  0.6438
  106OSM    C1210777   6.580   2.436  10.691 -0.8486 -0.2888  0.4528
  106OSM   H12A10778   6.527   2.354  10.737 -1.4743  0.6349  1.4062
  106OSM   H12B10779   6.598   2.501  10.776  2.7417  0.8790 -1.0153
  106OSM    C1110780   6.724   2.385  10.653 -1.1941 -0.2922  0.3429
  106OSM   H11A10781   6.720   2.311  10.571 -0.1909 -0.3466  0.3254
  106OSM   H11B10782   6.746   2.330  10.747 -0.5612 -1.0615 -0.2434
  106OSM      P10783   6.917   2.573  10.710  0.0807  0.0229  0.4205
  106OSM    O1310784   6.854   2.606  10.838  0.3288  0.4957 -0.1692
  106OSM    O1410785   7.030   2.483  10.709 -0.5247 -0.3296 -0.4194
  106OSM    O1110786   6.956   2.707  10.637  0.1509 -0.6346  0.2428
  106OSM    O1210787   6.814   2.494  10.614 -0.6806 -0.0060 -0.3822
  106OSM    C1S10788   6.994   2.722  10.500  0.1820  0.6687  0.0957
  106OSM    H1S10789   6.959   2.637  10.438  1.4231  0.5588 -0.4967
  106OSM    H1T10790   7.105   2.729  10.497  0.3431 -1.1890  0.7144
  106OSM     NF10791   6.980   2.880  10.305  0.0246  0.3618 -0.2662
  106OSM    HNF10792   7.049   2.951  10.298 -0.1113  0.4596 -0.6195
  106OSM    C2S10793   6.938   2.859  10.442  0.2695  0.1710  0.0547
  106OSM    H2S10794   6.829   2.843  10.449  0.0746  1.8878  1.7395
  106OSM    C3S10795   6.979   2.983  10.529 -0.1687  0.4395  0.2061
  106OSM    H3S10796   7.089   2.988  10.514 -0.4151  0.0165 -1.9982
  106OSM     O310797   6.955   2.975  10.666 -0.1620  0.5099 -0.1983
  106OSM    HO310798   6.936   2.881  10.680  0.1718  0.4694 -0.0072
  106OSM    C4S10799   6.911   3.108  10.483  0.2850 -0.1194 -0.5762
  106OSM    H4S10800   6.801   3.111  10.484  0.2719 -0.4444 -0.8758
  106OSM    C5S10801   6.980   3.211  10.435 -0.2376  0.9356  0.4185
  106OSM    H5S10802   7.090   3.208  10.431 -0.2202  2.2347 -0.4853
  106OSM    C6S10803   6.920   3.330  10.375 -0.6412 -0.2792 -0.2675
  106OSM    H6S10804   6.964   3.427  10.408 -1.8126  1.1090 -2.5250
  106OSM    H6T10805   6.812   3.331  10.404 -0.4705  1.0471  0.4381
  106OSM    C7S10806   6.918   3.303  10.220 -1.2495 -0.2084  0.4155
  106OSM    H7S10807   6.883   3.199  10.208 -0.9332 -0.1223 -1.5104
  106OSM    H7T10808   7.027   3.310  10.199 -1.5939  0.0537 -1.4290
  106OSM    C8S10809   6.850   3.409  10.137  0.6858 -0.2251 -0.3736
  106OSM    H8S10810   6.892   3.509  10.162 -1.3716  0.9187 -1.3229
  106OSM    H8T10811   6.748   3.423  10.178  1.0244  0.3110  0.3016
  106OSM    C9S10812   6.852   3.378   9.986  0.4627  0.3080 -0.3647
  106OSM    H9S10813   6.823   3.273   9.965 -1.7322  0.6789  0.5535
  106OSM    H9T10814   6.960   3.381   9.961  0.1223 -2.3050 -2.6750
  106OSM   C10S10815   6.776   3.482   9.905  0.0059  0.1769  0.0175
  106OSM   H10S10816   6.801   3.584   9.940 -0.7531  0.2091  0.4958
  106OSM   H10T10817   6.665   3.474   9.914  0.0101 -1.2076 -0.8690
  106OSM   C11S10818   6.803   3.463   9.755 -0.7753 -0.1119  0.2977
  106OSM   H11S10819   6.912   3.463   9.735 -0.6186  0.7654  1.0627
  106OSM   H11T10820   6.756   3.546   9.698  0.5097 -0.3680 -1.1721
  106OSM   C12S10821   6.752   3.333   9.707  0.4920 -0.3383 -0.5222
  106OSM   H12S10822   6.655   3.302   9.752 -0.5723  0.4059 -2.2248
  106OSM   H12T10823   6.820   3.253   9.745 -0.4728 -0.7266  0.4286
  106OSM   C13S10824   6.722   3.339   9.551  0.4551 -1.5051  0.0924
  106OSM   H13S10825   6.649   3.421   9.537  1.1020 -0.7132  1.1464
  106OSM   H13T10826   6.674   3.242   9.525 -2.9262  0.1333 -0.2732
  106OSM   C14S10827   6.851   3.365   9.472 -0.2118 -0.3613 -0.1753
  106OSM   H14S10828   6.922   3.279   9.477  2.3937  1.6414 -0.1489
  106OSM   H14T10829   6.904   3.458   9.501 -1.0465  0.6664 -1.7792
  106OSM   C15S10830   6.820   3.391   9.317  0.0254 -0.1947  0.0627
  106OSM   H15S10831   6.803   3.499   9.302  1.7920  0.1505  0.3378
  106OSM   H15T10832   6.732   3.326   9.297  1.2582 -2.1835  0.7007
  106OSM   C16S10833   6.942   3.351   9.231 -0.1859  0.1668 -0.5144
  106OSM   H16S10834   6.957   3.241   9.229 -1.1815  0.0204 -0.2987
  106OSM   H16T10835   7.032   3.399   9.275 -0.5238 -0.5440  1.0345
  106OSM   C17S10836   6.927   3.393   9.086 -0.3797 -0.2890  0.1469
  106OSM   H17S10837   7.024   3.362   9.041 -0.5105  0.5986 -0.7808
  106OSM   H17T10838   6.920   3.504   9.084 -0.4335 -0.2896  0.2895
  106OSM   C18S10839   6.805   3.338   9.013 -0.3388  0.1254 -0.8068
  106OSM   H18S10840   6.817   3.358   8.904  1.2126 -0.1132 -0.6998
  106OSM   H18T10841   6.716   3.396   9.046  0.6606  2.6787 -2.3587
  106OSM   H18U10842   6.796   3.227   9.020  0.4050  0.1972  2.5794
  106OSM    C1F10843   6.945   2.798  10.200  0.0358  0.4045 -0.9052
  106OSM     OF10844   6.881   2.690  10.220  0.0792 -0.6615 -0.3352
  106OSM    C2F10845   6.987   2.845  10.068 -0.6128  0.7117  0.0492
  106OSM    H2F10846   7.090   2.817  10.037 -0.2422  0.0589  1.7767
  106OSM    H2G10847   6.983   2.956  10.066  0.0918  0.8006  1.8606
  106OSM    C3F10848   6.888   2.803   9.963 -0.3232 -0.5026  0.5471
  106OSM    H3F10849   6.786   2.823  10.003 -1.7802 -1.9683 -2.1634
  106OSM    H3G10850   6.892   2.698   9.927 -0.3759  0.0778 -1.2350
  106OSM    C4F10851   6.917   2.883   9.831 -0.5946 -0.0544 -0.7534
  106OSM    H4F10852   7.024   2.860   9.811 -0.0573 -0.4613  2.0963
  106OSM    H4G10853   6.906   2.993   9.845 -0.0692  0.0439 -1.0847
  106OSM    C5F10854   6.829   2.858   9.713  0.1598  0.2597  0.1797
  106OSM    H5F10855   6.725   2.877   9.746  0.1115 -0.2314  0.3122
  106OSM    H5G10856   6.834   2.752   9.681  0.5082  0.1438  0.6191
  106OSM    C6F10857   6.851   2.945   9.584 -0.2013 -0.2238 -0.0086
  106OSM    H6F10858   6.813   3.048   9.599  1.2926  0.2044  1.1679
  106OSM    H6G10859   6.786   2.904   9.505  0.2059 -0.5929 -0.1531
  106OSM    C7F10860   6.992   2.950   9.534 -0.4355 -0.1834  0.0806
  106OSM    H7F10861   7.011   2.841   9.519 -5.0067 -1.1168 -0.4012
  106OSM    H7G10862   7.068   2.982   9.609 -1.0279 -1.4877  1.2890
  106OSM    C8F10863   7.007   3.027   9.400 -0.0875  0.8955 -0.5901
  106OSM    H8F10864   7.018   3.134   9.427 -1.5608  0.6500  1.1243
  106OSM    H8G10865   6.910   3.019   9.347  1.0843  1.3042 -2.9884
  106OSM    C9F10866   7.118   2.988   9.306 -0.6122 -0.2543  0.2765
  106OSM    H9F10867   7.211   3.046   9.306  0.3196 -1.6118 -2.3362
  106OSM   C10F10868   7.127   2.879   9.231  0.2899  0.0930  0.6478
  106OSM   H10F10869   7.221   2.861   9.178 -0.3518  0.2143 -0.5575
  106OSM   C11F10870   7.032   2.761   9.223 -0.0387 -0.4618  0.1655
  106OSM   H11F10871   6.945   2.760   9.292 -0.8668 -1.4577 -0.8528
  106OSM   H11G10872   7.087   2.667   9.245 -0.3063 -0.7653 -0.4358
  106OSM   C12F10873   6.967   2.748   9.083 -0.3108  0.5946 -0.7240
  106OSM   H12F10874   6.905   2.657   9.092 -1.2559  1.2804 -0.1400
  106OSM   H12G10875   7.049   2.736   9.008 -0.2483  0.0039 -0.5623
  106OSM   C13F10876   6.880   2.859   9.034  0.2121  0.4852 -0.0301
  106OSM   H13F10877   6.947   2.944   9.010 -1.4622  2.1364  0.8497
  106OSM   H13G10878   6.814   2.887   9.119 -1.0449  2.2695 -1.5108
  106OSM   C14F10879   6.794   2.830   8.905 -0.8923 -0.2001  0.2889
  106OSM   H14F10880   6.710   2.762   8.934 -0.0761 -0.4903  2.1063
  106OSM   H14G10881   6.863   2.771   8.842  1.5549  3.1559 -0.4447
  106OSM   C15F10882   6.731   2.951   8.834  0.3006 -0.1634 -1.0160
  106OSM   H15F10883   6.667   3.018   8.896 -0.2040 -1.0338 -0.5846
  106OSM   H15G10884   6.662   2.917   8.753 -3.3458 -0.2538  1.8895
  106OSM   C16F10885   6.831   3.041   8.760 -0.2821  0.3538 -0.1928
  106OSM   H16F10886   6.876   2.969   8.688  0.2127  0.0338  0.4381
  106OSM   H16G10887   6.903   3.088   8.830 -1.8332  2.3687  0.1385
  106OSM   C17F10888   6.757   3.154   8.693  0.1480  0.2367  0.5129
  106OSM   H17F10889   6.682   3.206   8.756 -2.3732 -0.3558 -1.7853
  106OSM   H17G10890   6.694   3.111   8.612  0.6131  2.3668 -1.0500
  106OSM   C18F10891   6.855   3.249   8.629  0.0878  0.1555  0.5840
  106OSM   H18F10892   6.932   3.191   8.574  1.4020  0.5138  1.9858
  106OSM   H18G10893   6.906   3.306   8.710 -0.2086 -0.2690  1.0707
  106OSM   H18H10894   6.815   3.320   8.553 -0.2878  0.5118  1.1044
  107OSM      N10895   2.855   1.108  10.943  0.1341  0.2899  0.0564
  107OSM    C1510896   2.751   1.065  11.048 -0.2948 -0.0652  0.5881
  107OSM   H15A10897   2.747   0.958  11.057 -1.0099 -0.1280 -0.2330
  107OSM   H15B10898   2.653   1.094  11.013 -0.1368  0.0374  0.2254
  107OSM   H15C10899   2.780   1.091  11.148  1.4558 -0.2667  0.1545
  107OSM    C1410900   2.800   1.082  10.808  0.1603 -0.4425 -0.1555
  107OSM   H14A10901   2.743   0.991  10.807  0.7006 -0.7868 -1.1479
  107OSM   H14B10902   2.876   1.072  10.731 -0.5697  0.3804 -1.0118
  107OSM   H14C10903   2.730   1.156  10.772 -0.2679  0.3111  2.0644
  107OSM    C1310904   2.879   1.256  10.960 -0.5298  0.1790  0.1475
  107OSM   H13A10905   2.968   1.292  10.911 -0.5004  3.1468  2.1067
  107OSM   H13B10906   2.886   1.280  11.065  0.3072 -0.0164  0.1413
  107OSM   H13C10907   2.797   1.315  10.920  0.0935  1.1171  0.2116
  107OSM    C1210908   2.982   1.034  10.967 -0.5006  0.3540  0.2250
  107OSM   H12A10909   3.011   1.044  11.071  1.3610  0.5107 -0.2715
  107OSM   H12B10910   3.060   1.079  10.908 -0.4460 -0.4678 -0.3466
  107OSM    C1110911   2.961   0.882  10.939  0.4331 -0.0085 -0.2041
  107OSM   H11A10912   2.910   0.862  10.843 -1.3433  0.7278  0.5320
  107OSM   H11B10913   2.893   0.834  11.012 -1.4542  2.5465 -0.1298
  107OSM      P10914   3.199   0.800  10.841  0.6974  0.0093 -0.0938
  107OSM    O1310915   3.326   0.766  10.913 -0.1968 -0.2519 -0.2279
  107OSM    O1410916   3.158   0.696  10.740  0.8314  0.3322  0.1739
  107OSM    O1110917   3.199   0.944  10.772  0.2790 -0.4461  0.1648
  107OSM    O1210918   3.087   0.810  10.952 -0.5303 -0.2692 -0.1209
  107OSM    C1S10919   3.293   0.960  10.665  0.4881 -0.2827  0.8583
  107OSM    H1S10920   3.380   0.893  10.681  0.4869  0.0836  2.6087
  107OSM    H1T10921   3.324   1.066  10.658 -1.3434  0.2221 -0.6652
  107OSM     NF10922   3.323   0.931  10.412 -0.4133 -0.0039  0.0742
  107OSM    HNF10923   3.319   1.001  10.341 -3.8645 -0.8595 -0.7705
  107OSM    C2S10924   3.224   0.923  10.523 -0.8690  0.0207 -0.1830
  107OSM    H2S10925   3.182   0.820  10.529  0.9444 -0.7184  0.6179
  107OSM    C3S10926   3.106   1.014  10.494  0.0346 -0.3325 -0.0308
  107OSM    H3S10927   3.145   1.114  10.465 -0.8281  0.2839  0.8605
  107OSM     O310928   3.017   1.050  10.599  0.2888 -0.0202  0.0740
  107OSM    HO310929   3.067   1.026  10.677  0.7260  1.9507  0.4469
  107OSM    C4S10930   3.024   0.977  10.373  0.0272 -0.5699  0.3312
  107OSM    H4S10931   2.999   0.870  10.368 -0.8218 -0.4591  1.7170
  107OSM    C5S10932   2.970   1.059  10.284  0.4629  0.1372 -0.2608
  107OSM    H5S10933   2.981   1.167  10.301  1.8803  0.0788 -0.6545
  107OSM    C6S10934   2.879   1.034  10.171 -0.6151 -0.4158 -0.6504
  107OSM    H6S10935   2.918   1.092  10.085  1.0684  0.6839  0.7845
  107OSM    H6T10936   2.790   1.100  10.188 -0.0925  0.0921  0.1830
  107OSM    C7S10937   2.857   0.893  10.125  0.0041 -0.0603 -0.4055
  107OSM    H7S10938   2.817   0.828  10.205 -0.9854 -0.8260 -1.4870
  107OSM    H7T10939   2.948   0.846  10.083  0.4368  1.0807 -0.7850
  107OSM    C8S10940   2.748   0.899  10.016  0.6287  0.1066 -1.5799
  107OSM    H8S10941   2.778   0.971   9.937  0.1492  2.0591 -0.0593
  107OSM    H8T10942   2.657   0.944  10.061 -0.2394 -1.3462 -1.7964
  107OSM    C9S10943   2.735   0.755   9.958  0.0132 -0.1800  0.1501
  107OSM    H9S10944   2.713   0.690  10.046 -0.2146  1.0679  1.0449
  107OSM    H9T10945   2.839   0.731   9.928 -0.3427  0.9449 -2.2323
  107OSM   C10S10946   2.647   0.737   9.835  0.3204  0.6118  0.4291
  107OSM   H10S10947   2.563   0.809   9.846  0.6593  1.1968 -0.6275
  107OSM   H10T10948   2.610   0.633   9.832  3.2652 -0.4989 -0.5859
  107OSM   C11S10949   2.729   0.763   9.707  0.0053  0.2843 -0.5317
  107OSM   H11S10950   2.818   0.696   9.697 -0.9729 -1.0810 -0.4421
  107OSM   H11T10951   2.772   0.864   9.724  0.5373  0.0526 -0.4868
  107OSM   C12S10952   2.642   0.756   9.584  0.1181  0.0803 -0.2127
  107OSM   H12S10953   2.556   0.822   9.607  0.4755  0.7528 -0.7773
  107OSM   H12T10954   2.591   0.660   9.562 -0.1663  0.2318 -0.2239
  107OSM   C13S10955   2.710   0.799   9.452 -0.2933  0.2050  0.3653
  107OSM   H13S10956   2.800   0.735   9.439  1.2438  2.1242  1.0288
  107OSM   H13T10957   2.747   0.904   9.460  0.5461  0.0077 -0.7495
  107OSM   C14S10958   2.609   0.798   9.337  0.3696 -0.3111 -0.0915
  107OSM   H14S10959   2.533   0.878   9.351 -0.1775 -0.7278 -0.6334
  107OSM   H14T10960   2.563   0.697   9.330  0.4203 -0.4648  1.4098
  107OSM   C15S10961   2.684   0.807   9.201 -0.4858  0.2121  0.3589
  107OSM   H15S10962   2.720   0.705   9.175 -1.3596 -0.1293  0.4413
  107OSM   H15T10963   2.761   0.885   9.220 -0.7722  0.0355  2.4744
  107OSM   C16S10964   2.595   0.858   9.095  0.0860  0.0796  0.0827
  107OSM   H16S10965   2.558   0.961   9.115 -0.4088  0.1695 -1.1775
  107OSM   H16T10966   2.505   0.794   9.088 -0.4101  0.8137 -0.5695
  107OSM   C17S10967   2.660   0.870   8.962 -0.0731  0.2412  1.1232
  107OSM   H17S10968   2.712   0.773   8.948 -0.0470 -0.0963  3.2261
  107OSM   H17T10969   2.741   0.947   8.958 -1.6470  1.9143 -1.0657
  107OSM   C18S10970   2.559   0.891   8.845  0.2220  0.3016 -1.0062
  107OSM   H18S10971   2.482   0.811   8.851 -0.9208  1.4276 -0.0215
  107OSM   H18T10972   2.614   0.888   8.748  0.4073 -1.4287 -0.8779
  107OSM   H18U10973   2.510   0.990   8.862 -0.0752 -0.1332  0.7909
  107OSM    C1F10974   3.429   0.851  10.407  0.1066  0.4423 -0.1189
  107OSM     OF10975   3.426   0.758  10.484 -0.4292 -0.4912 -0.2101
  107OSM    C2F10976   3.540   0.884  10.311  0.1340 -0.6146  0.2022
  107OSM    H2F10977   3.592   0.976  10.347  0.6845 -0.6364 -0.5258
  107OSM    H2G10978   3.486   0.909  10.217 -1.1430  1.2232  1.3417
  107OSM    C3F10979   3.648   0.781  10.284 -1.0501 -0.3353  0.4222
  107OSM    H3F10980   3.616   0.676  10.299  2.3934 -1.5425  0.1411
  107OSM    H3G10981   3.726   0.799  10.360 -1.0400  0.8658  0.1523
  107OSM    C4F10982   3.714   0.790  10.147  0.6248  0.2466  0.0505
  107OSM    H4F10983   3.806   0.728  10.147  0.5704  0.1575 -0.5994
  107OSM    H4G10984   3.744   0.896  10.130 -0.2542  0.5251  0.1921
  107OSM    C5F10985   3.624   0.734  10.034 -0.5241 -0.1548  0.8685
  107OSM    H5F10986   3.529   0.791  10.037 -0.3823  0.0827  0.8780
  107OSM    H5G10987   3.602   0.627  10.054 -0.8096  0.2567  2.9776
  107OSM    C6F10988   3.673   0.754   9.882  0.3938 -0.7937  0.5857
  107OSM    H6F10989   3.712   0.858   9.873  3.2947 -1.5442  2.8459
  107OSM    H6G10990   3.583   0.731   9.821 -0.2496  0.3329  1.0828
  107OSM    C7F10991   3.788   0.661   9.844  0.6284 -0.4906  0.4842
  107OSM    H7F10992   3.743   0.560   9.841 -0.9135  0.2017 -1.5838
  107OSM    H7G10993   3.872   0.669   9.917  1.5962 -0.0034 -0.6383
  107OSM    C8F10994   3.845   0.692   9.704  0.6357 -0.3656  0.6477
  107OSM    H8F10995   3.940   0.634   9.701  0.4474 -0.6638  0.3672
  107OSM    H8G10996   3.869   0.800   9.703  1.0640 -0.3249 -3.5529
  107OSM    C9F10997   3.748   0.649   9.588  0.2211 -0.5518 -0.2850
  107OSM    H9F10998   3.723   0.543   9.585  1.2250 -0.7861 -1.4544
  107OSM   C10F10999   3.692   0.729   9.496  0.2033 -0.3222  0.6116
  107OSM   H10F11000   3.622   0.671   9.434 -0.9560  0.0379  1.5594
  107OSM   C11F11001   3.702   0.879   9.496  0.2619 -0.2953  0.3733
  107OSM   H11F11002   3.726   0.921   9.596 -2.0261  0.2391  0.7524
  107OSM   H11G11003   3.604   0.914   9.459 -0.0662  0.5905  1.9779
  107OSM   C12F11004   3.794   0.930   9.387 -0.9884  0.7905  0.0162
  107OSM   H12F11005   3.793   1.040   9.393  0.4151  0.7340  2.8172
  107OSM   H12G11006   3.757   0.910   9.284 -0.3554 -0.0171 -0.0741
  107OSM   C13F11007   3.939   0.886   9.384 -0.3634  0.1675 -0.5920
  107OSM   H13F11008   3.936   0.778   9.355  2.4502  0.0452 -0.7322
  107OSM   H13G11009   3.991   0.881   9.482  1.4880 -0.6159 -1.5399
  107OSM   C14F11010   4.030   0.956   9.286 -0.1162  0.2453  0.6347
  107OSM   H14F11011   4.130   0.909   9.299 -0.8002 -0.9741  1.7719
  107OSM   H14G11012   4.044   1.065   9.306  1.7738  0.3447 -0.9566
  107OSM   C15F11013   3.984   0.950   9.137 -0.2075 -0.8101  0.7362
  107OSM   H15F11014   4.040   1.020   9.072 -0.8976 -0.9005  0.0286
  107OSM   H15G11015   3.876   0.974   9.128  0.2076  0.4724 -2.1370
  107OSM   C16F11016   3.986   0.802   9.081 -0.5605 -0.4318 -0.2788
  107OSM   H16F11017   3.899   0.748   9.123 -1.4795  0.9685 -0.3238
  107OSM   H16G11018   4.075   0.751   9.124  0.6423  2.3044  0.6940
  107OSM   C17F11019   3.958   0.788   8.931 -0.5233  0.0476  0.2390
  107OSM   H17F11020   4.024   0.868   8.891 -1.5022  1.2300  0.9228
  107OSM   H17G11021   3.853   0.816   8.908  0.0939  1.7856 -0.6558
  107OSM   C18F11022   3.997   0.655   8.860 -0.9335 -0.5383 -0.2859
  107OSM   H18F11023   3.949   0.569   8.913 -0.4161  0.6168  2.2368
  107OSM   H18G11024   4.105   0.637   8.878 -0.7622 -0.2063 -0.9784
  107OSM   H18H11025   3.966   0.661   8.754 -2.8503  0.5732  0.2902
  108OSM      N11026   0.327   1.649  10.652 -0.0180 -0.4396  0.2384
  108OSM    C1511027   0.419   1.765  10.639  0.0924  0.3224 -0.1441
  108OSM   H15A11028   0.479   1.777  10.728  0.0593 -0.1330 -0.0620
  108OSM   H15B11029   0.354   1.850  10.626 -0.1565  0.1749  0.1264
  108OSM   H15C11030   0.468   1.764  10.543  1.4614  0.2461  0.5357
  108OSM    C1411031   0.249   1.644  10.528  0.6827  0.3267 -0.0955
  108OSM   H14A11032   0.192   1.554  10.510 -0.1848  0.9082 -0.3281
  108OSM   H14B11033   0.320   1.656  10.447  2.3879  2.5133  1.6011
  108OSM   H14C11034   0.176   1.724  10.518 -0.9925 -1.1577 -0.2506
  108OSM    C1311035   0.416   1.527  10.664  0.7072 -0.7609  0.2100
  108OSM   H13A11036   0.480   1.518  10.577 -0.4886  1.9152 -1.0738
  108OSM   H13B11037   0.350   1.442  10.657 -0.3094  0.1226 -2.7714
  108OSM   H13C11038   0.477   1.532  10.752  1.1517 -1.8258 -0.0228
  108OSM    C1211039   0.234   1.666  10.772 -0.1401  0.2225 -0.2080
  108OSM   H12A11040   0.286   1.706  10.857 -1.7307  0.5893  0.6372
  108OSM   H12B11041   0.203   1.564  10.790  0.4574 -0.0023 -0.4536
  108OSM    C1111042   0.109   1.749  10.741 -0.2948  0.5339  0.2521
  108OSM   H11A11043   0.058   1.768  10.837  2.5466 -1.3193  2.2744
  108OSM   H11B11044   0.047   1.686  10.674 -3.8241  3.3094  0.5870
  108OSM      P11045   0.013   1.956  10.626  0.3142 -0.1799  0.2707
  108OSM    O1311046  -0.075   1.994  10.743 -0.2454 -0.5282  0.1599
  108OSM    O1411047   0.071   2.072  10.560 -0.0078 -0.4723 -0.0884
  108OSM    O1111048  -0.062   1.867  10.525 -0.2626  0.0737  0.2687
  108OSM    O1211049   0.141   1.867  10.674  0.4522 -0.4234 -0.7437
  108OSM    C1S11050  -0.208   1.870  10.505  0.0504  0.7370  0.1599
  108OSM    H1S11051  -0.254   1.963  10.546 -0.3298 -0.5566  2.8875
  108OSM    H1T11052  -0.254   1.793  10.571  0.6296 -0.0938 -0.3924
  108OSM     NF11053  -0.404   1.842  10.355  0.6166  0.6199  0.9491
  108OSM    HNF11054  -0.445   1.751  10.350 -1.0376  1.3861 -0.6536
  108OSM    C2S11055  -0.254   1.848  10.361  0.4844 -0.4401  0.0754
  108OSM    H2S11056  -0.225   1.933  10.295 -2.2028  0.1259 -0.5026
  108OSM    C3S11057  -0.192   1.728  10.294 -0.0719  0.7682  0.0604
  108OSM    H3S11058  -0.223   1.634  10.344  3.6392 -0.7860 -0.2725
  108OSM     O311059  -0.047   1.718  10.296 -0.1201  0.0503  0.2135
  108OSM    HO311060  -0.031   1.768  10.376  0.5136  1.5294 -0.7946
  108OSM    C4S11061  -0.239   1.718  10.150 -0.2517  0.9713  0.3101
  108OSM    H4S11062  -0.226   1.817  10.106 -0.3379  1.2684  0.9392
  108OSM    C5S11063  -0.311   1.620  10.090 -0.0714  0.0387 -0.4563
  108OSM    H5S11064  -0.326   1.526  10.146 -1.7258  1.1584  1.0750
  108OSM    C6S11065  -0.371   1.610   9.949 -0.5503  0.1841  0.2581
  108OSM    H6S11066  -0.480   1.596   9.936 -0.3091 -0.5495 -1.2219
  108OSM    H6T11067  -0.328   1.521   9.898 -1.3237 -0.2864  0.4009
  108OSM    C7S11068  -0.333   1.725   9.855 -0.1349 -0.0324 -0.2968
  108OSM    H7S11069  -0.223   1.745   9.851 -0.0871  0.3066  1.7080
  108OSM    H7T11070  -0.377   1.814   9.904 -0.7360 -0.5736  0.1560
  108OSM    C8S11071  -0.382   1.695   9.712 -0.0137  0.0573 -0.9180
  108OSM    H8S11072  -0.493   1.692   9.710  0.0098 -2.1409 -0.8910
  108OSM    H8T11073  -0.351   1.595   9.676  0.7673  0.2698 -0.8498
  108OSM    C9S11074  -0.338   1.802   9.617 -0.0570 -0.4060  0.0496
  108OSM    H9S11075  -0.228   1.811   9.604 -0.1178 -1.6267 -1.5185
  108OSM    H9T11076  -0.367   1.900   9.660  1.7487 -0.2702  1.0720
  108OSM   C10S11077  -0.401   1.774   9.473  0.3482 -0.3112 -0.3977
  108OSM   H10S11078  -0.510   1.757   9.483 -0.3230  2.1272 -2.6264
  108OSM   H10T11079  -0.351   1.679   9.442  3.7280  1.2973 -0.3445
  108OSM   C11S11080  -0.364   1.887   9.378  0.1841 -0.2559 -0.1435
  108OSM   H11S11081  -0.255   1.906   9.382  0.1736 -0.3877  1.2557
  108OSM   H11T11082  -0.411   1.978   9.421  1.0735  0.4766 -0.6890
  108OSM   C12S11083  -0.418   1.874   9.234  0.0564  0.0852  0.2495
  108OSM   H12S11084  -0.528   1.866   9.232  0.0449 -0.7415 -3.0416
  108OSM   H12T11085  -0.383   1.784   9.178 -0.1749  1.3885 -2.1102
  108OSM   C13S11086  -0.375   1.988   9.141  0.2832  0.9042  0.5233
  108OSM   H13S11087  -0.264   1.991   9.137  0.4072 -1.3471  0.5998
  108OSM   H13T11088  -0.414   2.084   9.179 -0.7436 -0.2053  2.3941
  108OSM   C14S11089  -0.407   1.983   8.990  0.8048  0.0035  0.3096
  108OSM   H14S11090  -0.371   1.888   8.944  0.5425  0.0808 -0.0698
  108OSM   H14T11091  -0.350   2.066   8.942 -1.7075  2.5932  1.4911
  108OSM   C15S11092  -0.552   2.000   8.951  0.8779  0.2452  0.0590
  108OSM   H15S11093  -0.609   2.085   8.995 -0.5968 -1.1560  0.9857
  108OSM   H15T11094  -0.615   1.916   8.987  0.4996  0.2703 -0.5452
  108OSM   C16S11095  -0.575   2.015   8.797 -0.0997  0.7185 -0.3423
  108OSM   H16S11096  -0.527   1.931   8.742 -0.0550  1.3086 -1.2272
  108OSM   H16T11097  -0.517   2.104   8.764 -1.7885  1.6390 -0.9422
  108OSM   C17S11098  -0.715   2.037   8.763 -0.1047  0.2225  0.2795
  108OSM   H17S11099  -0.735   2.062   8.656  0.2570  0.6550  0.3132
  108OSM   H17T11100  -0.740   2.129   8.821  0.3938  0.5451 -0.0092
  108OSM   C18S11101  -0.815   1.931   8.801 -0.5323  0.1240  0.1872
  108OSM   H18S11102  -0.794   1.828   8.767 -0.0994  0.2234  0.1531
  108OSM   H18T11103  -0.917   1.962   8.770 -0.9123 -0.8257  0.4451
  108OSM   H18U11104  -0.827   1.927   8.912  0.6553 -1.3622  0.2866
  108OSM    C1F11105  -0.490   1.934  10.373 -0.2102  0.3617  0.3095
  108OSM     OF11106  -0.451   2.046  10.414 -0.0767  0.5111  0.2488
  108OSM    C2F11107  -0.628   1.898  10.357  1.3621 -0.1435  0.1793
  108OSM    H2F11108  -0.688   1.991  10.364  2.5888  0.7377 -0.5351
  108OSM    H2G11109  -0.667   1.826  10.432 -0.9966  0.9566  0.1022
  108OSM    C3F11110  -0.638   1.836  10.217  0.0500  0.0446 -0.0292
  108OSM    H3F11111  -0.742   1.800  10.202  0.8875 -1.5938 -2.4136
  108OSM    H3G11112  -0.589   1.736  10.208 -1.1849 -0.5122 -0.8750
  108OSM    C4F11113  -0.606   1.928  10.096 -0.0844  0.2548  0.3715
  108OSM    H4F11114  -0.496   1.917  10.087  0.2426  2.3502  1.2714
  108OSM    H4G11115  -0.616   2.037  10.112  1.4015  0.3518  0.7802
  108OSM    C5F11116  -0.661   1.888   9.961  0.0048  0.1821 -0.3275
  108OSM    H5F11117  -0.771   1.876   9.965 -0.0125  0.7086  1.8204
  108OSM    H5G11118  -0.612   1.799   9.916 -0.7807  0.6641 -2.2331
  108OSM    C6F11119  -0.629   1.996   9.852  0.6484  0.2421 -0.3767
  108OSM    H6F11120  -0.522   2.006   9.825  0.0801  1.0486 -2.5534
  108OSM    H6G11121  -0.655   2.096   9.892 -0.6347 -0.9361  1.9756
  108OSM    C7F11122  -0.715   1.964   9.725  0.5384  0.2096 -0.5025
  108OSM    H7F11123  -0.819   1.966   9.764  0.8211  1.8670  0.2546
  108OSM    H7G11124  -0.697   1.857   9.701 -1.4984 -0.0653 -0.9512
  108OSM    C8F11125  -0.691   2.046   9.603 -0.7686  0.1673  0.2241
  108OSM    H8F11126  -0.732   1.986   9.519 -0.3461 -0.7164  0.6374
  108OSM    H8G11127  -0.583   2.048   9.577 -0.5247 -0.4181  1.1429
  108OSM    C9F11128  -0.747   2.181   9.611 -0.2469  0.3905  0.0958
  108OSM    H9F11129  -0.733   2.227   9.710  0.6733  1.9856 -0.7431
  108OSM   C10F11130  -0.821   2.248   9.518  0.1471 -0.1728 -0.3113
  108OSM   H10F11131  -0.855   2.350   9.543  2.0802  0.2273  0.9586
  108OSM   C11F11132  -0.848   2.211   9.375  0.0609  0.5511 -0.1432
  108OSM   H11F11133  -0.955   2.181   9.369  0.3863 -0.5444 -0.8161
  108OSM   H11G11134  -0.780   2.133   9.333  1.1356  1.4701 -0.1267
  108OSM   C12F11135  -0.837   2.324   9.275 -0.1104 -0.2205  0.5485
  108OSM   H12F11136  -0.729   2.346   9.264  0.1301 -1.0472  1.1480
  108OSM   H12G11137  -0.878   2.420   9.313 -1.9443 -1.4876  1.9463
  108OSM   C13F11138  -0.901   2.307   9.134 -0.4491 -0.2545  0.2472
  108OSM   H13F11139  -0.856   2.221   9.080 -1.1003  0.0994 -0.8934
  108OSM   H13G11140  -0.878   2.393   9.069  1.0074  0.2138  1.3251
  108OSM   C14F11141  -1.052   2.293   9.128  0.4826 -0.1599 -0.8798
  108OSM   H14F11142  -1.100   2.390   9.103 -3.1450 -2.0580 -2.1010
  108OSM   H14G11143  -1.082   2.258   9.229  0.8222  3.2696  0.5441
  108OSM   C15F11144  -1.114   2.199   9.027  0.1603  0.0559 -0.3178
  108OSM   H15F11145  -1.100   2.097   9.069 -1.1194 -0.2338 -0.5586
  108OSM   H15G11146  -1.063   2.202   8.928 -1.0641  3.8578 -1.0040
  108OSM   C16F11147  -1.260   2.229   9.002  0.6821  0.7376  0.1525
  108OSM   H16F11148  -1.283   2.336   8.984  0.6980  0.6847 -0.1903
  108OSM   H16G11149  -1.321   2.203   9.091 -1.4405 -0.9864 -1.6849
  108OSM   C17F11150  -1.319   2.167   8.873 -0.5883  0.2683  0.3377
  108OSM   H17F11151  -1.298   2.060   8.895  0.8384  0.8633  2.1314
  108OSM   H17G11152  -1.258   2.208   8.790  0.8059  2.1635  2.1723
  108OSM   C18F11153  -1.472   2.196   8.856 -0.5969  0.0488 -0.1608
  108OSM   H18F11154  -1.511   2.142   8.767  1.5531 -0.7349 -0.6945
  108OSM   H18G11155  -1.491   2.304   8.844  1.4735  0.3580 -1.0263
  108OSM   H18H11156  -1.542   2.152   8.930 -0.0623  0.8113  0.8210
  109OSM      N11157   5.838   0.035  11.048 -0.5673  0.0103  0.0076
  109OSM    C1511158   5.748   0.139  10.980  0.2340  0.5723 -0.7186
  109OSM   H15A11159   5.770   0.242  11.005  2.7531  0.0272 -0.4311
  109OSM   H15B11160   5.644   0.113  10.995  0.6077 -1.6851 -1.6290
  109OSM   H15C11161   5.758   0.131  10.873  1.2522  0.6490 -0.6446
  109OSM    C1411162   5.960   0.007  10.960 -0.0871 -0.6113 -0.3086
  109OSM   H14A11163   5.944  -0.007  10.855  0.4088  0.4701 -0.5455
  109OSM   H14B11164   6.035  -0.058  11.004  1.6522  0.6347 -1.2670
  109OSM   H14C11165   6.009   0.104  10.960 -1.0942 -0.0783  0.3309
  109OSM    C1311166   5.882   0.100  11.175  0.4690 -0.0860  0.0112
  109OSM   H13A11167   5.945   0.184  11.155  0.3356  0.1222  0.4604
  109OSM   H13B11168   5.949   0.034  11.228  2.0928  0.0861 -1.7361
  109OSM   H13C11169   5.796   0.116  11.239 -1.1909  0.3625 -2.1861
  109OSM    C1211170   5.767  -0.095  11.072 -0.0010  0.4190  0.5744
  109OSM   H12A11171   5.824  -0.167  11.127 -1.4590  1.3303  3.4882
  109OSM   H12B11172   5.758  -0.138  10.973 -0.5121 -0.1839  0.8766
  109OSM    C1111173   5.628  -0.087  11.145 -0.5949 -0.2949  0.1675
  109OSM   H11A11174   5.634  -0.014  11.228 -0.9415 -0.3018  0.2034
  109OSM   H11B11175   5.604  -0.182  11.197  1.1444 -0.9667 -0.1963
  109OSM      P11176   5.442  -0.154  10.980 -0.1111 -0.1088 -0.4275
  109OSM    O1311177   5.516  -0.205  10.864 -0.0251 -0.5004  0.4808
  109OSM    O1411178   5.383  -0.262  11.068 -0.0863 -0.1957  0.5611
  109OSM    O1111179   5.320  -0.068  10.921 -0.1256 -0.1929  0.0725
  109OSM    O1211180   5.525  -0.053  11.056  0.3559  0.8318 -0.1219
  109OSM    C1S11181   5.333   0.026  10.818 -0.5127  0.1881 -0.2025
  109OSM    H1S11182   5.430   0.079  10.811 -0.3953 -0.2762 -2.9057
  109OSM    H1T11183   5.260   0.109  10.828  0.3892  0.9363  0.3104
  109OSM     NF11184   5.349   0.061  10.566 -0.3931 -0.0046 -0.5167
  109OSM    HNF11185   5.279   0.102  10.508  0.9648  0.1033 -2.1486
  109OSM    C2S11186   5.304  -0.028  10.672 -0.2235  0.6162 -0.4541
  109OSM    H2S11187   5.380  -0.107  10.652  0.9740  1.1054  1.8405
  109OSM    C3S11188   5.158  -0.079  10.668  0.0312  0.5695 -0.6917
  109OSM    H3S11189   5.098   0.010  10.698 -0.5908 -0.0990  0.0772
  109OSM     O311190   5.136  -0.185  10.758 -0.0153  0.1772 -0.3737
  109OSM    HO311191   5.222  -0.197  10.798  0.1137  0.1612 -0.6573
  109OSM    C4S11192   5.125  -0.112  10.529 -0.1508 -0.0809 -0.3602
  109OSM    H4S11193   5.090  -0.025  10.471 -0.9552 -0.0594  0.1452
  109OSM    C5S11194   5.143  -0.222  10.462  0.1890 -0.8153  0.1313
  109OSM    H5S11195   5.189  -0.309  10.512  2.0309 -1.9163 -3.1426
  109OSM    C6S11196   5.116  -0.228  10.311  0.2770 -0.8280  0.8698
  109OSM    H6S11197   5.078  -0.131  10.272  0.1637 -0.7478  1.1784
  109OSM    H6T11198   5.043  -0.305  10.279 -0.7941  0.2219  0.7170
  109OSM    C7S11199   5.254  -0.241  10.235 -0.1317 -0.3158 -0.2376
  109OSM    H7S11200   5.308  -0.337  10.250 -0.1370 -0.7858 -2.7320
  109OSM    H7T11201   5.323  -0.162  10.272  0.2110 -1.1963  1.0690
  109OSM    C8S11202   5.246  -0.216  10.083 -0.2346  0.5256  0.0619
  109OSM    H8S11203   5.214  -0.111  10.066  0.0866  0.8560  1.3994
  109OSM    H8T11204   5.159  -0.269  10.039  1.2573 -0.6948 -1.5382
  109OSM    C9S11205   5.374  -0.243   9.993 -0.1299 -0.3674 -0.4793
  109OSM    H9S11206   5.406  -0.349  10.003  1.1730 -0.0058 -0.6632
  109OSM    H9T11207   5.456  -0.179  10.032 -0.8094  0.4907 -0.4188
  109OSM   C10S11208   5.347  -0.212   9.849  0.5395 -0.5831 -0.2118
  109OSM   H10S11209   5.333  -0.102   9.839  1.7091 -0.3477  0.4882
  109OSM   H10T11210   5.257  -0.264   9.812 -1.5849  1.5578  1.6005
  109OSM   C11S11211   5.460  -0.244   9.757 -0.0424  0.5541  0.3864
  109OSM   H11S11212   5.480  -0.353   9.769 -0.9404  0.6176  3.5791
  109OSM   H11T11213   5.552  -0.189   9.787  1.6201 -2.1849  0.6857
  109OSM   C12S11214   5.436  -0.214   9.608  0.2031  0.0724  0.4822
  109OSM   H12S11215   5.418  -0.106   9.589 -0.8432  0.2209  2.0534
  109OSM   H12T11216   5.336  -0.257   9.585  1.3848 -1.6314 -1.8486
  109OSM   C13S11217   5.543  -0.276   9.510 -0.0813  0.1355  0.4038
  109OSM   H13S11218   5.546  -0.387   9.524  1.8046  0.2731  1.4801
  109OSM   H13T11219   5.647  -0.244   9.529  1.4271 -2.4416 -2.5723
  109OSM   C14S11220   5.499  -0.239   9.370 -0.6468 -0.5871  0.0192
  109OSM   H14S11221   5.485  -0.129   9.365 -0.7155 -0.6365 -1.1171
  109OSM   H14T11222   5.407  -0.297   9.350 -0.4055 -0.2170 -2.3966
  109OSM   C15S11223   5.596  -0.267   9.252  0.3584 -0.8224  0.0307
  109OSM   H15S11224   5.633  -0.370   9.268  1.5379 -0.5513 -0.8775
  109OSM   H15T11225   5.677  -0.191   9.260 -2.2859  2.0572  2.7091
  109OSM   C16S11226   5.523  -0.258   9.117 -0.6557 -0.5109 -0.6495
  109OSM   H16S11227   5.482  -0.157   9.100 -1.8256 -0.5618  1.5121
  109OSM   H16T11228   5.438  -0.329   9.114 -1.2859  0.2207 -0.2958
  109OSM   C17S11229   5.621  -0.280   9.004  0.7634 -0.1410  0.4232
  109OSM   H17S11230   5.664  -0.382   9.017  2.0654  0.6530  2.9819
  109OSM   H17T11231   5.708  -0.211   9.003  1.1738 -0.6389 -0.6853
  109OSM   C18S11232   5.550  -0.271   8.867 -0.5105 -0.1643 -0.1265
  109OSM   H18S11233   5.606  -0.310   8.778  0.7518  0.7975  0.2201
  109OSM   H18T11234   5.529  -0.167   8.833 -0.2559 -0.0596  0.0327
  109OSM   H18U11235   5.458  -0.334   8.866  0.7272 -2.0550 -0.7527
  109OSM    C1F11236   5.480   0.109  10.560  0.2549  0.1698  0.2508
  109OSM     OF11237   5.566   0.081  10.640  0.3006 -0.1955 -0.2935
  109OSM    C2F11238   5.513   0.193  10.434  0.9284  0.2446 -0.6629
  109OSM    H2F11239   5.621   0.219  10.436  0.6135  1.5689  0.0026
  109OSM    H2G11240   5.457   0.288  10.448 -0.4944 -0.5037 -1.0920
  109OSM    C3F11241   5.476   0.132  10.294 -0.1767 -0.0172 -0.6960
  109OSM    H3F11242   5.366   0.118  10.283 -0.3214  0.6775 -0.2253
  109OSM    H3G11243   5.512   0.027  10.288  1.9837  0.4364  2.0016
  109OSM    C4F11244   5.534   0.215  10.170  0.6500  0.0153 -0.4305
  109OSM    H4F11245   5.639   0.235  10.200  0.5429 -0.6365  0.4316
  109OSM    H4G11246   5.476   0.310  10.166 -0.0849 -0.3933  0.1173
  109OSM    C5F11247   5.527   0.138  10.039  0.5009  0.1329  0.8103
  109OSM    H5F11248   5.431   0.116   9.987  2.2948 -0.9643 -2.3062
  109OSM    H5G11249   5.566   0.035  10.058 -1.0709 -0.5949  0.3062
  109OSM    C6F11250   5.605   0.200   9.923  0.0821 -0.1619  0.2371
  109OSM    H6F11251   5.710   0.207   9.960  0.5214 -0.3893 -0.9249
  109OSM    H6G11252   5.550   0.292   9.895  0.3707  0.2661  1.0495
  109OSM    C7F11253   5.595   0.100   9.808 -0.1326 -0.0544 -0.1312
  109OSM    H7F11254   5.488   0.071   9.811 -1.3001  3.7507  2.7817
  109OSM    H7G11255   5.658   0.017   9.848 -0.6394  0.3451  1.5710
  109OSM    C8F11256   5.645   0.148   9.676  0.2587  0.0425 -0.5207
  109OSM    H8F11257   5.731   0.210   9.709  0.4398  0.1171 -1.1299
  109OSM    H8G11258   5.572   0.229   9.655  2.0099  2.0539  0.6899
  109OSM    C9F11259   5.664   0.051   9.569  0.3077 -0.6420  0.3796
  109OSM    H9F11260   5.660  -0.052   9.606  4.6996 -0.6531  1.3729
  109OSM   C10F11261   5.675   0.074   9.432 -0.0020  0.2877 -0.3889
  109OSM   H10F11262   5.694  -0.007   9.360 -0.7059  1.5047 -2.0310
  109OSM   C11F11263   5.682   0.209   9.370 -0.0538 -0.6050  0.1892
  109OSM   H11F11264   5.787   0.245   9.369 -0.7290  1.6468  1.9170
  109OSM   H11G11265   5.640   0.291   9.432  0.7841  0.7535 -0.9773
  109OSM   C12F11266   5.604   0.205   9.240 -0.0736  0.2015 -0.2272
  109OSM   H12F11267   5.577   0.310   9.214  0.2549  0.5409  0.7810
  109OSM   H12G11268   5.511   0.145   9.237 -0.7332  1.2149 -2.1116
  109OSM   C13F11269   5.687   0.164   9.115 -0.1095 -0.5433  0.9066
  109OSM   H13F11270   5.736   0.065   9.124  0.8428 -0.5697 -2.8434
  109OSM   H13G11271   5.775   0.228   9.093  0.8603 -2.4100 -0.9932
  109OSM   C14F11272   5.614   0.157   8.981  0.3240 -0.1765  0.2008
  109OSM   H14F11273   5.570   0.256   8.959 -1.9946 -0.8199  1.4814
  109OSM   H14G11274   5.523   0.093   8.990  1.1080 -1.0734  2.8326
  109OSM   C15F11275   5.690   0.110   8.857 -0.3321 -0.0040  0.0873
  109OSM   H15F11276   5.708   0.002   8.871 -0.7125 -0.0363  0.3663
  109OSM   H15G11277   5.790   0.158   8.857 -0.1516 -0.3827  0.2114
  109OSM   C16F11278   5.604   0.146   8.734  0.8708  1.2140 -0.2681
  109OSM   H16F11279   5.608   0.257   8.730  0.7271  1.2177 -0.3290
  109OSM   H16G11280   5.502   0.110   8.761  1.6509 -0.8240  0.1505
  109OSM   C17F11281   5.649   0.082   8.598  0.1098 -0.3521 -0.3695
  109OSM   H17F11282   5.647  -0.029   8.609 -3.9758 -0.5704 -1.5104
  109OSM   H17G11283   5.745   0.123   8.562  1.4219 -2.0765  0.9951
  109OSM   C18F11284   5.544   0.096   8.489 -0.2935 -0.7603 -0.1307
  109OSM   H18F11285   5.458   0.028   8.505 -0.9938 -0.3087 -1.7140
  109OSM   H18G11286   5.596   0.070   8.394  3.1914  2.0358  0.8254
  109OSM   H18H11287   5.511   0.201   8.477  1.8393 -0.2284 -2.2463
  110OSM      N11288   6.028   5.334  11.215 -0.5985  0.2145  0.7689
  110OSM    C1511289   5.901   5.374  11.278 -0.1546 -0.1286 -0.0187
  110OSM   H15A11290   5.914   5.342  11.381  2.5839  0.1158 -0.2225
  110OSM   H15B11291   5.821   5.330  11.221 -1.5543  0.4367  1.4365
  110OSM   H15C11292   5.875   5.478  11.275  2.1160  0.4990  0.4070
  110OSM    C1411293   6.136   5.396  11.294  0.3641 -0.2281  0.3625
  110OSM   H14A11294   6.235   5.366  11.264  0.0723 -0.1314 -0.7266
  110OSM   H14B11295   6.122   5.362  11.396 -0.3352 -1.2633 -0.0568
  110OSM   H14C11296   6.137   5.504  11.289  0.7916 -0.2937 -2.2153
  110OSM    C1311297   6.041   5.188  11.219  0.2689 -0.4674 -0.0692
  110OSM   H13A11298   6.072   5.158  11.318  1.7337 -0.6483 -0.5655
  110OSM   H13B11299   6.112   5.142  11.152 -0.9332  2.0724 -3.3844
  110OSM   H13C11300   5.947   5.142  11.195 -0.1379  0.4655 -0.3038
  110OSM    C1211301   6.031   5.399  11.078 -0.1257  0.4035  0.0415
  110OSM   H12A11302   6.020   5.506  11.085 -1.4794  0.3419 -0.7171
  110OSM   H12B11303   5.942   5.369  11.024 -2.1080 -2.0705  4.1815
  110OSM    C1111304   6.158   5.372  10.991  0.7511  0.6861 -0.3375
  110OSM   H11A11305   6.245   5.410  11.048  1.0896 -1.8525  0.9819
  110OSM   H11B11306   6.135   5.438  10.905 -2.8378 -1.3581 -1.1414
  110OSM      P11307   6.325   5.169  10.956 -0.4039  0.0449 -0.1981
  110OSM    O1311308   6.391   5.215  11.081  0.2087  0.1798 -0.1053
  110OSM    O1411309   6.301   5.024  10.946 -0.4581 -0.7954  0.4998
  110OSM    O1111310   6.397   5.227  10.829 -0.5159  0.4266  0.4847
  110OSM    O1211311   6.183   5.239  10.947  0.2023 -0.1967 -0.1090
  110OSM    C1S11312   6.373   5.189  10.696  0.1885 -0.1047 -0.2137
  110OSM    H1S11313   6.269   5.156  10.676  0.4652 -1.3344  0.2685
  110OSM    H1T11314   6.444   5.107  10.672  1.3945  0.3212  1.6764
  110OSM     NF11315   6.359   5.264  10.462  0.3717  0.3285 -0.1925
  110OSM    HNF11316   6.417   5.205  10.406 -1.0847 -1.3131 -0.0406
  110OSM    C2S11317   6.402   5.304  10.596  0.4716 -0.0226  0.8115
  110OSM    H2S11318   6.338   5.387  10.633  0.3207 -0.8315  2.4534
  110OSM    C3S11319   6.553   5.351  10.608  0.3128  0.0825 -0.1127
  110OSM    H3S11320   6.627   5.273  10.580  0.3157  0.5841 -1.6095
  110OSM     O311321   6.585   5.394  10.736 -0.2737 -0.2689 -0.2089
  110OSM    HO311322   6.516   5.358  10.791  0.9421  1.1448  2.3912
  110OSM    C4S11323   6.586   5.465  10.510 -0.1678  0.4202 -0.6857
  110OSM    H4S11324   6.537   5.557  10.545 -0.8072 -0.7930  1.9180
  110OSM    C5S11325   6.679   5.463  10.410  0.3182 -0.1792 -0.2515
  110OSM    H5S11326   6.739   5.376  10.379 -0.3332 -0.2793 -1.2838
  110OSM    C6S11327   6.709   5.586  10.327 -0.8948 -0.2007  0.0807
  110OSM    H6S11328   6.739   5.564  10.222  3.0939 -2.6925  1.5300
  110OSM    H6T11329   6.805   5.629  10.363 -0.8783  0.1123 -0.3235
  110OSM    C7S11330   6.602   5.690  10.333 -0.2035 -0.2229  0.0729
  110OSM    H7S11331   6.621   5.730  10.434 -1.1043  1.2203 -0.2972
  110OSM    H7T11332   6.496   5.657  10.328 -0.6302  0.6478  2.4312
  110OSM    C8S11333   6.630   5.805  10.236  0.3826 -0.3872 -0.5360
  110OSM    H8S11334   6.617   5.772  10.131 -1.4268 -0.5760 -0.2871
  110OSM    H8T11335   6.733   5.844  10.251  2.0294 -4.5093  0.2895
  110OSM    C9S11336   6.530   5.920  10.273 -0.0230 -0.0411 -0.2132
  110OSM    H9S11337   6.509   5.918  10.383  1.0819 -1.2876  0.0011
  110OSM    H9T11338   6.438   5.899  10.215  1.4866  0.0636 -2.7561
  110OSM   C10S11339   6.573   6.056  10.242 -0.4143 -0.3516  0.3938
  110OSM   H10S11340   6.671   6.077  10.290  0.1433 -1.7598 -0.1084
  110OSM   H10T11341   6.504   6.137  10.275 -0.9991 -0.5232 -0.3980
  110OSM   C11S11342   6.587   6.072  10.088 -0.0715  0.4883  0.1338
  110OSM   H11S11343   6.495   6.085  10.028 -1.0293 -0.1232  1.4284
  110OSM   H11T11344   6.616   5.970  10.052  0.4216  0.7164 -0.1271
  110OSM   C12S11345   6.687   6.181  10.046 -0.1904  0.4115  0.3664
  110OSM   H12S11346   6.790   6.141  10.055  0.1398  0.4177 -2.5683
  110OSM   H12T11347   6.681   6.270  10.113  0.7088  1.2207 -0.5848
  110OSM   C13S11348   6.661   6.232   9.905 -0.9799 -0.3771  0.9673
  110OSM   H13S11349   6.552   6.256   9.903 -0.9193 -0.0911  1.0334
  110OSM   H13T11350   6.677   6.146   9.837  1.0579 -0.7460  1.8636
  110OSM   C14S11351   6.755   6.343   9.852  0.5313  0.0477  0.3915
  110OSM   H14S11352   6.699   6.366   9.759 -1.7844 -1.0397  1.4110
  110OSM   H14T11353   6.848   6.291   9.823  0.4089 -1.0019  1.7673
  110OSM   C15S11354   6.778   6.469   9.939 -0.3362 -0.1670 -0.9156
  110OSM   H15S11355   6.831   6.442  10.033  2.0792  1.6398 -1.6737
  110OSM   H15T11356   6.673   6.497   9.965 -0.4660 -1.6893  0.3247
  110OSM   C16S11357   6.849   6.577   9.860 -0.7909 -0.8677 -0.0722
  110OSM   H16S11358   6.803   6.602   9.762 -0.7356 -0.1955  0.0690
  110OSM   H16T11359   6.948   6.533   9.834  0.2865 -0.5988  3.1909
  110OSM   C17S11360   6.875   6.699   9.943 -0.3749 -0.4414 -0.2725
  110OSM   H17S11361   6.946   6.662  10.019  0.1124  0.0792 -0.4661
  110OSM   H17T11362   6.778   6.742   9.978 -0.6280 -1.9845  1.0256
  110OSM   C18S11363   6.951   6.808   9.877  0.3672  0.2598 -0.0490
  110OSM   H18S11364   7.057   6.783   9.856  0.2514 -1.9234  1.6688
  110OSM   H18T11365   6.954   6.901   9.938 -1.4095 -0.1511  0.7363
  110OSM   H18U11366   6.893   6.844   9.789  0.5408  0.5905 -0.0329
  110OSM    C1F11367   6.229   5.257  10.437  0.6663  0.3899  0.7253
  110OSM     OF11368   6.144   5.304  10.504  0.4242  0.4427 -0.1443
  110OSM    C2F11369   6.182   5.180  10.317 -0.2154  0.2166  0.9260
  110OSM    H2F11370   6.084   5.139  10.348 -0.7016 -0.2709 -1.0720
  110OSM    H2G11371   6.264   5.110  10.289 -1.4738 -0.7917 -0.4000
  110OSM    C3F11372   6.136   5.279  10.198  0.4565  0.8449 -0.4416
  110OSM    H3F11373   6.074   5.362  10.238 -1.1736 -0.3604 -0.3486
  110OSM    H3G11374   6.069   5.233  10.122 -1.4086 -0.2765  1.7041
  110OSM    C4F11375   6.255   5.353  10.132 -0.1730  0.3674 -0.3436
  110OSM    H4F11376   6.299   5.418  10.210  0.3665 -0.5429  0.1211
  110OSM    H4G11377   6.218   5.411  10.044 -0.9977  0.8826  0.3326
  110OSM    C5F11378   6.373   5.271  10.084  0.4757 -0.0466 -0.6925
  110OSM    H5F11379   6.330   5.186  10.026  0.4458  0.1972 -1.0348
  110OSM    H5G11380   6.428   5.217  10.164  0.6859 -0.3976 -1.0697
  110OSM    C6F11381   6.471   5.358  10.004 -0.5698  0.1022  0.1261
  110OSM    H6F11382   6.565   5.299  10.005  0.7531  2.1408  0.3527
  110OSM    H6G11383   6.499   5.457  10.046  1.2726  0.0431 -0.8362
  110OSM    C7F11384   6.432   5.361   9.851  0.4220 -0.5681 -0.1516
  110OSM    H7F11385   6.346   5.428   9.826  0.4725  0.0382  1.2047
  110OSM    H7G11386   6.397   5.257   9.832 -1.7087 -0.4397  2.5016
  110OSM    C8F11387   6.548   5.416   9.758 -0.1927  0.2380  0.2283
  110OSM    H8F11388   6.584   5.503   9.816 -1.8461  1.9163 -1.1471
  110OSM    H8G11389   6.501   5.456   9.665 -0.0811  0.8538  0.4342
  110OSM    C9F11390   6.658   5.320   9.722 -0.0047 -0.8370 -0.6250
  110OSM    H9F11391   6.659   5.224   9.777  2.4465 -0.8942 -0.6612
  110OSM   C10F11392   6.752   5.335   9.630 -0.9416  0.2893  0.0990
  110OSM   H10F11393   6.826   5.257   9.606  1.1950  1.4725  2.3959
  110OSM   C11F11394   6.774   5.455   9.540 -0.1673  0.5968 -0.2648
  110OSM   H11F11395   6.881   5.485   9.549  0.1239 -0.9333  2.5276
  110OSM   H11G11396   6.710   5.539   9.576 -1.3521 -0.3799 -0.0317
  110OSM   C12F11397   6.726   5.421   9.399  0.0706  0.3639  1.3459
  110OSM   H12F11398   6.626   5.374   9.406 -0.3608  1.0168 -0.0993
  110OSM   H12G11399   6.793   5.349   9.347  0.2848  1.0859  0.5947
  110OSM   C13F11400   6.712   5.552   9.318 -0.2621  0.6154  0.0088
  110OSM   H13F11401   6.804   5.611   9.339  0.4277 -0.1522 -0.8215
  110OSM   H13G11402   6.624   5.610   9.354 -1.3811 -1.4403  0.7481
  110OSM   C14F11403   6.714   5.524   9.165 -0.5367  0.5033  0.2350
  110OSM   H14F11404   6.618   5.473   9.142 -0.2888  0.4741 -0.7809
  110OSM   H14G11405   6.806   5.463   9.156 -0.2838  0.3232  3.0947
  110OSM   C15F11406   6.735   5.650   9.078 -0.1497  0.4645 -0.3516
  110OSM   H15F11407   6.735   5.617   8.972 -2.9804  0.1340 -0.3352
  110OSM   H15G11408   6.839   5.684   9.098  0.3634 -2.1855  2.0993
  110OSM   C16F11409   6.623   5.755   9.102 -0.4067  0.3684 -0.2951
  110OSM   H16F11410   6.619   5.767   9.213  0.5323  0.8910 -0.3020
  110OSM   H16G11411   6.527   5.710   9.072 -0.4856  1.4654 -1.7959
  110OSM   C17F11412   6.642   5.876   9.014 -0.6061  0.0047 -0.0179
  110OSM   H17F11413   6.690   5.846   8.919 -2.0353 -1.6634 -0.2689
  110OSM   H17G11414   6.724   5.934   9.062 -0.8099  0.8275 -0.6401
  110OSM   C18F11415   6.517   5.958   8.984 -0.1153  0.1404  0.0753
  110OSM   H18F11416   6.535   6.055   8.932  2.3097  1.2907  2.7381
  110OSM   H18G11417   6.488   5.986   9.088 -3.7373 -0.6904 -0.6002
  110OSM   H18H11418   6.433   5.896   8.948  0.4163  0.2835 -1.4959
  111OSM      N11419   0.465   3.043  10.834 -1.0106 -0.3081 -0.3835
  111OSM    C1511420   0.579   3.107  10.908 -0.8874 -0.1737  0.3116
  111OSM   H15A11421   0.603   3.208  10.877 -0.5721  0.0581  1.2730
  111OSM   H15B11422   0.665   3.042  10.903  0.2248  1.2978 -0.5313
  111OSM   H15C11423   0.557   3.121  11.013 -1.4440  0.8318  0.0816
  111OSM    C1411424   0.516   3.013  10.699  0.1388  0.2806 -0.5242
  111OSM   H14A11425   0.539   3.106  10.650 -1.8186  2.1389  1.8645
  111OSM   H14B11426   0.440   2.963  10.642 -1.6267  0.2644  1.6996
  111OSM   H14C11427   0.602   2.947  10.702 -0.0604 -0.0266 -1.3707
  111OSM    C1311428   0.430   2.913  10.899  0.0810 -0.2412  0.3264
  111OSM   H13A11429   0.373   2.924  10.990 -1.0758  1.8991 -0.5948
  111OSM   H13B11430   0.513   2.844  10.901  0.2712 -0.0076  0.5226
  111OSM   H13C11431   0.354   2.863  10.841 -1.3375  1.5550  0.5480
  111OSM    C1211432   0.347   3.136  10.821 -0.5885 -0.2553  0.6277
  111OSM   H12A11433   0.327   3.178  10.919 -1.6176  0.6813  0.0530
  111OSM   H12B11434   0.261   3.083  10.781 -0.0686  0.0432 -0.9430
  111OSM    C1111435   0.356   3.264  10.732  0.0836 -0.1195  0.5187
  111OSM   H11A11436   0.256   3.311  10.722 -1.0043 -2.3812 -0.0856
  111OSM   H11B11437   0.395   3.231  10.633  0.7228 -0.0749  0.7564
  111OSM      P11438   0.567   3.429  10.710 -0.7488  0.3704 -0.4459
  111OSM    O1311439   0.610   3.551  10.780  0.0063 -0.0003  0.5086
  111OSM    O1411440   0.669   3.324  10.690 -0.8656 -0.2807 -0.4216
  111OSM    O1111441   0.512   3.466  10.563 -0.2040  0.3731  0.0761
  111OSM    O1211442   0.442   3.366  10.789  0.3587  0.7258 -0.1737
  111OSM    C1S11443   0.411   3.565  10.540 -0.4227  0.3791 -0.0752
  111OSM    H1S11444   0.397   3.637  10.623  1.7540  1.0582 -0.2513
  111OSM    H1T11445   0.319   3.503  10.529  0.0813 -0.5341  0.6348
  111OSM     NF11446   0.372   3.759  10.377 -0.0210  0.0208  0.2148
  111OSM    HNF11447   0.283   3.761  10.332 -0.5560 -2.1921  1.0078
  111OSM    C2S11448   0.440   3.630  10.395  0.1753  0.1367 -0.0301
  111OSM    H2S11449   0.550   3.643  10.387  0.2718 -0.3649  0.4093
  111OSM    C3S11450   0.403   3.524  10.288 -1.0939 -0.8076 -0.3072
  111OSM    H3S11451   0.292   3.524  10.292 -1.2862  0.4773 -3.2758
  111OSM     O311452   0.463   3.396  10.315 -0.2977  0.0733  0.4316
  111OSM    HO311453   0.491   3.391  10.407  1.7096 -1.8530 -0.1983
  111OSM    C4S11454   0.461   3.570  10.153 -0.3718 -0.0066  0.5818
  111OSM    H4S11455   0.566   3.545  10.134 -0.5381 -0.4297  0.1915
  111OSM    C5S11456   0.386   3.642  10.071 -0.4860  0.4941  0.7583
  111OSM    H5S11457   0.285   3.660  10.112 -0.3777  0.3588  1.0896
  111OSM    C6S11458   0.428   3.715   9.948  0.0408  0.6639 -0.4294
  111OSM    H6S11459   0.539   3.707   9.945  0.2366  2.5687  0.5011
  111OSM    H6T11460   0.401   3.822   9.956  1.8496  1.0316  1.5155
  111OSM    C7S11461   0.367   3.656   9.827  0.4404  0.5818 -0.4697
  111OSM    H7S11462   0.257   3.668   9.823  0.4952  0.8604 -1.3645
  111OSM    H7T11463   0.389   3.548   9.819 -1.5623  0.1347 -0.3929
  111OSM    C8S11464   0.415   3.734   9.698  0.3743 -0.9821  0.0452
  111OSM    H8S11465   0.521   3.767   9.689 -0.0106 -0.2216 -2.6494
  111OSM    H8T11466   0.363   3.832   9.697  2.1560  0.0379  1.3117
  111OSM    C9S11467   0.386   3.655   9.570 -0.3505  0.2417 -0.5468
  111OSM    H9S11468   0.280   3.621   9.568 -0.1649 -0.3525 -0.5243
  111OSM    H9T11469   0.449   3.563   9.569 -0.5300  0.1096  0.2503
  111OSM   C10S11470   0.429   3.739   9.446  0.0862  0.1311  0.2682
  111OSM   H10S11471   0.524   3.796   9.457 -0.7614  1.7341 -0.2559
  111OSM   H10T11472   0.351   3.818   9.435 -2.2783 -2.0614  0.3582
  111OSM   C11S11473   0.429   3.660   9.316  0.1239  0.0263 -0.1030
  111OSM   H11S11474   0.320   3.640   9.299  0.2161  0.2017 -0.9829
  111OSM   H11T11475   0.478   3.562   9.335  0.0110 -0.2246 -1.0171
  111OSM   C12S11476   0.470   3.748   9.200  0.1978  0.2362  0.0219
  111OSM   H12S11477   0.574   3.783   9.213  0.5813 -0.7979 -0.1370
  111OSM   H12T11478   0.398   3.832   9.191 -0.0285 -0.1024 -1.6717
  111OSM   C13S11479   0.483   3.667   9.065  0.2992  0.3454 -0.1951
  111OSM   H13S11480   0.388   3.610   9.053  1.4118 -1.6379 -0.0048
  111OSM   H13T11481   0.566   3.594   9.072  0.0613  0.1178  0.3289
  111OSM   C14S11482   0.497   3.746   8.941  0.9436 -0.5860  0.2917
  111OSM   H14S11483   0.567   3.830   8.960  0.6830  0.1995 -1.8491
  111OSM   H14T11484   0.400   3.789   8.907  0.1412  0.2469  3.3757
  111OSM   C15S11485   0.566   3.668   8.823  0.5667  0.0137 -0.4630
  111OSM   H15S11486   0.663   3.640   8.868  0.8445  2.6700  0.8144
  111OSM   H15T11487   0.585   3.744   8.744  0.5817  0.3326 -0.1565
  111OSM   C16S11488   0.495   3.548   8.777  0.3740 -1.0858  0.1463
  111OSM   H16S11489   0.384   3.560   8.785  0.4775 -0.5467  0.7889
  111OSM   H16T11490   0.520   3.471   8.853 -2.5332 -2.4095 -0.1025
  111OSM   C17S11491   0.520   3.498   8.631  0.0833 -0.0290  0.2291
  111OSM   H17S11492   0.625   3.479   8.603 -0.7733 -5.2081 -0.5206
  111OSM   H17T11493   0.470   3.564   8.557  0.7877  0.3490  0.0805
  111OSM   C18S11494   0.476   3.349   8.621  0.0150  0.2626 -0.7405
  111OSM   H18S11495   0.531   3.289   8.697  2.2594  2.2204 -0.6981
  111OSM   H18T11496   0.505   3.309   8.522  2.9538  0.2460  0.0419
  111OSM   H18U11497   0.366   3.339   8.637  0.3626 -4.0894  0.1567
  111OSM    C1F11498   0.421   3.868  10.434  0.1533 -0.4614  0.5990
  111OSM     OF11499   0.516   3.858  10.509  0.0518 -0.6125  0.2683
  111OSM    C2F11500   0.357   3.998  10.398 -0.2800 -0.0300  0.1199
  111OSM    H2F11501   0.343   4.055  10.492 -1.9293 -1.5360  0.8332
  111OSM    H2G11502   0.260   3.996  10.343  1.0749  0.2696 -2.4226
  111OSM    C3F11503   0.441   4.088  10.300 -0.4290 -0.5040 -0.1848
  111OSM    H3F11504   0.538   4.112  10.347  0.4573 -2.0739 -1.1283
  111OSM    H3G11505   0.381   4.182  10.292 -2.8158 -1.9196  0.1798
  111OSM    C4F11506   0.457   4.027  10.166  0.3440 -0.1610  0.5049
  111OSM    H4F11507   0.377   3.965  10.121  1.7467 -1.3143 -0.4835
  111OSM    H4G11508   0.531   3.946  10.184  0.1490 -0.1773  1.2737
  111OSM    C5F11509   0.520   4.123  10.064 -0.0551  0.2660  0.6426
  111OSM    H5F11510   0.612   4.163  10.111 -0.0753  1.0205  0.0510
  111OSM    H5G11511   0.442   4.201  10.056  1.2086  1.5807  0.7941
  111OSM    C6F11512   0.559   4.075   9.924  0.3552  0.3100  0.7722
  111OSM    H6F11513   0.480   4.007   9.884  0.8951 -0.2532  0.6563
  111OSM    H6G11514   0.649   4.011   9.932 -1.0321 -1.7198  1.1147
  111OSM    C7F11515   0.589   4.190   9.826 -0.0293 -0.1479 -0.3915
  111OSM    H7F11516   0.661   4.257   9.878  0.1615 -0.7204  0.0959
  111OSM    H7G11517   0.501   4.258   9.817 -0.4738  0.1233  3.8263
  111OSM    C8F11518   0.647   4.134   9.697  0.0261 -0.7149 -0.3684
  111OSM    H8F11519   0.718   4.051   9.714 -1.6568 -1.8104  1.8650
  111OSM    H8G11520   0.704   4.224   9.666  0.0840 -0.7856 -0.4692
  111OSM    C9F11521   0.539   4.093   9.597 -0.1442 -0.4289  0.1684
  111OSM    H9F11522   0.486   4.002   9.631  0.7214 -1.1421 -0.3284
  111OSM   C10F11523   0.504   4.147   9.481 -0.4584  0.3716  0.2508
  111OSM   H10F11524   0.421   4.107   9.420  1.4818 -0.4748 -1.9735
  111OSM   C11F11525   0.595   4.251   9.414  0.3352 -0.3156  0.3821
  111OSM   H11F11526   0.696   4.267   9.457  0.0355  0.0994  0.9574
  111OSM   H11G11527   0.535   4.343   9.431 -0.1970 -0.3583 -1.1656
  111OSM   C12F11528   0.611   4.237   9.256  0.2693 -0.1658  0.2680
  111OSM   H12F11529   0.649   4.336   9.223 -0.9572  0.2998  0.2028
  111OSM   H12G11530   0.511   4.202   9.223 -0.9262  0.7538  2.6240
  111OSM   C13F11531   0.711   4.120   9.233 -0.0081 -0.4565  0.3736
  111OSM   H13F11532   0.654   4.026   9.255  0.3646 -1.2738 -1.8759
  111OSM   H13G11533   0.802   4.139   9.293 -1.0961 -1.4427  2.4673
  111OSM   C14F11534   0.762   4.109   9.088  0.2152  0.2791  0.6268
  111OSM   H14F11535   0.809   4.011   9.063  1.0079  0.3252  1.8697
  111OSM   H14G11536   0.839   4.188   9.074  0.6937 -0.0663  1.2586
  111OSM   C15F11537   0.661   4.122   8.970  0.3846  0.4014 -0.1633
  111OSM   H15F11538   0.593   4.201   9.006  0.1917 -0.6104  1.8523
  111OSM   H15G11539   0.604   4.027   8.972 -0.2961  0.7907  2.0585
  111OSM   C16F11540   0.735   4.150   8.836  0.0384 -0.6498 -0.5773
  111OSM   H16F11541   0.822   4.216   8.858  0.8556 -1.9386  0.1505
  111OSM   H16G11542   0.685   4.223   8.767 -0.6654  0.6692  1.2384
  111OSM   C17F11543   0.804   4.030   8.775  0.4885 -0.1153  0.2634
  111OSM   H17F11544   0.726   3.957   8.744  0.1126  0.6738 -0.7031
  111OSM   H17G11545   0.874   3.988   8.851  1.1911  0.7560  0.1283
  111OSM   C18F11546   0.872   4.068   8.645 -0.0851 -0.0079 -0.0835
  111OSM   H18F11547   0.885   3.979   8.581  0.9880 -1.3815  1.9180
  111OSM   H18G11548   0.968   4.116   8.676 -0.7375  2.1324 -1.1707
  111OSM   H18H11549   0.810   4.147   8.598 -1.4739 -0.2302  1.3078
  112OSM      N11550   6.409   1.761  11.242  0.1755  0.6818  0.0655
  112OSM    C1511551   6.436   1.754  11.387  0.3827  0.2078 -0.6694
  112OSM   H15A11552   6.393   1.668  11.436  0.5624 -0.2815 -1.3536
  112OSM   H15B11553   6.406   1.841  11.445  1.6347 -1.7268  3.2606
  112OSM   H15C11554   6.542   1.751  11.411  0.3217  1.0967 -0.2318
  112OSM    C1411555   6.463   1.897  11.204 -0.5070 -0.4214  0.3048
  112OSM   H14A11556   6.446   1.920  11.100  3.5140  1.5897 -0.0780
  112OSM   H14B11557   6.569   1.904  11.220 -0.7938 -0.0392  2.3779
  112OSM   H14C11558   6.417   1.976  11.261 -0.2713 -0.1966  0.1867
  112OSM    C1311559   6.490   1.661  11.168  0.4387 -0.0885  0.9208
  112OSM   H13A11560   6.454   1.563  11.197 -0.5876 -0.3399 -1.0694
  112OSM   H13B11561   6.596   1.672  11.184  0.0955  0.7677  2.9409
  112OSM   H13C11562   6.475   1.668  11.061 -1.2332 -1.8111  0.9807
  112OSM    C1211563   6.258   1.758  11.222 -0.0649 -0.4319  0.7067
  112OSM   H12A11564   6.216   1.850  11.260 -0.3962 -1.4473  2.9364
  112OSM   H12B11565   6.219   1.681  11.287 -0.3217 -0.9615 -0.0594
  112OSM    C1111566   6.215   1.755  11.074  0.0954  0.3254 -0.1802
  112OSM   H11A11567   6.105   1.746  11.061 -0.0350  2.5841 -1.2337
  112OSM   H11B11568   6.249   1.660  11.029  0.5741  0.7868 -0.8153
  112OSM      P11569   6.261   1.855  10.843 -0.5908 -0.1419 -0.5170
  112OSM    O1311570   6.118   1.866  10.793 -1.1774 -0.0315 -0.6695
  112OSM    O1411571   6.352   1.964  10.798  0.5315  0.1985  0.5141
  112OSM    O1111572   6.338   1.723  10.813  0.2229  0.2918  0.4316
  112OSM    O1211573   6.254   1.872  11.000  0.8270  0.4865 -0.0939
  112OSM    C1S11574   6.273   1.619  10.738  0.9865 -0.0728 -0.4308
  112OSM    H1S11575   6.210   1.664  10.659 -0.0998 -3.0815 -1.3830
  112OSM    H1T11576   6.208   1.551  10.797 -1.4252  0.8804 -1.8654
  112OSM     NF11577   6.325   1.445  10.568 -0.0330 -0.2940  0.5073
  112OSM    HNF11578   6.297   1.354  10.599  0.7146 -0.9157 -0.6084
  112OSM    C2S11579   6.382   1.532  10.677  0.6106  0.0144  0.2236
  112OSM    H2S11580   6.452   1.603  10.628  1.0930  0.2677  1.2593
  112OSM    C3S11581   6.470   1.459  10.783 -0.4882  0.1159  0.2610
  112OSM    H3S11582   6.405   1.381  10.828  1.2443 -1.3966  0.2962
  112OSM     O311583   6.531   1.544  10.880 -0.3437 -0.2856 -0.7221
  112OSM    HO311584   6.498   1.632  10.862  2.4369  1.4603  1.5997
  112OSM    C4S11585   6.571   1.388  10.706 -0.1884  0.1699  0.1715
  112OSM    H4S11586   6.649   1.450  10.659 -1.1229  0.4443 -1.0677
  112OSM    C5S11587   6.576   1.254  10.682  0.4542 -0.3405  0.8478
  112OSM    H5S11588   6.496   1.190  10.720 -0.4214  0.4723  0.4322
  112OSM    C6S11589   6.695   1.196  10.616  0.6332  0.0358  1.0194
  112OSM    H6S11590   6.668   1.097  10.573 -1.2344  0.8071  0.3447
  112OSM    H6T11591   6.769   1.163  10.692 -0.4398 -1.7562  1.3464
  112OSM    C7S11592   6.753   1.278  10.493  0.2595  0.0636 -0.5767
  112OSM    H7S11593   6.837   1.219  10.450  0.8728 -0.3563  1.1160
  112OSM    H7T11594   6.794   1.376  10.526  0.5898 -0.8348  1.9120
  112OSM    C8S11595   6.663   1.303  10.373  0.1512 -1.2085  0.3072
  112OSM    H8S11596   6.722   1.345  10.288 -1.9917  1.2395 -0.0844
  112OSM    H8T11597   6.596   1.389  10.394  1.4351 -0.4510  1.4183
  112OSM    C9S11598   6.576   1.184  10.329 -0.6745 -0.4302  0.5246
  112OSM    H9S11599   6.519   1.151  10.419 -2.3857 -0.0698 -0.3731
  112OSM    H9T11600   6.640   1.100  10.295 -0.2719  0.5148 -1.1168
  112OSM   C10S11601   6.472   1.216  10.222 -0.3990  0.2427 -0.2280
  112OSM   H10S11602   6.405   1.301  10.247  0.0044  0.4231  0.2477
  112OSM   H10T11603   6.396   1.134  10.227  0.3840 -0.4280  1.2991
  112OSM   C11S11604   6.544   1.225  10.088 -0.4082 -0.0597  0.5542
  112OSM   H11S11605   6.616   1.141  10.081 -1.2446 -0.6940 -0.8675
  112OSM   H11T11606   6.593   1.325  10.085 -1.2121  0.4043  1.8755
  112OSM   C12S11607   6.443   1.203   9.970 -0.2614  0.5580  0.4581
  112OSM   H12S11608   6.363   1.280   9.967 -1.1892 -0.3882  0.6151
  112OSM   H12T11609   6.377   1.117   9.991  0.5198  0.3580  2.3166
  112OSM   C13S11610   6.511   1.171   9.831 -0.0799 -0.5983  0.2320
  112OSM   H13S11611   6.577   1.082   9.847  0.4474  0.1618  2.7645
  112OSM   H13T11612   6.568   1.265   9.811 -2.5432  1.3064  1.6898
  112OSM   C14S11613   6.412   1.137   9.713  0.7385 -0.3475 -0.2689
  112OSM   H14S11614   6.357   1.233   9.709 -0.5732 -1.0644  0.1947
  112OSM   H14T11615   6.337   1.062   9.745  0.6100  0.3354  1.1141
  112OSM   C15S11616   6.475   1.116   9.575 -0.9542  0.0536 -0.7130
  112OSM   H15S11617   6.549   1.035   9.593 -1.0894  0.4368  1.9178
  112OSM   H15T11618   6.534   1.206   9.548 -2.1020  0.6473 -1.3093
  112OSM   C16S11619   6.384   1.064   9.464  0.4742  0.0969 -0.2148
  112OSM   H16S11620   6.300   1.136   9.450  0.3777  0.2134  0.9056
  112OSM   H16T11621   6.335   0.969   9.496  1.0389 -0.1192  0.0199
  112OSM   C17S11622   6.459   1.057   9.335  0.0938  0.9721  0.1209
  112OSM   H17S11623   6.566   1.031   9.351 -0.0843  1.8091  3.6612
  112OSM   H17T11624   6.449   1.163   9.303  1.5961  0.7654 -1.1396
  112OSM   C18S11625   6.396   0.966   9.227  0.3632 -0.1903  0.1419
  112OSM   H18S11626   6.394   0.863   9.268  1.7527 -0.0331  0.6544
  112OSM   H18T11627   6.450   0.960   9.129 -3.1949  0.2710 -2.0172
  112OSM   H18U11628   6.291   0.994   9.206 -0.3627 -2.2314  0.8781
  112OSM    C1F11629   6.268   1.487  10.452 -0.4776  0.7694  0.8630
  112OSM     OF11630   6.311   1.592  10.409 -0.0195 -0.0933 -0.1980
  112OSM    C2F11631   6.169   1.399  10.375  0.0683 -0.7697 -0.2099
  112OSM    H2F11632   6.072   1.402  10.430  1.2196 -0.8827  1.9371
  112OSM    H2G11633   6.202   1.293  10.369 -1.3108 -1.2007 -0.5735
  112OSM    C3F11634   6.138   1.459  10.228 -0.3711  0.2104 -0.3469
  112OSM    H3F11635   6.238   1.484  10.186  0.7890  0.5950  2.4640
  112OSM    H3G11636   6.084   1.553  10.248  3.2265  1.8846  2.8264
  112OSM    C4F11637   6.069   1.357  10.138 -0.1044  0.9024 -0.3319
  112OSM    H4F11638   5.975   1.338  10.193  1.5215 -4.5048  1.2028
  112OSM    H4G11639   6.118   1.259  10.155 -0.6372  1.0783  2.8262
  112OSM    C5F11640   6.046   1.401   9.997 -0.7421  0.5258 -1.0734
  112OSM    H5F11641   6.142   1.394   9.942  0.0482  0.9916  0.2007
  112OSM    H5G11642   6.012   1.507   9.997  0.2946  1.0001  2.5173
  112OSM    C6F11643   5.955   1.305   9.927  0.6195 -0.0610  1.1190
  112OSM    H6F11644   5.860   1.292   9.984  0.2113 -2.9187 -0.0293
  112OSM    H6G11645   5.990   1.200   9.933 -2.1886 -1.0823  1.2716
  112OSM    C7F11646   5.940   1.342   9.780 -0.3185  0.0084  0.2021
  112OSM    H7F11647   5.892   1.262   9.719 -1.0848 -0.1561  1.0002
  112OSM    H7G11648   6.042   1.334   9.737  0.2013  0.3525  1.3235
  112OSM    C8F11649   5.889   1.480   9.748  0.2217 -0.3921 -0.2866
  112OSM    H8F11650   5.967   1.550   9.785  2.2434 -1.7422 -1.7708
  112OSM    H8G11651   5.794   1.496   9.802  0.5436  0.1958  0.1151
  112OSM    C9F11652   5.874   1.499   9.598 -0.6647 -0.2410  0.2353
  112OSM    H9F11653   5.773   1.505   9.555 -0.0949 -0.2500 -1.1558
  112OSM   C10F11654   5.979   1.509   9.516 -0.5217 -0.0834 -0.3864
  112OSM   H10F11655   5.948   1.537   9.414 -1.4045  0.0799 -0.0798
  112OSM   C11F11656   6.131   1.511   9.540  0.0121  0.6293  0.0371
  112OSM   H11F11657   6.162   1.500   9.646  1.8828 -1.7902 -0.6405
  112OSM   H11G11658   6.169   1.605   9.495  1.7301 -0.1774 -0.3097
  112OSM   C12F11659   6.189   1.397   9.459  0.8411 -0.0642 -0.1689
  112OSM   H12F11660   6.149   1.304   9.504 -2.2839 -0.2174 -2.9139
  112OSM   H12G11661   6.300   1.408   9.461  1.2243 -3.0090 -0.6495
  112OSM   C13F11662   6.157   1.397   9.311 -1.1148 -0.3469  0.5263
  112OSM   H13F11663   6.049   1.370   9.307 -1.2122  0.0061  0.7320
  112OSM   H13G11664   6.215   1.326   9.247 -1.0280  1.2300 -1.2444
  112OSM   C14F11665   6.163   1.525   9.234 -0.4219  1.0189 -0.1712
  112OSM   H14F11666   6.258   1.577   9.258  1.1732 -1.9317  0.3619
  112OSM   H14G11667   6.074   1.590   9.253 -0.0500  1.3145  0.5721
  112OSM   C15F11668   6.155   1.505   9.077  0.4303 -0.3474 -0.8015
  112OSM   H15F11669   6.061   1.468   9.033  1.1033 -2.2266 -0.7734
  112OSM   H15G11670   6.218   1.414   9.065  0.2736 -0.8598  1.7186
  112OSM   C16F11671   6.211   1.618   8.989  0.3437  0.0418 -0.1905
  112OSM   H16F11672   6.308   1.643   9.036  0.7931 -1.5657 -0.2112
  112OSM   H16G11673   6.138   1.701   8.979 -0.1955 -0.5011 -0.8278
  112OSM   C17F11674   6.261   1.573   8.855  0.4275  0.2799 -0.1694
  112OSM   H17F11675   6.307   1.666   8.814 -0.4929 -0.4131 -3.0273
  112OSM   H17G11676   6.170   1.544   8.797  0.8066 -0.6573 -0.3126
  112OSM   C18F11677   6.374   1.468   8.840  0.3849 -0.0719 -0.2201
  112OSM   H18F11678   6.343   1.369   8.877  0.1049 -0.0003 -0.2630
  112OSM   H18G11679   6.463   1.506   8.895  0.9415 -1.3651 -0.2022
  112OSM   H18H11680   6.401   1.451   8.733  1.6259 -0.4761  0.1337
  113OSM      N11681   0.229   0.438  11.131 -0.3135  0.7550  0.6052
  113OSM    C1511682   0.335   0.341  11.076 -0.4370 -0.2381  0.3173
  113OSM   H15A11683   0.368   0.371  10.978 -1.2556  2.2520  0.7253
  113OSM   H15B11684   0.293   0.242  11.072 -2.0873  0.4571 -0.6197
  113OSM   H15C11685   0.423   0.335  11.138  0.7501  2.7998 -0.8812
  113OSM    C1411686   0.176   0.387  11.258 -0.7862  0.3296  0.1165
  113OSM   H14A11687   0.118   0.295  11.259 -0.5365  0.1702  0.0630
  113OSM   H14B11688   0.118   0.459  11.313 -1.7325 -1.3685  1.4261
  113OSM   H14C11689   0.261   0.363  11.320  0.0768 -0.7379 -1.3945
  113OSM    C1311690   0.299   0.567  11.161  0.1781 -0.1526 -0.7961
  113OSM   H13A11691   0.225   0.643  11.183  0.0276 -1.4218  4.1015
  113OSM   H13B11692   0.365   0.592  11.079 -1.1237  0.7063 -1.6147
  113OSM   H13C11693   0.351   0.558  11.255 -0.5444 -0.6399 -0.4363
  113OSM    C1211694   0.113   0.449  11.030  0.6147  0.6350  0.4638
  113OSM   H12A11695   0.055   0.532  11.068  0.2354 -0.0149  1.3365
  113OSM   H12B11696   0.047   0.364  11.042 -1.1569  2.1292  2.0054
  113OSM    C1111697   0.136   0.465  10.875  0.4899 -0.2143  0.5737
  113OSM   H11A11698   0.046   0.472  10.809  1.3981  0.6678 -0.6059
  113OSM   H11B11699   0.175   0.364  10.849 -0.6716 -0.4016 -0.5816
  113OSM      P11700   0.217   0.708  10.866 -0.1566  0.4401  0.0808
  113OSM    O1311701   0.097   0.732  10.949 -0.2906  0.4718  0.1702
  113OSM    O1411702   0.349   0.777  10.897  0.1157  0.7006 -0.2602
  113OSM    O1111703   0.169   0.756  10.719  0.0003  0.5171 -0.0320
  113OSM    O1211704   0.245   0.556  10.849  0.5578 -0.7009  0.3137
  113OSM    C1S11705   0.235   0.684  10.612  0.4491  0.9692  0.0272
  113OSM    H1S11706   0.188   0.585  10.592 -1.4148  1.9548 -0.7323
  113OSM    H1T11707   0.343   0.662  10.628  0.0069 -0.3757  1.4144
  113OSM     NF11708   0.268   0.675  10.369  0.3423 -0.1332  0.7299
  113OSM    HNF11709   0.366   0.690  10.359  0.4973 -0.1012  2.0939
  113OSM    C2S11710   0.208   0.747  10.480  0.5622  0.5535 -0.3821
  113OSM    H2S11711   0.098   0.751  10.465  0.0659  2.0681  2.8264
  113OSM    C3S11712   0.240   0.894  10.485 -0.4466 -0.4547 -0.1930
  113OSM    H3S11713   0.348   0.915  10.497 -0.1732 -1.7597 -0.2260
  113OSM     O311714   0.163   0.970  10.571  0.0942  0.2126  0.6868
  113OSM    HO311715   0.128   0.909  10.637 -0.4176 -1.8689 -1.3919
  113OSM    C4S11716   0.218   0.954  10.352  0.9090  0.2368 -0.1639
  113OSM    H4S11717   0.111   0.964  10.328  0.6312 -2.0863 -0.0810
  113OSM    C5S11718   0.305   0.984  10.251  0.2947 -0.6860  0.3059
  113OSM    H5S11719   0.414   0.970  10.265  0.6349  1.4542  0.2145
  113OSM    C6S11720   0.261   1.038  10.116  0.2167 -0.6596  0.0734
  113OSM    H6S11721   0.313   1.131  10.083  0.5038 -1.2565 -1.2103
  113OSM    H6T11722   0.155   1.066  10.135  0.8784  0.0816  3.3766
  113OSM    C7S11723   0.277   0.943  10.001 -0.8746  0.2608  0.2166
  113OSM    H7S11724   0.245   0.841  10.031  0.6350 -0.0154  1.0337
  113OSM    H7T11725   0.387   0.947   9.986 -0.7789  3.5824  0.9490
  113OSM    C8S11726   0.202   0.992   9.875  0.4487 -0.6070 -0.9305
  113OSM    H8S11727   0.211   1.103   9.867 -2.3358 -0.1271  1.0352
  113OSM    H8T11728   0.095   0.966   9.886  0.6056 -0.7644  0.4043
  113OSM    C9S11729   0.276   0.935   9.754  1.1314  0.5599 -0.0823
  113OSM    H9S11730   0.277   0.824   9.748 -0.2135  0.5246  0.2022
  113OSM    H9T11731   0.386   0.955   9.754  0.9730  1.5081  0.8643
  113OSM   C10S11732   0.231   1.002   9.623  0.5029 -0.3789 -1.1831
  113OSM   H10S11733   0.308   0.974   9.549  1.1162 -2.8368  0.2843
  113OSM   H10T11734   0.238   1.113   9.630  0.6272 -0.4795  1.9039
  113OSM   C11S11735   0.091   0.961   9.575 -0.8517  0.1700  0.5173
  113OSM   H11S11736   0.012   0.987   9.649  0.6000  0.0164  2.2035
  113OSM   H11T11737   0.083   0.851   9.561 -0.8711  0.1614  0.5956
  113OSM   C12S11738   0.051   1.030   9.445  0.9477 -0.4922  0.3104
  113OSM   H12S11739   0.075   1.138   9.441  0.4116 -0.4116 -1.7228
  113OSM   H12T11740  -0.059   1.021   9.432  0.9559  0.4264 -0.5451
  113OSM   C13S11741   0.113   0.959   9.323  0.4735 -0.6213 -0.1870
  113OSM   H13S11742   0.057   0.868   9.292  2.4984 -1.9870 -0.0305
  113OSM   H13T11743   0.218   0.938   9.351  0.0847 -0.5713  1.3981
  113OSM   C14S11744   0.104   1.054   9.195 -0.4523  0.5106  0.5865
  113OSM   H14S11745   0.164   0.997   9.120  0.1837  0.2312  1.2877
  113OSM   H14T11746   0.159   1.150   9.213  2.0731 -0.5741 -0.7789
  113OSM   C15S11747  -0.039   1.084   9.145 -0.1078 -0.8131  0.1878
  113OSM   H15S11748  -0.091   1.150   9.217  0.9791 -0.0173  0.2675
  113OSM   H15T11749  -0.099   0.991   9.138  1.3379 -1.7447 -0.4008
  113OSM   C16S11750  -0.041   1.135   9.000  0.0341  0.2311 -0.3031
  113OSM   H16S11751   0.065   1.126   8.967 -0.2167 -2.9424 -0.6358
  113OSM   H16T11752  -0.074   1.241   9.002 -1.6443 -0.2035  3.4096
  113OSM   C17S11753  -0.114   1.045   8.908 -0.0638 -0.3488 -0.0715
  113OSM   H17S11754  -0.220   1.067   8.932  0.3241  0.7257  0.7498
  113OSM   H17T11755  -0.107   0.935   8.918 -1.2040 -0.3640  0.8740
  113OSM   C18S11756  -0.077   1.068   8.758  0.4782 -0.4022  0.4456
  113OSM   H18S11757  -0.068   1.177   8.738 -0.4480 -0.6231 -1.3821
  113OSM   H18T11758  -0.158   1.017   8.702 -0.0953  0.4755  0.4389
  113OSM   H18U11759   0.017   1.017   8.729  0.4272 -1.1604  1.5570
  113OSM    C1F11760   0.224   0.565  10.309  0.4168  0.5583 -0.3667
  113OSM     OF11761   0.128   0.502  10.343  0.6050 -0.1092 -0.3088
  113OSM    C2F11762   0.310   0.514  10.196  0.2340  0.6387 -0.4916
  113OSM    H2F11763   0.247   0.488  10.109  1.9480 -1.1468 -1.2818
  113OSM    H2G11764   0.360   0.422  10.232  1.5677  2.1303  1.7329
  113OSM    C3F11765   0.424   0.608  10.158 -0.0332  0.1641  0.6062
  113OSM    H3F11766   0.499   0.621  10.239 -1.6530  0.3191  2.1243
  113OSM    H3G11767   0.386   0.711  10.141 -0.3538 -0.0632 -0.0974
  113OSM    C4F11768   0.495   0.569  10.031  0.4204 -0.5592  0.4978
  113OSM    H4F11769   0.546   0.663  10.001 -1.7350  0.4274 -0.2718
  113OSM    H4G11770   0.422   0.554   9.949  0.4480  0.7252  0.2099
  113OSM    C5F11771   0.592   0.454  10.023  0.3352 -0.1927  0.3009
  113OSM    H5F11772   0.659   0.460  10.112  0.2233 -3.0403  0.6807
  113OSM    H5G11773   0.658   0.459   9.934 -0.4718 -0.8891 -0.3440
  113OSM    C6F11774   0.534   0.310  10.020 -0.1118 -1.3920 -0.4910
  113OSM    H6F11775   0.492   0.291  10.121 -1.4152  1.1499 -0.4741
  113OSM    H6G11776   0.619   0.239  10.024 -0.3364 -1.6488 -0.2885
  113OSM    C7F11777   0.432   0.283   9.910  0.9635 -0.5298  0.0974
  113OSM    H7F11778   0.358   0.364   9.928  2.0751  0.6440 -0.4443
  113OSM    H7G11779   0.385   0.183   9.924 -0.3345 -0.5117 -3.2565
  113OSM    C8F11780   0.481   0.293   9.770  0.4934  0.2861  0.0647
  113OSM    H8F11781   0.525   0.394   9.773 -1.4347  1.1568  0.4103
  113OSM    H8G11782   0.391   0.295   9.704 -0.5561  1.5684  1.4590
  113OSM    C9F11783   0.585   0.190   9.736 -0.1334 -0.0911 -0.2777
  113OSM    H9F11784   0.692   0.212   9.751 -0.2000 -0.2319  0.4575
  113OSM   C10F11785   0.551   0.077   9.672  0.4577 -0.1306  0.2657
  113OSM   H10F11786   0.631   0.010   9.639 -0.7532 -0.9982 -1.0525
  113OSM   C11F11787   0.414   0.027   9.645 -0.3614  0.1016 -0.2235
  113OSM   H11F11788   0.343   0.085   9.708 -0.9427  2.0644 -2.4994
  113OSM   H11G11789   0.415  -0.075   9.688  1.0791 -0.1473 -0.7927
  113OSM   C12F11790   0.360   0.020   9.499 -0.2911 -0.0533  0.3198
  113OSM   H12F11791   0.429  -0.045   9.440 -0.6161  0.5119 -0.7140
  113OSM   H12G11792   0.375   0.120   9.455 -0.6925 -0.0105  0.2771
  113OSM   C13F11793   0.214  -0.018   9.489  0.8962  0.6345  0.3144
  113OSM   H13F11794   0.178  -0.014   9.384  0.6299  0.9507  0.4168
  113OSM   H13G11795   0.154   0.044   9.559 -3.4729 -0.6881 -1.9192
  113OSM   C14F11796   0.189  -0.164   9.530  0.8615 -0.6023  0.0024
  113OSM   H14F11797   0.085  -0.173   9.567  0.7550  1.6337  0.3759
  113OSM   H14G11798   0.254  -0.179   9.619 -0.7735  1.3339  1.6126
  113OSM   C15F11799   0.226  -0.252   9.406 -0.4980 -0.0674 -0.4408
  113OSM   H15F11800   0.324  -0.221   9.365  0.9661 -0.8287  2.2101
  113OSM   H15G11801   0.155  -0.232   9.323  1.0233  1.6675 -1.3784
  113OSM   C16F11802   0.215  -0.407   9.426  0.1659  0.3527  0.5308
  113OSM   H16F11803   0.124  -0.455   9.467  1.1352 -0.5563  1.7057
  113OSM   H16G11804   0.301  -0.439   9.489  0.0159 -0.5840  0.2721
  113OSM   C17F11805   0.223  -0.489   9.293 -0.0877 -0.5652 -0.4432
  113OSM   H17F11806   0.245  -0.594   9.322  0.7752 -0.7735 -1.7700
  113OSM   H17G11807   0.310  -0.457   9.232 -0.2363 -0.6247 -0.6890
  113OSM   C18F11808   0.096  -0.478   9.210  0.2082  0.0866 -0.3317
  113OSM   H18F11809   0.090  -0.371   9.179 -1.6884 -0.5037 -2.2191
  113OSM   H18G11810   0.012  -0.515   9.272  0.7707 -0.7984 -0.0842
  113OSM   H18H11811   0.100  -0.534   9.114  1.0132 -0.9403  0.2821
  114OSM      N11812   0.939   6.393  11.747  0.5945  0.2717 -0.2796
  114OSM    C1511813   0.862   6.304  11.845 -0.4456  0.1034  0.3910
  114OSM   H15A11814   0.866   6.337  11.947  0.2486  1.3385 -0.0096
  114OSM   H15B11815   0.908   6.207  11.843  2.0312  1.2107  0.3421
  114OSM   H15C11816   0.758   6.311  11.815 -0.9253 -2.4190  1.2893
  114OSM    C1411817   0.923   6.533  11.792  0.4445 -0.6577  0.7817
  114OSM   H14A11818   0.822   6.568  11.781  1.0011  1.0219  0.6984
  114OSM   H14B11819   0.978   6.595  11.723 -0.7484 -1.5773 -1.0795
  114OSM   H14C11820   0.959   6.561  11.890 -0.1321  0.4207  0.6946
  114OSM    C1311821   1.084   6.356  11.768  0.5043  0.3905  0.0013
  114OSM   H13A11822   1.112   6.382  11.869 -1.6459  0.4400  0.6475
  114OSM   H13B11823   1.130   6.422  11.696  1.4317  0.6947  0.8490
  114OSM   H13C11824   1.105   6.251  11.751  0.2257 -0.1076  2.3543
  114OSM    C1211825   0.890   6.372  11.609  0.0166 -0.1545  1.0651
  114OSM   H12A11826   0.908   6.271  11.577 -0.0987 -0.5561  2.2094
  114OSM   H12B11827   0.949   6.432  11.541 -1.7657 -0.1180 -0.5565
  114OSM    C1111828   0.749   6.420  11.557  0.1341  0.1544 -0.1631
  114OSM   H11A11829   0.740   6.418  11.446 -2.3705 -0.6441 -0.0039
  114OSM   H11B11830   0.733   6.525  11.588  2.4626  0.0597  1.5852
  114OSM      P11831   0.495   6.354  11.573  0.3858 -0.1035 -0.3693
  114OSM    O1311832   0.415   6.312  11.689 -0.6789  0.2458  0.1959
  114OSM    O1411833   0.469   6.490  11.526  0.1744 -0.4530  0.0031
  114OSM    O1111834   0.464   6.260  11.452 -0.4320  0.3388 -0.0425
  114OSM    O1211835   0.653   6.325  11.604  0.4273 -0.5726  0.1824
  114OSM    C1S11836   0.532   6.265  11.320 -0.1077 -0.3719  0.9626
  114OSM    H1S11837   0.630   6.213  11.313  0.0704  0.0475  0.1859
  114OSM    H1T11838   0.545   6.372  11.291 -2.3656 -0.4164 -0.4602
  114OSM     NF11839   0.521   6.210  11.081 -0.0308  0.2539 -0.0302
  114OSM    HNF11840   0.496   6.287  11.022 -1.1316 -0.8559 -1.0827
  114OSM    C2S11841   0.446   6.204  11.210  0.1182  0.1562 -0.1137
  114OSM    H2S11842   0.428   6.096  11.228  1.0302  0.0658  0.3180
  114OSM    C3S11843   0.303   6.272  11.202 -0.8872  0.5752 -0.1482
  114OSM    H3S11844   0.330   6.378  11.182 -0.9587  1.1660  2.5111
  114OSM     O311845   0.225   6.268  11.327  0.1886 -0.0462  0.3705
  114OSM    HO311846   0.294   6.263  11.394  1.1807 -0.9349 -0.6533
  114OSM    C4S11847   0.222   6.216  11.083 -0.1933 -1.1811  0.1173
  114OSM    H4S11848   0.218   6.107  11.078 -0.7005 -1.1578 -0.0409
  114OSM    C5S11849   0.184   6.294  10.980 -0.9219 -0.9145 -0.1563
  114OSM    H5S11850   0.196   6.402  10.962 -0.7583 -1.3062 -2.8608
  114OSM    C6S11851   0.110   6.242  10.858 -0.4243 -0.6135  0.4604
  114OSM    H6S11852   0.022   6.308  10.838 -0.3664 -0.1355  1.7090
  114OSM    H6T11853   0.086   6.134  10.866  1.4594 -1.1321 -0.3499
  114OSM    C7S11854   0.200   6.257  10.737  0.9938 -0.4188 -0.5366
  114OSM    H7S11855   0.242   6.359  10.728  2.3008 -0.9643 -0.7860
  114OSM    H7T11856   0.129   6.227  10.657  0.5713 -1.2270  0.1248
  114OSM    C8S11857   0.313   6.149  10.736 -0.3935  0.3599 -0.8789
  114OSM    H8S11858   0.266   6.049  10.752 -1.8111  1.0245 -0.7574
  114OSM    H8T11859   0.386   6.164  10.819 -0.3727 -1.8938 -0.4055
  114OSM    C9S11860   0.387   6.144  10.599 -0.2857 -0.7548  0.2962
  114OSM    H9S11861   0.309   6.138  10.520 -3.1549  3.3704  2.4238
  114OSM    H9T11862   0.457   6.058  10.607  1.9880  1.0255  0.8699
  114OSM   C10S11863   0.479   6.261  10.581 -0.3322  0.7326 -0.7170
  114OSM   H10S11864   0.534   6.270  10.677  0.2375 -5.0567 -0.1230
  114OSM   H10T11865   0.423   6.353  10.556  0.6630  1.9420  1.3062
  114OSM   C11S11866   0.593   6.235  10.477  0.4893 -0.0345  0.1290
  114OSM   H11S11867   0.555   6.197  10.380 -0.0935  0.9053 -0.0240
  114OSM   H11T11868   0.664   6.160  10.519 -1.0258 -0.0009  3.0210
  114OSM   C12S11869   0.675   6.359  10.449 -0.1730  0.1414  0.2578
  114OSM   H12S11870   0.735   6.393  10.536 -0.3621 -0.0751  0.4715
  114OSM   H12T11871   0.613   6.446  10.419  0.4755  0.9758  1.2692
  114OSM   C13S11872   0.781   6.324  10.337  0.6739  0.2508 -0.7809
  114OSM   H13S11873   0.830   6.417  10.300 -1.6245  1.4549 -1.0116
  114OSM   H13T11874   0.734   6.269  10.253  2.0462 -1.7612 -0.3085
  114OSM   C14S11875   0.898   6.235  10.379  0.9040 -0.0037 -0.1963
  114OSM   H14S11876   0.860   6.139  10.421  2.1067  0.0704  1.1519
  114OSM   H14T11877   0.958   6.277  10.463  0.0246  0.1154  0.3823
  114OSM   C15S11878   1.002   6.201  10.266  0.1752  0.2688 -0.1455
  114OSM   H15S11879   1.011   6.283  10.192 -0.7505 -0.9821 -1.6999
  114OSM   H15T11880   0.963   6.128  10.192  0.4785 -0.9634  0.8849
  114OSM   C16S11881   1.144   6.176  10.316  0.2188 -0.3611 -0.0344
  114OSM   H16S11882   1.153   6.189  10.426  0.5653  0.6162 -0.1658
  114OSM   H16T11883   1.208   6.256  10.273 -1.1541 -0.1736 -1.8020
  114OSM   C17S11884   1.197   6.046  10.271  0.1434  0.4151  0.7200
  114OSM   H17S11885   1.299   6.042  10.314 -0.5259 -1.5528  2.2970
  114OSM   H17T11886   1.195   6.034  10.161  1.2126  3.3369  0.2897
  114OSM   C18S11887   1.123   5.927  10.336 -0.6244  0.1087  0.3840
  114OSM   H18S11888   1.135   5.942  10.445 -0.4131  0.4836  0.3114
  114OSM   H18T11889   1.170   5.832  10.305  1.4233  0.7339  1.3799
  114OSM   H18U11890   1.018   5.923  10.299 -1.1522  1.4398  1.6256
  114OSM    C1F11891   0.630   6.140  11.055 -0.4777 -0.5016  0.1371
  114OSM     OF11892   0.648   6.027  11.109  0.0979 -0.4831  0.1117
  114OSM    C2F11893   0.723   6.211  10.965  0.0003 -0.6528  0.9565
  114OSM    H2F11894   0.796   6.264  11.030 -1.0454  2.6729 -0.3929
  114OSM    H2G11895   0.664   6.283  10.905 -0.1439 -1.0915  0.5645
  114OSM    C3F11896   0.794   6.117  10.875 -0.1427 -0.0784 -0.2431
  114OSM    H3F11897   0.717   6.064  10.814 -1.0741  2.3013 -1.2661
  114OSM    H3G11898   0.838   6.030  10.929 -0.5033 -0.1016  0.0187
  114OSM    C4F11899   0.899   6.177  10.781  0.2016  0.7568  0.4179
  114OSM    H4F11900   0.862   6.252  10.709 -2.7976 -1.3771 -0.4654
  114OSM    H4G11901   0.931   6.090  10.719 -1.5671 -0.8534  1.6644
  114OSM    C5F11902   1.020   6.226  10.862  0.7949 -0.3365  0.8210
  114OSM    H5F11903   1.045   6.137  10.924 -2.2933 -2.1282 -0.3162
  114OSM    H5G11904   0.984   6.310  10.925 -0.6533 -0.1916 -0.1519
  114OSM    C6F11905   1.136   6.262  10.773 -0.2989 -0.5779  0.3891
  114OSM    H6F11906   1.103   6.334  10.695 -2.6609 -0.0625  1.7610
  114OSM    H6G11907   1.167   6.174  10.713 -0.0120 -0.5808  0.5409
  114OSM    C7F11908   1.260   6.320  10.848  0.4876  0.0971  0.0299
  114OSM    H7F11909   1.292   6.254  10.931  0.4728 -0.8251 -0.6675
  114OSM    H7G11910   1.234   6.414  10.900 -0.3109 -0.7862  1.2657
  114OSM    C8F11911   1.372   6.341  10.748 -0.3020  0.0001  0.9132
  114OSM    H8F11912   1.460   6.390  10.795 -0.1783 -1.5497  2.4103
  114OSM    H8G11913   1.329   6.412  10.675  0.0947 -0.5941  0.0829
  114OSM    C9F11914   1.424   6.214  10.694 -0.3669  0.3671  0.7719
  114OSM    H9F11915   1.440   6.138  10.771 -0.3522 -0.5868 -0.1611
  114OSM   C10F11916   1.464   6.187  10.564  0.1642 -0.5195 -0.1969
  114OSM   H10F11917   1.502   6.085  10.552 -1.5895 -1.4120  1.3070
  114OSM   C11F11918   1.439   6.279  10.445 -0.2295  0.0724 -0.5875
  114OSM   H11F11919   1.340   6.329  10.446 -1.8564 -2.9150  0.2858
  114OSM   H11G11920   1.442   6.221  10.350  0.0743  2.7057 -2.2930
  114OSM   C12F11921   1.556   6.381  10.439  0.6387  0.8455  0.0872
  114OSM   H12F11922   1.658   6.337  10.437 -0.2145 -1.2793 -1.5218
  114OSM   H12G11923   1.555   6.447  10.529  0.3993 -1.3434  1.8013
  114OSM   C13F11924   1.545   6.470  10.318 -0.1414 -1.0626  0.3995
  114OSM   H13F11925   1.621   6.551  10.319 -1.8972  0.7705 -2.1976
  114OSM   H13G11926   1.447   6.523  10.321  0.5794  0.6598 -2.6785
  114OSM   C14F11927   1.582   6.404  10.185 -0.0266  0.3901 -0.6013
  114OSM   H14F11928   1.511   6.321  10.169  1.1158 -0.6990 -0.1430
  114OSM   H14G11929   1.683   6.358  10.183 -0.1808  0.0721 -1.4860
  114OSM   C15F11930   1.573   6.495  10.070 -0.1675 -0.2680 -0.1319
  114OSM   H15F11931   1.614   6.595  10.094  2.4958 -1.4421  0.5957
  114OSM   H15G11932   1.470   6.515  10.034 -0.4222 -0.5925  0.3966
  114OSM   C16F11933   1.669   6.445   9.949 -0.4522  0.0307 -0.4087
  114OSM   H16F11934   1.647   6.336   9.939 -1.3076  0.2409 -0.9318
  114OSM   H16G11935   1.772   6.446   9.991 -0.4321 -0.6702 -0.4182
  114OSM   C17F11936   1.664   6.525   9.821  0.9072 -0.0425 -0.2393
  114OSM   H17F11937   1.692   6.630   9.844  3.9042 -0.9095  0.6706
  114OSM   H17G11938   1.560   6.530   9.784  0.3995 -1.8583  0.7758
  114OSM   C18F11939   1.750   6.469   9.711 -0.5042 -0.0833 -0.8700
  114OSM   H18F11940   1.740   6.359   9.709  0.4244 -0.1736 -1.2049
  114OSM   H18G11941   1.857   6.495   9.727 -0.7338  0.9017 -0.8374
  114OSM   H18H11942   1.715   6.513   9.615 -2.4119  1.4892  0.4836
  115OSM      N11943   2.641   3.203   5.759  0.2027  0.4668 -0.5300
  115OSM    C1511944   2.504   3.160   5.719  0.6412  0.3168 -0.0190
  115OSM   H15A11945   2.445   3.242   5.680 -0.0642 -0.8289 -1.4397
  115OSM   H15B11946   2.459   3.109   5.802  2.7779  0.6740  1.4485
  115OSM   H15C11947   2.518   3.081   5.647 -0.6313  1.0520 -1.1102
  115OSM    C1411948   2.728   3.086   5.765  0.5837 -0.1133 -0.0963
  115OSM   H14A11949   2.690   3.015   5.837  1.3641 -1.8689 -1.3313
  115OSM   H14B11950   2.828   3.119   5.792  0.0890 -0.3159  2.1541
  115OSM   H14C11951   2.733   3.029   5.674 -0.1930 -0.2644 -0.0499
  115OSM    C1311952   2.684   3.291   5.651 -0.4806  0.4316 -0.1038
  115OSM   H13A11953   2.651   3.393   5.664 -0.7442  0.5030 -1.2251
  115OSM   H13B11954   2.650   3.254   5.556 -0.4361 -0.7564  0.3312
  115OSM   H13C11955   2.792   3.294   5.637 -0.4361 -0.9406 -0.1496
  115OSM    C1211956   2.624   3.280   5.890  0.2505  0.0002  0.0151
  115OSM   H12A11957   2.542   3.351   5.889  1.7116  1.8158  1.0975
  115OSM   H12B11958   2.714   3.337   5.912  0.4328 -0.4434  0.4483
  115OSM    C1111959   2.612   3.193   6.016  0.2720 -0.3110 -0.1397
  115OSM   H11A11960   2.704   3.130   6.013  0.1435 -0.4831 -0.5257
  115OSM   H11B11961   2.524   3.125   6.007  1.6298 -1.9575 -1.9103
  115OSM      P11962   2.465   3.296   6.208  0.0119 -0.0959  0.3326
  115OSM    O1311963   2.460   3.431   6.273  0.0381 -0.7387 -0.1508
  115OSM    O1411964   2.347   3.261   6.123 -0.6587 -0.4277 -0.2377
  115OSM    O1111965   2.473   3.178   6.312 -1.2378 -0.3383 -0.1776
  115OSM    O1211966   2.597   3.290   6.125 -0.2799  0.6802 -0.2107
  115OSM    C1S11967   2.598   3.155   6.376  0.2155 -0.1906  0.7015
  115OSM    H1S11968   2.689   3.185   6.319 -0.7325  0.4861 -0.5053
  115OSM    H1T11969   2.617   3.046   6.380  1.9676  0.0950  0.9158
  115OSM     NF11970   2.723   3.131   6.586  0.4627 -0.5511 -1.0291
  115OSM    HNF11971   2.710   3.057   6.651  1.2589  0.6805  0.5859
  115OSM    C2S11972   2.599   3.192   6.530  0.0732  0.4905  0.0300
  115OSM    H2S11973   2.604   3.302   6.545 -1.5707  0.3134  2.2599
  115OSM    C3S11974   2.477   3.145   6.609 -0.5921 -0.2857  0.3327
  115OSM    H3S11975   2.480   3.038   6.637  0.7263 -0.1397  0.8279
  115OSM     O311976   2.355   3.149   6.536  0.0819  0.0835  0.1043
  115OSM    HO311977   2.387   3.155   6.445  1.8322  2.3412  0.7700
  115OSM    C4S11978   2.464   3.221   6.737  0.1118  0.3116  0.3430
  115OSM    H4S11979   2.523   3.184   6.822  1.9930  1.8223 -0.2196
  115OSM    C5S11980   2.393   3.331   6.764  0.1526  0.3000  0.1747
  115OSM    H5S11981   2.338   3.390   6.689  2.0250  1.6490 -0.2111
  115OSM    C6S11982   2.381   3.408   6.886 -0.9745  0.0905 -0.0999
  115OSM    H6S11983   2.423   3.507   6.860  0.3670 -0.2720  0.5739
  115OSM    H6T11984   2.443   3.377   6.974  1.0691  1.5903 -0.9343
  115OSM    C7S11985   2.239   3.423   6.931 -0.9004 -0.4566 -1.1275
  115OSM    H7S11986   2.209   3.317   6.946  1.3103 -1.0585 -0.5353
  115OSM    H7T11987   2.176   3.476   6.857  1.8296  0.3418 -3.0308
  115OSM    C8S11988   2.228   3.494   7.068  0.1505 -0.4856  0.5963
  115OSM    H8S11989   2.121   3.480   7.095  0.0144 -0.5768  0.0189
  115OSM    H8T11990   2.245   3.604   7.061 -1.1762 -0.3561 -1.4331
  115OSM    C9S11991   2.316   3.442   7.187  0.2306  0.2708  0.3976
  115OSM    H9S11992   2.424   3.463   7.174  0.4513 -0.4427  1.0122
  115OSM    H9T11993   2.308   3.331   7.188  1.8064  0.1420  1.5647
  115OSM   C10S11994   2.262   3.486   7.325 -0.1421 -0.2150  0.0871
  115OSM   H10S11995   2.151   3.477   7.322 -0.1020 -0.5094 -0.6046
  115OSM   H10T11996   2.284   3.595   7.332 -0.7107 -0.0647 -0.4069
  115OSM   C11S11997   2.327   3.421   7.451 -0.3415  0.1656  0.7366
  115OSM   H11S11998   2.438   3.422   7.442 -0.4615  0.3075 -1.0304
  115OSM   H11T11999   2.303   3.313   7.453 -0.7777  0.0686 -2.9162
  115OSM   C12S12000   2.297   3.495   7.572  0.2927 -0.1016 -0.0372
  115OSM   H12S12001   2.190   3.525   7.576 -0.2815 -1.9213 -0.4184
  115OSM   H12T12002   2.364   3.584   7.574  0.9741 -0.6057 -0.0114
  115OSM   C13S12003   2.332   3.409   7.697 -0.4258  0.3211  0.1075
  115OSM   H13S12004   2.431   3.360   7.692  0.2920  1.6509  0.6429
  115OSM   H13T12005   2.251   3.334   7.710  0.4022 -0.5879  0.1448
  115OSM   C14S12006   2.339   3.495   7.818 -0.1797  0.0238 -0.2179
  115OSM   H14S12007   2.250   3.559   7.837  0.3172  0.7628 -0.3491
  115OSM   H14T12008   2.421   3.568   7.806  0.9431 -0.5586  2.8195
  115OSM   C15S12009   2.384   3.435   7.955  0.1073 -0.3065  0.3913
  115OSM   H15S12010   2.405   3.528   8.012 -0.5059  1.0240 -1.4468
  115OSM   H15T12011   2.475   3.375   7.934  0.0447 -0.0233 -0.7154
  115OSM   C16S12012   2.289   3.342   8.025 -0.2393 -0.8029  0.3284
  115OSM   H16S12013   2.292   3.249   7.965  1.6714 -0.3520 -0.3440
  115OSM   H16T12014   2.188   3.385   8.016  0.5371  1.3717  1.2744
  115OSM   C17S12015   2.334   3.298   8.166  0.1803  0.2160 -0.0853
  115OSM   H17S12016   2.369   3.387   8.223  0.9116 -0.9908  1.4079
  115OSM   H17T12017   2.426   3.237   8.154  0.4637  0.8442 -1.2617
  115OSM   C18S12018   2.230   3.215   8.242 -0.5193 -0.7171 -0.6256
  115OSM   H18S12019   2.251   3.174   8.343 -2.7932 -0.5604 -0.0363
  115OSM   H18T12020   2.208   3.122   8.185 -1.0532 -1.5793  0.9127
  115OSM   H18U12021   2.128   3.258   8.248  0.6712  2.1110  1.2093
  115OSM    C1F12022   2.850   3.157   6.554 -0.0880  0.7036  0.2672
  115OSM     OF12023   2.877   3.244   6.473  0.2038 -0.7868  0.0599
  115OSM    C2F12024   2.949   3.077   6.634 -0.3243 -0.5892  0.4685
  115OSM    H2F12025   3.014   3.035   6.554  0.3036  1.8392 -0.3767
  115OSM    H2G12026   2.900   2.996   6.693 -2.5690  0.1776 -0.2578
  115OSM    C3F12027   3.030   3.171   6.723 -0.6543 -0.1779  0.0672
  115OSM    H3F12028   3.077   3.246   6.656 -0.4491  0.0424  0.4500
  115OSM    H3G12029   3.097   3.095   6.771 -0.5885 -0.3129 -0.2358
  115OSM    C4F12030   2.952   3.244   6.833 -0.2312 -0.3020  0.0025
  115OSM    H4F12031   2.888   3.321   6.785 -1.7243 -1.0275  0.7688
  115OSM    H4G12032   3.028   3.302   6.890  1.1092 -0.4643 -1.5368
  115OSM    C5F12033   2.874   3.159   6.935 -0.4007 -0.3830 -0.4527
  115OSM    H5F12034   2.950   3.101   6.991 -1.9022 -1.0844  0.9596
  115OSM    H5G12035   2.793   3.107   6.880 -0.6229  0.6300 -1.1156
  115OSM    C6F12036   2.803   3.253   7.036  0.2887  0.0334 -0.4886
  115OSM    H6F12037   2.720   3.313   6.992  0.4156  0.6261  0.0738
  115OSM    H6G12038   2.876   3.325   7.079 -0.2315 -0.5930  1.5780
  115OSM    C7F12039   2.755   3.170   7.152 -0.0650  0.0989  0.0731
  115OSM    H7F12040   2.838   3.104   7.186 -1.1161 -0.2870  2.0582
  115OSM    H7G12041   2.668   3.108   7.122 -1.0560  1.3382  0.3214
  115OSM    C8F12042   2.697   3.254   7.261 -0.6125 -0.8684 -0.0169
  115OSM    H8F12043   2.617   3.319   7.220  0.3918 -0.8223 -1.9879
  115OSM    H8G12044   2.785   3.310   7.299 -0.1347 -1.9982  0.5915
  115OSM    C9F12045   2.651   3.178   7.379  0.6320 -0.4562  0.3269
  115OSM    H9F12046   2.579   3.097   7.362  0.3529  0.1018 -1.3420
  115OSM   C10F12047   2.698   3.181   7.506  0.1677  0.3759 -0.4947
  115OSM   H10F12048   2.654   3.101   7.568  0.8802  0.3867  0.0314
  115OSM   C11F12049   2.792   3.288   7.562 -0.2494  1.4526  0.3495
  115OSM   H11F12050   2.789   3.377   7.496  2.3641  2.9412  2.1048
  115OSM   H11G12051   2.895   3.248   7.557 -0.7436  0.2454 -0.7683
  115OSM   C12F12052   2.771   3.324   7.707 -0.3880  0.1041  0.0319
  115OSM   H12F12053   2.673   3.372   7.728  0.4270  2.6479 -1.5080
  115OSM   H12G12054   2.843   3.406   7.727 -1.7209  1.3661 -0.2115
  115OSM   C13F12055   2.798   3.195   7.791  0.0318  0.5945  0.2263
  115OSM   H13F12056   2.889   3.142   7.755 -0.1146  0.2054  0.4200
  115OSM   H13G12057   2.711   3.127   7.778 -0.8018  1.4562  1.1620
  115OSM   C14F12058   2.811   3.226   7.941 -0.3200 -0.0834 -0.0935
  115OSM   H14F12059   2.713   3.264   7.980 -1.6371 -2.5374 -0.8506
  115OSM   H14G12060   2.890   3.304   7.946 -1.0388  0.6320  0.5883
  115OSM   C15F12061   2.874   3.098   8.015  0.0843 -0.0655  0.1252
  115OSM   H15F12062   2.970   3.061   7.975  1.2849  0.5601  2.2535
  115OSM   H15G12063   2.799   3.016   8.004  0.4667 -0.8690  2.7709
  115OSM   C16F12064   2.892   3.119   8.162 -0.1735  0.2167  0.0340
  115OSM   H16F12065   2.801   3.142   8.221 -0.2208  0.3795 -0.1016
  115OSM   H16G12066   2.977   3.190   8.174  0.0947  0.1034 -1.0600
  115OSM   C17F12067   2.941   2.987   8.231  0.1454  0.0512 -0.2963
  115OSM   H17F12068   3.018   2.932   8.174  1.0919 -0.3251  1.2806
  115OSM   H17G12069   2.843   2.935   8.226  0.3922 -0.3005 -3.0798
  115OSM   C18F12070   2.997   3.005   8.375 -0.2433  0.0222 -0.2494
  115OSM   H18F12071   2.918   3.061   8.429 -0.7043 -0.6518 -0.2217
  115OSM   H18G12072   3.088   3.069   8.387 -1.0996  1.1727  0.2634
  115OSM   H18H12073   3.022   2.909   8.426 -0.3301  0.0595 -0.1355
  116OSM      N12074   1.884   1.063   6.025 -0.0116  0.3609 -0.5423
  116OSM    C1512075   1.816   1.061   5.895  0.1063 -0.0744 -0.7754
  116OSM   H15A12076   1.711   1.078   5.914  0.1474 -2.1825  2.0123
  116OSM   H15B12077   1.823   0.969   5.840 -1.1802 -0.7679  0.1579
  116OSM   H15C12078   1.850   1.149   5.842 -1.8451  0.0055 -1.9992
  116OSM    C1412079   2.025   1.031   6.001  0.5496  0.6121  0.5164
  116OSM   H14A12080   2.064   1.088   5.918 -0.6598  0.6092 -0.0725
  116OSM   H14B12081   2.016   0.927   5.972 -4.4499  0.7006  0.9372
  116OSM   H14C12082   2.095   1.032   6.083  2.2606  1.2833 -0.8720
  116OSM    C1312083   1.890   1.202   6.082 -0.4593 -0.5869  0.7654
  116OSM   H13A12084   1.913   1.271   6.002  1.0991 -2.2856 -0.3213
  116OSM   H13B12085   1.959   1.215   6.164  0.4242  1.6157 -0.2671
  116OSM   H13C12086   1.795   1.238   6.118  0.8300 -0.4485  4.4320
  116OSM    C1212087   1.823   0.963   6.125 -0.3903 -0.4028  0.2668
  116OSM   H12A12088   1.722   1.000   6.142  0.2332  1.6615 -0.1741
  116OSM   H12B12089   1.875   0.966   6.220 -0.8323 -0.5626  0.5179
  116OSM    C1112090   1.813   0.813   6.077  0.6266  0.5541  0.5134
  116OSM   H11A12091   1.751   0.798   5.986 -1.1037  0.8792  1.5925
  116OSM   H11B12092   1.751   0.772   6.159 -2.3032  2.4559 -0.5833
  116OSM      P12093   2.027   0.682   6.166  0.3987  0.2164 -0.1897
  116OSM    O1312094   2.015   0.533   6.154 -0.1809  0.2802 -0.6525
  116OSM    O1412095   2.159   0.739   6.152  0.3345 -0.3756  0.0089
  116OSM    O1112096   1.961   0.744   6.300 -0.2026 -0.2828  0.2207
  116OSM    O1212097   1.941   0.753   6.051  0.1537  0.4034 -0.4376
  116OSM    C1S12098   1.949   0.657   6.414  0.5094  0.1552  0.0396
  116OSM    H1S12099   2.042   0.598   6.432  0.1490 -0.5149 -0.2621
  116OSM    H1T12100   1.873   0.579   6.392  1.4272 -0.1066 -2.4600
  116OSM     NF12101   1.947   0.648   6.661  0.2556 -0.4919  0.1937
  116OSM    HNF12102   1.873   0.607   6.714  0.7530  0.1385  1.4135
  116OSM    C2S12103   1.904   0.727   6.544 -0.3720  0.0875  0.3379
  116OSM    H2S12104   1.950   0.828   6.549 -0.1648 -0.0261  0.7777
  116OSM    C3S12105   1.750   0.762   6.538 -0.2471  0.4225  0.0657
  116OSM    H3S12106   1.696   0.665   6.539  1.7974 -0.7871  0.4193
  116OSM     O312107   1.712   0.823   6.417  0.1264 -0.9453 -0.2457
  116OSM    HO312108   1.790   0.828   6.362  1.5097  0.3061  1.7184
  116OSM    C4S12109   1.703   0.842   6.655 -0.1915  0.1129  0.1975
  116OSM    H4S12110   1.766   0.927   6.687  2.1761 -1.3163 -0.4271
  116OSM    C5S12111   1.590   0.828   6.722 -0.0750 -0.5955  0.4595
  116OSM    H5S12112   1.522   0.745   6.697 -1.3176  0.2497  0.9324
  116OSM    C6S12113   1.540   0.923   6.827  0.7081 -0.2118 -1.0854
  116OSM    H6S12114   1.432   0.937   6.808  0.6633  0.3602 -0.4428
  116OSM    H6T12115   1.592   1.021   6.821  0.3661  0.0395 -0.1704
  116OSM    C7S12116   1.551   0.856   6.964  0.4266  0.2146  0.0573
  116OSM    H7S12117   1.645   0.802   6.989 -1.3776 -1.1254  5.4970
  116OSM    H7T12118   1.477   0.772   6.965  1.5506 -0.8100 -0.7213
  116OSM    C8S12119   1.504   0.938   7.078 -0.3367 -0.5119  0.0510
  116OSM    H8S12120   1.403   0.974   7.051 -0.2022  1.2161  1.6470
  116OSM    H8T12121   1.580   1.019   7.087  1.1355 -1.9252  1.0816
  116OSM    C9S12122   1.504   0.853   7.210  0.1794 -0.2669  0.9635
  116OSM    H9S12123   1.609   0.851   7.248  1.7245  0.6029 -2.7519
  116OSM    H9T12124   1.459   0.752   7.200 -1.3049  0.4482  0.0170
  116OSM   C10S12125   1.410   0.924   7.318  0.1790  0.2099 -0.2332
  116OSM   H10S12126   1.309   0.884   7.295  0.2301 -0.2480  0.3319
  116OSM   H10T12127   1.427   1.033   7.301 -0.3225  0.5041  1.0258
  116OSM   C11S12128   1.441   0.876   7.451  0.6759 -0.5132 -0.3981
  116OSM   H11S12129   1.547   0.899   7.473  0.5517  1.2455 -1.4486
  116OSM   H11T12130   1.433   0.765   7.450  4.2547 -0.8783 -1.7793
  116OSM   C12S12131   1.336   0.926   7.555  0.3816 -0.2314 -0.2670
  116OSM   H12S12132   1.228   0.917   7.531 -0.1515  1.5314  1.2032
  116OSM   H12T12133   1.344   1.037   7.559 -0.4789 -0.1822  2.7358
  116OSM   C13S12134   1.349   0.858   7.688 -0.0394  0.2042 -0.4508
  116OSM   H13S12135   1.453   0.857   7.725  0.0284 -2.9493 -0.4823
  116OSM   H13T12136   1.327   0.749   7.680  0.3574 -0.0385  1.4829
  116OSM   C14S12137   1.261   0.917   7.795 -0.2278  0.0826 -0.0952
  116OSM   H14S12138   1.162   0.866   7.782 -0.8275  1.1163  0.3101
  116OSM   H14T12139   1.244   1.025   7.778  1.6259  0.8354  2.3586
  116OSM   C15S12140   1.318   0.896   7.931  0.0075 -0.5732  0.2965
  116OSM   H15S12141   1.418   0.946   7.936 -0.3595  0.2263 -0.1357
  116OSM   H15T12142   1.332   0.789   7.958 -1.1940 -1.2512 -1.6179
  116OSM   C16S12143   1.216   0.948   8.030 -0.9994  0.1144 -0.6818
  116OSM   H16S12144   1.114   0.926   7.990 -0.9949 -3.0637  0.7084
  116OSM   H16T12145   1.220   1.059   8.036 -0.7095  0.1212 -0.9784
  116OSM   C17S12146   1.217   0.886   8.169 -0.7027  0.0106 -0.5770
  116OSM   H17S12147   1.197   0.777   8.181 -3.3315  0.6030  1.5305
  116OSM   H17T12148   1.134   0.931   8.227 -2.3773  1.2120 -3.7252
  116OSM   C18S12149   1.349   0.902   8.245 -0.3878  0.5934  1.2059
  116OSM   H18S12150   1.350   0.858   8.347 -3.4220 -0.7449  0.7895
  116OSM   H18T12151   1.360   1.012   8.258  3.2257  0.6841 -1.3116
  116OSM   H18U12152   1.436   0.858   8.193  0.2054 -0.2636  2.8445
  116OSM    C1F12153   2.074   0.627   6.681 -0.1371 -0.9116 -0.5498
  116OSM     OF12154   2.154   0.680   6.609  0.2861 -0.1844  0.4007
  116OSM    C2F12155   2.110   0.538   6.795  0.9179  0.4687 -0.3565
  116OSM    H2F12156   2.186   0.465   6.757 -1.2838 -1.9426 -0.3737
  116OSM    H2G12157   2.015   0.493   6.831  1.2587  0.5740  0.7143
  116OSM    C3F12158   2.187   0.619   6.900 -0.1326  0.6899 -0.5908
  116OSM    H3F12159   2.125   0.703   6.940 -0.1247  0.1590  0.5972
  116OSM    H3G12160   2.284   0.660   6.867  0.7589  0.8200  1.9264
  116OSM    C4F12161   2.233   0.534   7.025  0.7091 -0.0618  0.2104
  116OSM    H4F12162   2.329   0.487   6.995  0.9566  0.3702  0.3061
  116OSM    H4G12163   2.165   0.449   7.045 -0.3505  0.8369  0.5163
  116OSM    C5F12164   2.234   0.616   7.153  0.5773  0.3029 -0.1656
  116OSM    H5F12165   2.180   0.713   7.148 -0.8741 -0.2851  2.4914
  116OSM    H5G12166   2.337   0.646   7.179 -0.0084  1.2492  1.1299
  116OSM    C6F12167   2.195   0.531   7.284 -0.0358  0.3757 -0.1049
  116OSM    H6F12168   2.258   0.440   7.295 -0.0139  0.1941 -1.5534
  116OSM    H6G12169   2.087   0.509   7.268 -0.0427  0.0012  0.4290
  116OSM    C7F12170   2.205   0.624   7.405  0.5102  0.2838  0.4217
  116OSM    H7F12171   2.142   0.599   7.493 -3.4471  2.1627 -1.6366
  116OSM    H7G12172   2.164   0.722   7.371  0.5758  0.2081  0.1156
  116OSM    C8F12173   2.347   0.634   7.461  0.3955 -0.2727  0.7478
  116OSM    H8F12174   2.416   0.650   7.376 -2.7745  0.2566 -1.9536
  116OSM    H8G12175   2.372   0.533   7.500  0.4481 -0.1800  0.9535
  116OSM    C9F12176   2.372   0.733   7.562 -0.8386  0.2410 -0.6392
  116OSM    H9F12177   2.413   0.827   7.522  3.6303 -0.2697  2.0975
  116OSM   C10F12178   2.363   0.721   7.700 -0.5339 -0.3217 -0.0227
  116OSM   H10F12179   2.390   0.806   7.765  1.1777  0.4107 -1.5991
  116OSM   C11F12180   2.333   0.594   7.773  0.0490 -0.5612 -0.3099
  116OSM   H11F12181   2.428   0.559   7.819  0.6645  1.0585 -0.2914
  116OSM   H11G12182   2.286   0.514   7.711 -0.0041 -0.6156 -0.1987
  116OSM   C12F12183   2.236   0.627   7.887  0.5389 -0.1510  0.3821
  116OSM   H12F12184   2.129   0.636   7.858  0.6562 -1.0968 -0.3853
  116OSM   H12G12185   2.262   0.721   7.940  1.8151  0.8742 -1.9471
  116OSM   C13F12186   2.228   0.517   7.994  0.4708  0.5582  0.0252
  116OSM   H13F12187   2.327   0.506   8.042  0.1599  1.0703  0.7933
  116OSM   H13G12188   2.212   0.426   7.932  2.5980 -0.0294  0.2700
  116OSM   C14F12189   2.128   0.537   8.116  0.0977 -0.3871 -0.1876
  116OSM   H14F12190   2.026   0.544   8.074  0.0690  0.4583 -0.0034
  116OSM   H14G12191   2.141   0.632   8.173 -1.4522 -1.1895  1.6328
  116OSM   C15F12192   2.138   0.433   8.230 -0.5876  0.5981  0.3204
  116OSM   H15F12193   2.239   0.451   8.271  0.4987 -1.4121 -1.3040
  116OSM   H15G12194   2.131   0.326   8.200  2.5592  0.2221  0.6033
  116OSM   C16F12195   2.037   0.470   8.340  0.9308 -0.3792 -1.0505
  116OSM   H16F12196   1.943   0.433   8.295  1.5168 -0.8204 -1.9454
  116OSM   H16G12197   2.030   0.581   8.339  0.9805 -0.3758 -1.0396
  116OSM   C17F12198   2.065   0.425   8.485  0.1310 -0.5096  0.4951
  116OSM   H17F12199   2.162   0.474   8.510  0.6440 -0.6721 -1.0338
  116OSM   H17G12200   2.065   0.314   8.489 -1.4369 -0.6830 -2.0026
  116OSM   C18F12201   1.959   0.482   8.578  0.8608  0.4541  0.4001
  116OSM   H18F12202   1.976   0.441   8.680  0.9628  1.3116  0.7406
  116OSM   H18G12203   1.862   0.460   8.530  2.3927 -1.0655 -2.1973
  116OSM   H18H12204   1.972   0.593   8.583 -0.1050  0.6105 -0.2796
  117OSM      N12205   0.318   2.892   6.054 -0.7311 -0.2546  0.3158
  117OSM    C1512206   0.339   2.992   5.946  0.1574  0.8280 -0.0932
  117OSM   H15A12207   0.365   2.944   5.853 -1.3580 -1.1518  0.4474
  117OSM   H15B12208   0.415   3.064   5.974  1.3458  0.1148 -1.3395
  117OSM   H15C12209   0.242   3.038   5.935 -1.3906 -1.3630  2.7726
  117OSM    C1412210   0.294   2.969   6.184  0.5242 -0.1602 -0.4980
  117OSM   H14A12211   0.370   3.043   6.206 -2.2645  3.6007 -2.3502
  117OSM   H14B12212   0.275   2.902   6.266 -3.5814  0.1352 -0.9937
  117OSM   H14C12213   0.203   3.027   6.177  0.3005 -0.3038  0.9961
  117OSM    C1312214   0.196   2.816   6.027  0.2684  0.0367  0.3459
  117OSM   H13A12215   0.117   2.889   6.025  0.9796  0.8221  0.2116
  117OSM   H13B12216   0.166   2.741   6.099 -0.5687  1.9783  2.0939
  117OSM   H13C12217   0.203   2.769   5.930 -0.7871 -0.4014  0.4658
  117OSM    C1212218   0.439   2.801   6.056  0.1677 -0.4350 -0.3091
  117OSM   H12A12219   0.448   2.751   5.960 -1.4807 -1.4705  0.0471
  117OSM   H12B12220   0.415   2.738   6.140 -1.0802 -0.0170 -0.3391
  117OSM    C1112221   0.583   2.865   6.073 -0.2274  0.1317 -0.5716
  117OSM   H11A12222   0.607   2.926   5.983 -0.8813  0.5447 -0.4676
  117OSM   H11B12223   0.654   2.779   6.078  0.6349  0.9150  1.9945
  117OSM      P12224   0.643   2.853   6.325  0.7469 -0.1344  0.1265
  117OSM    O1312225   0.772   2.781   6.313 -0.0965  0.1083 -0.8388
  117OSM    O1412226   0.615   2.951   6.439 -0.5099  0.1349 -0.5297
  117OSM    O1112227   0.530   2.747   6.339 -0.0370 -0.0078  0.3282
  117OSM    O1212228   0.602   2.926   6.194  0.0606 -0.2565  0.4252
  117OSM    C1S12229   0.539   2.643   6.450  0.4469 -0.3451  0.8002
  117OSM    H1S12230   0.645   2.618   6.471  1.1169  2.1415  0.7629
  117OSM    H1T12231   0.497   2.549   6.410  2.1009  0.1652 -2.5401
  117OSM     NF12232   0.493   2.596   6.688  0.2977 -0.0778 -0.2108
  117OSM    HNF12233   0.424   2.533   6.723  0.3663  1.2195  2.5662
  117OSM    C2S12234   0.466   2.687   6.577  0.5153  0.5469 -0.3066
  117OSM    H2S12235   0.505   2.786   6.609 -0.0603 -0.0264  2.3469
  117OSM    C3S12236   0.313   2.717   6.543 -0.9467  0.1928  0.9789
  117OSM    H3S12237   0.272   2.617   6.518 -1.4017  1.4312 -4.6380
  117OSM     O312238   0.299   2.814   6.434 -0.2303  0.5778 -0.2778
  117OSM    HO312239   0.381   2.799   6.388 -2.0784  0.2978 -3.8243
  117OSM    C4S12240   0.253   2.765   6.668  0.2959 -0.2211  0.3663
  117OSM    H4S12241   0.261   2.693   6.750  0.8187 -1.2316 -0.5537
  117OSM    C5S12242   0.191   2.881   6.685  0.9009  0.5113  0.5450
  117OSM    H5S12243   0.192   2.949   6.599 -1.2504 -0.9621 -0.7547
  117OSM    C6S12244   0.124   2.929   6.814  0.1851 -0.2118  0.7191
  117OSM    H6S12245   0.014   2.935   6.801  0.1785  0.0094  0.8594
  117OSM    H6T12246   0.165   3.031   6.833  1.4163 -0.1819 -1.7778
  117OSM    C7S12247   0.157   2.846   6.935  0.2562 -0.7915  0.5939
  117OSM    H7S12248   0.267   2.852   6.954  0.9819 -0.6062 -3.0433
  117OSM    H7T12249   0.147   2.737   6.920 -2.2420 -0.2717 -2.5740
  117OSM    C8S12250   0.079   2.886   7.063  0.1310 -0.1957  0.0745
  117OSM    H8S12251  -0.022   2.842   7.048 -0.2082  1.0044 -1.3744
  117OSM    H8T12252   0.077   2.996   7.071  1.3398 -0.0999 -0.7033
  117OSM    C9S12253   0.138   2.829   7.200 -0.0231 -0.0227  0.5918
  117OSM    H9S12254   0.231   2.872   7.241 -0.3835  1.7319 -0.3454
  117OSM    H9T12255   0.140   2.717   7.202 -1.2413 -0.1039 -0.6717
  117OSM   C10S12256   0.035   2.880   7.302 -0.2903  0.2047 -0.0722
  117OSM   H10S12257  -0.067   2.848   7.273 -1.0169  2.3833 -0.1634
  117OSM   H10T12258   0.011   2.989   7.294 -3.0448 -0.4532 -4.4861
  117OSM   C11S12259   0.069   2.839   7.442 -0.2572 -0.1551 -0.4400
  117OSM   H11S12260   0.168   2.886   7.460  0.4735 -1.7066 -0.2782
  117OSM   H11T12261   0.090   2.731   7.457 -1.6331 -0.2246  1.3405
  117OSM   C12S12262  -0.021   2.899   7.544 -0.1061  0.0761  0.0657
  117OSM   H12S12263  -0.125   2.910   7.508  0.0687 -0.7865 -0.7485
  117OSM   H12T12264   0.012   3.002   7.567 -0.5629 -0.3010  2.8418
  117OSM   C13S12265  -0.017   2.822   7.682  0.8934 -0.1660  0.0189
  117OSM   H13S12266   0.086   2.800   7.717  1.0848  2.6325  1.4300
  117OSM   H13T12267  -0.080   2.731   7.665  0.2098  0.6798 -2.4597
  117OSM   C14S12268  -0.083   2.904   7.797 -0.3258 -0.2073 -0.1925
  117OSM   H14S12269  -0.191   2.878   7.794  0.0234 -2.0864  1.3179
  117OSM   H14T12270  -0.072   3.009   7.765 -1.4315 -0.3901 -1.2369
  117OSM   C15S12271  -0.020   2.880   7.941 -0.9131 -0.0954 -0.4866
  117OSM   H15S12272  -0.028   2.970   8.005  0.3236  0.7660 -1.4983
  117OSM   H15T12273   0.089   2.867   7.923 -0.8959 -2.1988  0.7841
  117OSM   C16S12274  -0.080   2.760   8.004  0.1321 -0.9239 -0.0965
  117OSM   H16S12275  -0.060   2.669   7.944 -0.6208  0.0612 -1.9362
  117OSM   H16T12276  -0.191   2.766   8.010  0.2617  0.3127  2.0188
  117OSM   C17S12277  -0.023   2.732   8.148  0.1790  0.2159  0.6586
  117OSM   H17S12278  -0.064   2.811   8.215  2.1884  1.1256  0.8809
  117OSM   H17T12279   0.087   2.732   8.136 -0.1395 -1.3176 -5.6625
  117OSM   C18S12280  -0.067   2.589   8.199 -0.1514  0.7309  0.5092
  117OSM   H18S12281  -0.058   2.589   8.310 -0.2195 -0.7478  0.5340
  117OSM   H18T12282   0.005   2.511   8.166 -0.7325  1.3792 -2.6376
  117OSM   H18U12283  -0.171   2.561   8.173  0.0308 -0.6837  1.2254
  117OSM    C1F12284   0.623   2.595   6.747  0.0873 -0.4876 -0.5985
  117OSM     OF12285   0.705   2.679   6.706  0.0164  0.7130  0.0854
  117OSM    C2F12286   0.651   2.499   6.867  0.8936 -0.2968  0.1801
  117OSM    H2F12287   0.751   2.454   6.850  1.0034  0.4576 -1.3470
  117OSM    H2G12288   0.576   2.418   6.873  1.3588 -0.8347 -0.9746
  117OSM    C3F12289   0.631   2.582   7.003 -0.3589  0.3529 -0.1377
  117OSM    H3F12290   0.538   2.642   6.992 -1.3756 -1.4443 -1.9932
  117OSM    H3G12291   0.713   2.656   7.008  0.1867 -0.0886 -1.7593
  117OSM    C4F12292   0.621   2.499   7.131 -0.0156  0.4207  0.9622
  117OSM    H4F12293   0.717   2.454   7.164  0.9693  0.5051 -1.5509
  117OSM    H4G12294   0.550   2.416   7.114 -1.7399  1.6730  1.7682
  117OSM    C5F12295   0.550   2.586   7.239 -0.3143 -0.7443 -0.1948
  117OSM    H5F12296   0.441   2.579   7.220 -0.4690  0.2854  0.1972
  117OSM    H5G12297   0.559   2.695   7.219 -1.9286 -0.3520  0.9862
  117OSM    C6F12298   0.579   2.552   7.387 -0.4882 -0.2033  0.1262
  117OSM    H6F12299   0.689   2.556   7.392  0.0305 -3.0510 -3.8025
  117OSM    H6G12300   0.547   2.446   7.388  0.5112 -0.6365 -2.7649
  117OSM    C7F12301   0.507   2.656   7.473 -0.0085 -0.4904 -0.6571
  117OSM    H7F12302   0.403   2.671   7.438 -1.0850  0.5587  2.5794
  117OSM    H7G12303   0.561   2.753   7.466  0.3220 -0.6549 -0.4537
  117OSM    C8F12304   0.484   2.622   7.624 -0.0177 -0.1787  0.3742
  117OSM    H8F12305   0.381   2.581   7.620 -0.2397  0.4665 -2.1410
  117OSM    H8G12306   0.477   2.712   7.689 -1.5437  1.2772 -1.6788
  117OSM    C9F12307   0.600   2.537   7.671 -0.4611 -0.1997  0.4281
  117OSM    H9F12308   0.597   2.433   7.634 -1.9866  0.0879 -0.3200
  117OSM   C10F12309   0.699   2.569   7.755  0.8865  0.3732  0.1597
  117OSM   H10F12310   0.777   2.495   7.779 -1.3320 -1.5763  1.8641
  117OSM   C11F12311   0.721   2.708   7.802 -0.2926 -0.1905  0.0567
  117OSM   H11F12312   0.672   2.790   7.744 -1.6978 -0.4982  0.7592
  117OSM   H11G12313   0.831   2.721   7.800 -0.1629 -0.9487  1.3071
  117OSM   C12F12314   0.667   2.724   7.945 -0.0157 -0.1205  0.1541
  117OSM   H12F12315   0.712   2.657   8.021 -0.6024  0.5618  1.1391
  117OSM   H12G12316   0.562   2.688   7.940 -0.0022 -0.1247 -0.1002
  117OSM   C13F12317   0.699   2.867   7.989  0.6140  0.3258 -0.3723
  117OSM   H13F12318   0.642   2.942   7.930 -2.0257 -0.8975  0.4652
  117OSM   H13G12319   0.807   2.891   7.976  0.1208  1.9001 -2.0201
  117OSM   C14F12320   0.648   2.883   8.137 -0.8025  0.0502 -0.3586
  117OSM   H14F12321   0.670   2.984   8.178  1.2038  1.0468 -3.4816
  117OSM   H14G12322   0.716   2.820   8.198 -1.1825 -0.3006 -0.2963
  117OSM   C15F12323   0.507   2.851   8.163 -0.1189  0.1442  0.6201
  117OSM   H15F12324   0.491   2.742   8.150 -0.9443  0.2619  0.6116
  117OSM   H15G12325   0.434   2.899   8.093  0.6575  1.8886  0.9437
  117OSM   C16F12326   0.460   2.894   8.302  0.2059 -0.2014  0.4240
  117OSM   H16F12327   0.509   2.986   8.340 -3.0384  0.8860  2.4015
  117OSM   H16G12328   0.500   2.809   8.362  1.9802 -2.4026 -3.4953
  117OSM   C17F12329   0.309   2.914   8.327 -0.2746 -0.3899  0.9606
  117OSM   H17F12330   0.267   3.008   8.285 -0.8160 -0.6057  1.0029
  117OSM   H17G12331   0.263   2.833   8.267 -1.2733 -0.5692  1.9357
  117OSM   C18F12332   0.272   2.902   8.474  0.0436  0.1272  0.5548
  117OSM   H18F12333   0.343   2.852   8.544  0.1054 -0.1911  0.2658
  117OSM   H18G12334   0.177   2.845   8.480  0.3640 -0.5878 -0.8146
  117OSM   H18H12335   0.235   3.000   8.512  1.9584  1.6233 -1.2151
  118OSM      N12336   3.314   5.114   5.981 -0.4340  0.2668  0.8508
  118OSM    C1512337   3.184   5.069   5.939  0.3238 -0.1728  0.8529
  118OSM   H15A12338   3.111   5.089   6.016  0.0828 -0.5032  0.7079
  118OSM   H15B12339   3.188   4.961   5.933  1.0293 -0.0879 -0.7568
  118OSM   H15C12340   3.148   5.114   5.848  0.8538 -0.3728  0.5330
  118OSM    C1412341   3.412   5.074   5.872  0.6348 -0.0605  0.0488
  118OSM   H14A12342   3.417   5.139   5.786  3.7455  0.8446  0.7773
  118OSM   H14B12343   3.407   4.968   5.851  3.4692 -0.6008  1.6048
  118OSM   H14C12344   3.513   5.093   5.905  0.6859  1.8910 -1.0889
  118OSM    C1312345   3.314   5.265   5.981 -0.5465 -0.0750  0.3452
  118OSM   H13A12346   3.269   5.304   5.891  0.1834  3.3156  1.2753
  118OSM   H13B12347   3.418   5.295   5.981  0.1406 -2.1702  2.5005
  118OSM   H13C12348   3.261   5.305   6.066 -0.0929 -1.0132  1.0926
  118OSM    C1212349   3.348   5.057   6.117 -0.4036 -0.4415 -1.0983
  118OSM   H12A12350   3.438   5.105   6.152 -1.5243  1.8224 -1.0601
  118OSM   H12B12351   3.359   4.950   6.118  0.6765 -0.4040  2.0988
  118OSM    C1112352   3.237   5.082   6.224 -0.9450  0.1262  0.1373
  118OSM   H11A12353   3.184   5.176   6.198 -2.3420 -0.3761  1.0299
  118OSM   H11B12354   3.284   5.086   6.325 -0.7285 -0.0213  0.0424
  118OSM      P12355   3.162   4.838   6.302  0.0971 -0.2433  0.3577
  118OSM    O1312356   3.046   4.755   6.277 -0.2390 -0.1359  0.4925
  118OSM    O1412357   3.295   4.781   6.265 -0.1320 -0.2393  0.1553
  118OSM    O1112358   3.152   4.893   6.448 -0.5448 -0.1551 -0.3727
  118OSM    O1212359   3.148   4.974   6.210  0.8160  0.4901 -0.6121
  118OSM    C1S12360   3.180   4.787   6.548 -0.6612 -0.0815  0.3218
  118OSM    H1S12361   3.290   4.774   6.540 -0.3658  2.2626 -0.1827
  118OSM    H1T12362   3.119   4.695   6.548 -0.8199  0.0092  1.2488
  118OSM     NF12363   3.212   4.766   6.805 -0.2713  0.3405  0.1831
  118OSM    HNF12364   3.151   4.707   6.857  1.2156  1.5062  3.5220
  118OSM    C2S12365   3.145   4.839   6.694 -0.3154  0.3263 -0.2567
  118OSM    H2S12366   3.184   4.942   6.706  0.5471  0.0710 -0.8187
  118OSM    C3S12367   2.992   4.838   6.715 -0.5103  0.6638 -0.3371
  118OSM    H3S12368   2.965   4.730   6.717  1.1281  0.2342 -0.6634
  118OSM     O312369   2.919   4.876   6.601 -0.3315 -0.3348  0.7541
  118OSM    HO312370   2.977   4.851   6.529 -0.1212  0.6546  0.5642
  118OSM    C4S12371   2.951   4.905   6.835  0.3145  0.4870 -0.5941
  118OSM    H4S12372   2.941   4.836   6.921  2.6255  1.9206  0.9413
  118OSM    C5S12373   2.925   5.031   6.861  0.1867 -0.7470 -0.0130
  118OSM    H5S12374   2.932   5.099   6.775  0.7706  0.4489  0.9512
  118OSM    C6S12375   2.885   5.093   6.989  0.8030 -0.1220  0.0274
  118OSM    H6S12376   2.776   5.082   7.008  1.3384 -2.2715  2.4309
  118OSM    H6T12377   2.909   5.202   6.990  0.7845 -0.1198  0.1339
  118OSM    C7S12378   2.952   5.026   7.110 -0.4543 -0.1979 -0.2185
  118OSM    H7S12379   3.058   4.996   7.100 -0.8331 -1.6611 -0.0362
  118OSM    H7T12380   2.905   4.929   7.136  0.7264 -1.1690 -1.5529
  118OSM    C8S12381   2.951   5.124   7.230 -0.1498  1.0914 -0.5455
  118OSM    H8S12382   2.848   5.162   7.247 -0.3519  0.0398  0.8334
  118OSM    H8T12383   3.015   5.209   7.200 -2.1246  2.6789 -0.4992
  118OSM    C9S12384   2.997   5.067   7.367  0.1485 -0.0278 -0.1571
  118OSM    H9S12385   3.094   5.022   7.338  0.3701  0.5809 -0.3977
  118OSM    H9T12386   2.933   4.985   7.405 -1.3674  1.4550  0.6257
  118OSM   C10S12387   3.012   5.173   7.473 -0.3060 -0.5570 -0.0873
  118OSM   H10S12388   2.920   5.236   7.474  0.7076  0.9794  0.6137
  118OSM   H10T12389   3.095   5.242   7.447  0.4168 -1.0259  0.9379
  118OSM   C11S12390   3.050   5.108   7.604 -0.1923 -0.3464 -0.2156
  118OSM   H11S12391   3.100   5.009   7.598  2.5086  0.7755  1.7864
  118OSM   H11T12392   2.954   5.089   7.657 -1.5416  0.9181 -2.0801
  118OSM   C12S12393   3.158   5.185   7.684  0.6060 -0.4873  0.4592
  118OSM   H12S12394   3.120   5.280   7.727  2.9164  0.1022  1.3786
  118OSM   H12T12395   3.233   5.215   7.608  0.3221  0.3013  0.4765
  118OSM   C13S12396   3.215   5.095   7.798 -0.2490 -0.5534  0.1696
  118OSM   H13S12397   3.291   5.152   7.855 -1.3608 -0.7996  1.9691
  118OSM   H13T12398   3.267   5.008   7.752 -0.5790 -0.1882 -0.9392
  118OSM   C14S12399   3.099   5.060   7.896 -0.4825 -0.1380  0.1447
  118OSM   H14S12400   3.046   4.974   7.849 -0.4579 -0.4323  0.6496
  118OSM   H14T12401   3.030   5.147   7.901 -0.9641 -0.5127  0.0960
  118OSM   C15S12402   3.161   5.006   8.027 -0.6740 -0.5951  0.5698
  118OSM   H15S12403   3.205   5.091   8.083  0.4295 -0.1328 -0.9268
  118OSM   H15T12404   3.246   4.941   7.997  0.2388  0.3441  1.0565
  118OSM   C16S12405   3.054   4.931   8.105 -0.2594 -0.0369 -0.2927
  118OSM   H16S12406   3.027   4.840   8.047  0.1260  0.0087 -0.5438
  118OSM   H16T12407   2.956   4.983   8.111 -0.7638 -0.9580 -0.3793
  118OSM   C17S12408   3.103   4.892   8.238 -0.4175  0.8511  0.1341
  118OSM   H17S12409   3.127   4.984   8.296 -1.9917  0.0566  2.1422
  118OSM   H17T12410   3.203   4.846   8.223 -0.6442  0.8733 -1.7089
  118OSM   C18S12411   3.008   4.801   8.316 -0.0707  0.5441  0.0957
  118OSM   H18S12412   2.903   4.834   8.300 -0.1806 -0.4550 -1.4646
  118OSM   H18T12413   3.027   4.817   8.424  2.1805  0.0078 -0.1779
  118OSM   H18U12414   3.016   4.695   8.282 -0.5260  1.2148 -2.2566
  118OSM    C1F12415   3.344   4.774   6.829 -0.7783  0.5848 -0.5191
  118OSM     OF12416   3.417   4.849   6.763  0.4909 -0.3409  0.0685
  118OSM    C2F12417   3.385   4.687   6.946 -0.5251 -0.7525  0.0361
  118OSM    H2F12418   3.411   4.590   6.900  0.4815  0.5748 -2.3745
  118OSM    H2G12419   3.295   4.670   7.009 -0.7492  0.3049  0.0196
  118OSM    C3F12420   3.501   4.732   7.045 -0.1700  0.4157 -0.6259
  118OSM    H3F12421   3.461   4.808   7.115  0.2947  1.2125 -1.2016
  118OSM    H3G12422   3.584   4.781   6.990 -1.7105  0.9737 -2.5850
  118OSM    C4F12423   3.553   4.603   7.124  0.2703 -0.1303  0.3549
  118OSM    H4F12424   3.612   4.550   7.046  0.6861  1.6035 -0.5725
  118OSM    H4G12425   3.470   4.536   7.153 -0.0866  0.3618  0.4826
  118OSM    C5F12426   3.624   4.625   7.261  0.7361 -0.8664  0.2657
  118OSM    H5F12427   3.709   4.694   7.241 -0.2341 -0.1335 -1.5524
  118OSM    H5G12428   3.670   4.528   7.292  2.1333  0.0620  1.2364
  118OSM    C6F12429   3.542   4.662   7.381 -0.4126 -0.0814 -0.3354
  118OSM    H6F12430   3.475   4.579   7.411  1.3313 -0.2717  3.6630
  118OSM    H6G12431   3.499   4.765   7.377 -0.7590 -0.2371 -0.6296
  118OSM    C7F12432   3.628   4.680   7.516  0.2164 -0.3218  0.9117
  118OSM    H7F12433   3.683   4.776   7.507 -2.0991  1.1286  1.1524
  118OSM    H7G12434   3.690   4.588   7.519 -0.3460 -0.6848  2.8103
  118OSM    C8F12435   3.532   4.692   7.642  0.7270 -0.3707  0.0572
  118OSM    H8F12436   3.473   4.598   7.641 -0.2513  0.2315 -1.0529
  118OSM    H8G12437   3.460   4.775   7.631  1.4879  0.0311 -2.6227
  118OSM    C9F12438   3.621   4.727   7.755 -0.7836 -0.1267 -0.7282
  118OSM    H9F12439   3.698   4.801   7.725  0.2399 -0.5524  0.7358
  118OSM   C10F12440   3.627   4.673   7.880 -0.4142  0.3226 -0.1005
  118OSM   H10F12441   3.705   4.699   7.952 -0.4803  2.9045 -0.8580
  118OSM   C11F12442   3.538   4.566   7.937  0.0247  0.1346  0.3949
  118OSM   H11F12443   3.450   4.533   7.877 -0.8662  0.3433  1.5565
  118OSM   H11G12444   3.494   4.596   8.034 -0.8811 -1.7747  0.6302
  118OSM   C12F12445   3.615   4.444   7.984 -0.1440  0.4721 -0.3965
  118OSM   H12F12446   3.678   4.477   8.069 -1.9498 -0.6423  1.4579
  118OSM   H12G12447   3.667   4.397   7.898  0.0785  1.5209 -0.8632
  118OSM   C13F12448   3.519   4.346   8.050 -0.0179  0.4851 -0.3435
  118OSM   H13F12449   3.437   4.315   7.981  0.0593 -1.9528  0.5738
  118OSM   H13G12450   3.480   4.405   8.136  0.5360  1.1811 -0.5606
  118OSM   C14F12451   3.585   4.218   8.110 -0.7666 -0.6458 -0.0487
  118OSM   H14F12452   3.664   4.251   8.180 -1.5475 -0.4440  0.7625
  118OSM   H14G12453   3.647   4.171   8.031  0.9538  0.5535  0.5326
  118OSM   C15F12454   3.482   4.132   8.182 -0.4711  0.7159  0.4123
  118OSM   H15F12455   3.394   4.120   8.115 -1.5849  2.3863  1.4943
  118OSM   H15G12456   3.444   4.172   8.278  1.8315 -0.5642  1.9550
  118OSM   C16F12457   3.540   3.995   8.215  0.3632  0.3482 -0.6611
  118OSM   H16F12458   3.636   4.013   8.268 -0.7269 -1.3089  2.1054
  118OSM   H16G12459   3.546   3.925   8.128  0.5715  0.4635 -0.7413
  118OSM   C17F12460   3.451   3.917   8.311 -0.5544  0.5168  0.0162
  118OSM   H17F12461   3.349   3.919   8.268 -0.2666  0.6117 -0.6796
  118OSM   H17G12462   3.453   3.969   8.409  0.1934 -0.6152  0.6182
  118OSM   C18F12463   3.506   3.774   8.331 -0.7484 -0.0761 -0.0757
  118OSM   H18F12464   3.616   3.773   8.341 -0.6133  0.5378 -1.3226
  118OSM   H18G12465   3.483   3.713   8.242  0.7099  1.4880 -1.6058
  118OSM   H18H12466   3.461   3.724   8.419 -0.3492  0.7587  0.6225
  119OSM      N12467   4.436   4.609   5.546 -0.4607 -0.5199  0.1156
  119OSM    C1512468   4.544   4.611   5.437 -0.3713 -0.5212 -0.4835
  119OSM   H15A12469   4.607   4.523   5.442 -0.0056 -0.2040  0.9759
  119OSM   H15B12470   4.613   4.694   5.439  2.7303 -2.8497 -2.1422
  119OSM   H15C12471   4.499   4.612   5.339  2.0634  0.4724 -1.6953
  119OSM    C1412472   4.346   4.494   5.527  0.1433  0.1925 -0.0957
  119OSM   H14A12473   4.291   4.498   5.435  1.3255  1.7978 -0.7730
  119OSM   H14B12474   4.276   4.498   5.609  1.5170  0.6096  1.1009
  119OSM   H14C12475   4.400   4.400   5.526  0.5891  0.3642  2.0565
  119OSM    C1312476   4.509   4.594   5.677 -0.2873  0.1537  0.2171
  119OSM   H13A12477   4.438   4.616   5.755 -1.7430  0.6652 -1.2008
  119OSM   H13B12478   4.596   4.658   5.686  1.6663 -2.5772  2.4334
  119OSM   H13C12479   4.548   4.494   5.688 -3.9495 -1.6413 -1.5771
  119OSM    C1212480   4.369   4.742   5.538  0.0603 -0.3094 -0.1056
  119OSM   H12A12481   4.342   4.758   5.434 -1.3866  2.8242  0.6330
  119OSM   H12B12482   4.436   4.823   5.564 -1.2363  0.1880  1.8937
  119OSM    C1112483   4.242   4.762   5.623 -0.1589 -0.8231 -0.0503
  119OSM   H11A12484   4.168   4.685   5.593 -1.1807  0.3801 -0.7061
  119OSM   H11B12485   4.202   4.861   5.592 -0.2405 -1.0682 -0.7413
  119OSM      P12486   4.330   4.881   5.833 -0.0135 -0.2403  0.0159
  119OSM    O1312487   4.462   4.909   5.776 -0.7632  0.1246 -0.7596
  119OSM    O1412488   4.231   4.984   5.838 -0.5414 -0.3523 -0.4744
  119OSM    O1112489   4.365   4.826   5.974  0.5380 -0.0936 -0.1176
  119OSM    O1212490   4.260   4.754   5.762 -0.6719  0.1813  0.0648
  119OSM    C1S12491   4.428   4.702   5.996 -0.3116  0.0670 -0.4283
  119OSM    H1S12492   4.532   4.696   5.959 -0.2263 -1.6459 -0.0345
  119OSM    H1T12493   4.372   4.621   5.944 -0.9316  0.1437  0.0926
  119OSM     NF12494   4.497   4.550   6.172 -0.0097  0.0307  0.5505
  119OSM    HNF12495   4.443   4.469   6.193  0.9823 -1.6312 -2.5775
  119OSM    C2S12496   4.425   4.671   6.143  0.3441  0.0479 -0.5432
  119OSM    H2S12497   4.478   4.754   6.195 -0.7829  2.0134 -2.3788
  119OSM    C3S12498   4.279   4.676   6.202  0.5916 -0.1582 -0.0374
  119OSM    H3S12499   4.213   4.591   6.176 -1.0710  0.1252  2.8016
  119OSM     O312500   4.200   4.790   6.166 -0.3868  0.0015 -0.6977
  119OSM    HO312501   4.235   4.837   6.089  1.6999  1.7512  1.1718
  119OSM    C4S12502   4.302   4.677   6.351 -0.7544 -0.7537  0.2534
  119OSM    H4S12503   4.270   4.581   6.395 -0.3975 -0.8457  0.3161
  119OSM    C5S12504   4.348   4.778   6.432  0.2220  0.4150  0.1497
  119OSM    H5S12505   4.376   4.874   6.386 -0.1366 -0.3977 -1.8413
  119OSM    C6S12506   4.371   4.759   6.583  0.5009  0.2996 -0.1486
  119OSM    H6S12507   4.340   4.853   6.633  3.7294  2.1550 -1.3444
  119OSM    H6T12508   4.481   4.760   6.597  0.6724  2.1883 -1.2218
  119OSM    C7S12509   4.290   4.651   6.659  0.3527  0.0796  0.2298
  119OSM    H7S12510   4.303   4.559   6.599  1.6197  0.6367 -0.3890
  119OSM    H7T12511   4.188   4.690   6.637  1.0600  1.9236  0.0452
  119OSM    C8S12512   4.336   4.640   6.805  0.9882 -0.1712  0.1667
  119OSM    H8S12513   4.360   4.740   6.848  1.1424  0.7100 -1.8260
  119OSM    H8T12514   4.432   4.585   6.798  1.2061  0.4118 -2.5061
  119OSM    C9S12515   4.239   4.559   6.893  0.5136 -0.7477  0.0123
  119OSM    H9S12516   4.213   4.465   6.839 -0.0069 -0.0886 -0.9190
  119OSM    H9T12517   4.153   4.625   6.914  0.6769 -0.6434  0.3634
  119OSM   C10S12518   4.315   4.519   7.022  0.5674  0.4735 -0.0492
  119OSM   H10S12519   4.354   4.614   7.065 -0.3745  0.7807  0.1410
  119OSM   H10T12520   4.403   4.458   6.993  1.0305  1.8283 -1.6458
  119OSM   C11S12521   4.224   4.452   7.124  0.2484 -0.8341 -1.0196
  119OSM   H11S12522   4.284   4.427   7.214  1.2827 -2.2980 -2.0701
  119OSM   H11T12523   4.175   4.358   7.091  0.6210 -0.8712 -1.4696
  119OSM   C12S12524   4.108   4.544   7.181 -0.1325 -0.4308  0.2347
  119OSM   H12S12525   4.040   4.561   7.095  1.1662  0.7333 -0.6141
  119OSM   H12T12526   4.138   4.648   7.207  0.8157 -0.8072  0.7058
  119OSM   C13S12527   4.030   4.485   7.300 -0.4378 -0.5053 -0.1413
  119OSM   H13S12528   4.004   4.379   7.283  0.9971 -0.5441 -2.4584
  119OSM   H13T12529   3.935   4.541   7.315 -0.5584 -0.6931 -0.2033
  119OSM   C14S12530   4.104   4.496   7.432 -0.3693 -0.9246 -0.5063
  119OSM   H14S12531   4.163   4.590   7.433 -2.8520  0.7521 -1.5279
  119OSM   H14T12532   4.181   4.416   7.431  0.8645  0.1356 -3.3734
  119OSM   C15S12533   4.023   4.493   7.565 -0.1414  0.0538 -0.5074
  119OSM   H15S12534   3.963   4.586   7.564  2.2856  1.6984 -0.3099
  119OSM   H15T12535   4.085   4.493   7.657 -0.9768 -1.1977  0.0878
  119OSM   C16S12536   3.936   4.364   7.575 -0.1306 -0.0256  0.2294
  119OSM   H16S12537   4.000   4.275   7.560 -0.6599 -0.2328 -0.8917
  119OSM   H16T12538   3.864   4.380   7.492 -0.2225 -1.0798  0.0923
  119OSM   C17S12539   3.875   4.339   7.709 -0.1388  0.2884  0.0194
  119OSM   H17S12540   3.810   4.426   7.733 -0.4606  0.7449 -2.3154
  119OSM   H17T12541   3.957   4.333   7.784 -0.9442  0.1895  0.9146
  119OSM   C18S12542   3.783   4.215   7.715 -0.4927 -0.0255 -0.2324
  119OSM   H18S12543   3.838   4.121   7.692  3.1291  2.4359 -2.8836
  119OSM   H18T12544   3.689   4.228   7.657 -0.3336  4.2530  0.1508
  119OSM   H18U12545   3.743   4.194   7.816  1.6530 -1.2434  0.4113
  119OSM    C1F12546   4.631   4.537   6.154  0.5539 -0.2514  0.6303
  119OSM     OF12547   4.696   4.638   6.146 -0.6568 -0.2094  0.7300
  119OSM    C2F12548   4.683   4.393   6.151  0.2105 -0.0637  0.0427
  119OSM    H2F12549   4.699   4.371   6.044  0.9230  0.8675 -0.0481
  119OSM    H2G12550   4.608   4.316   6.180  1.4366 -1.2902  0.0968
  119OSM    C3F12551   4.814   4.367   6.228 -0.0790  0.0597  0.0099
  119OSM    H3F12552   4.882   4.448   6.193  1.1326 -0.6248  0.7029
  119OSM    H3G12553   4.871   4.274   6.208  0.9283  0.5324  0.5869
  119OSM    C4F12554   4.794   4.368   6.386 -0.1376 -0.3903  0.6205
  119OSM    H4F12555   4.750   4.465   6.417  1.8148  0.5749  0.5420
  119OSM    H4G12556   4.897   4.365   6.428 -0.1677  0.1571  0.7393
  119OSM    C5F12557   4.731   4.242   6.435 -0.4765  0.2898 -0.4523
  119OSM    H5F12558   4.775   4.150   6.391  1.0352  0.8964 -0.2707
  119OSM    H5G12559   4.623   4.251   6.411 -0.6876 -0.3462  0.2391
  119OSM    C6F12560   4.735   4.231   6.590 -1.1851 -0.0362  0.3959
  119OSM    H6F12561   4.686   4.317   6.641 -1.6501 -0.8047  1.2702
  119OSM    H6G12562   4.842   4.224   6.621 -0.8686 -1.1772 -0.8763
  119OSM    C7F12563   4.665   4.110   6.643  0.9559 -0.0068 -0.1339
  119OSM    H7F12564   4.692   4.087   6.749  2.0288  1.4270 -0.0682
  119OSM    H7G12565   4.678   4.014   6.589 -0.5387 -2.1206  2.9737
  119OSM    C8F12566   4.512   4.142   6.636  0.3930 -0.1277 -0.0408
  119OSM    H8F12567   4.463   4.043   6.625  1.1446 -0.5297  0.1278
  119OSM    H8G12568   4.478   4.192   6.543 -2.3245 -0.8930  0.4472
  119OSM    C9F12569   4.460   4.212   6.758  0.4278 -0.0968  0.8611
  119OSM    H9F12570   4.506   4.309   6.782 -0.3057  0.6028 -0.4229
  119OSM   C10F12571   4.365   4.172   6.840  0.6225 -0.4694  0.4005
  119OSM   H10F12572   4.349   4.244   6.922 -0.2157  1.6225 -1.4855
  119OSM   C11F12573   4.277   4.052   6.847  0.3794  0.3335 -0.2479
  119OSM   H11F12574   4.302   3.989   6.759  0.2656  1.3578 -1.0343
  119OSM   H11G12575   4.167   4.067   6.839  0.5981  1.5926 -1.1294
  119OSM   C12F12576   4.310   3.978   6.983 -0.0742  0.1186 -0.4979
  119OSM   H12F12577   4.421   3.976   6.984 -0.0726 -0.5676  0.9959
  119OSM   H12G12578   4.269   3.875   6.994  1.6848 -0.6477 -0.7957
  119OSM   C13F12579   4.254   4.058   7.107  0.8000  0.0509 -0.2053
  119OSM   H13F12580   4.145   4.044   7.092  1.0681 -0.4872 -1.9180
  119OSM   H13G12581   4.279   4.166   7.099  1.1640 -0.0169 -0.0099
  119OSM   C14F12582   4.303   4.003   7.245  0.1534 -0.0677 -0.2080
  119OSM   H14F12583   4.413   4.008   7.258  0.2005 -1.4518  0.0398
  119OSM   H14G12584   4.278   3.895   7.246  0.4721 -0.1435 -0.3776
  119OSM   C15F12585   4.225   4.049   7.366  0.6141 -0.6277  0.2542
  119OSM   H15F12586   4.117   4.032   7.344  0.9239 -1.2157 -0.8996
  119OSM   H15G12587   4.234   4.158   7.383  0.4682 -0.7490  1.2100
  119OSM   C16F12588   4.251   3.973   7.493 -0.4149  0.1844 -0.2478
  119OSM   H16F12589   4.358   3.957   7.518 -0.9357 -3.0597  0.3338
  119OSM   H16G12590   4.207   3.874   7.468  1.1810 -0.9277  1.1172
  119OSM   C17F12591   4.179   4.033   7.619  0.2622  0.4627  0.1290
  119OSM   H17F12592   4.069   4.035   7.606  0.5018 -0.3959 -2.7467
  119OSM   H17G12593   4.211   4.139   7.627  0.5575  0.7870 -3.6015
  119OSM   C18F12594   4.208   3.951   7.751  0.5952  0.2839  0.0426
  119OSM   H18F12595   4.219   3.843   7.729 -0.2501  0.0287  0.7671
  119OSM   H18G12596   4.119   3.953   7.818  0.2560  3.5587 -0.3476
  119OSM   H18H12597   4.291   3.995   7.811  1.1337  0.1534 -0.6023
  120OSM      N12598   1.887   1.770   6.592  0.1194  1.0172  0.1009
  120OSM    C1512599   1.817   1.796   6.718  0.6034  0.1221 -0.9408
  120OSM   H15A12600   1.867   1.873   6.775  0.4262  0.7100 -1.5600
  120OSM   H15B12601   1.814   1.704   6.774  2.3244  0.3820 -0.3559
  120OSM   H15C12602   1.716   1.826   6.694  0.2057  1.1144  1.6554
  120OSM    C1412603   1.817   1.653   6.532  0.1924 -0.1034  0.4049
  120OSM   H14A12604   1.715   1.679   6.508  0.8486  0.1540 -2.5307
  120OSM   H14B12605   1.826   1.570   6.600  0.6270 -0.1079  0.3413
  120OSM   H14C12606   1.874   1.630   6.443  2.3101 -2.0013  2.1418
  120OSM    C1312607   1.871   1.887   6.497  0.6796 -0.3159 -0.5468
  120OSM   H13A12608   1.767   1.912   6.479  0.3003 -0.8129  0.8288
  120OSM   H13B12609   1.930   1.885   6.407  0.6331  1.1031 -0.6280
  120OSM   H13C12610   1.904   1.968   6.559 -0.2025 -0.0241 -0.4464
  120OSM    C1212611   2.027   1.735   6.619 -0.4540  0.9435  0.0832
  120OSM   H12A12612   2.023   1.645   6.680 -2.4702  0.5207 -0.5822
  120OSM   H12B12613   2.063   1.811   6.687 -0.1922  1.4572 -0.6256
  120OSM    C1112614   2.129   1.742   6.510  0.1054  0.8334  0.5740
  120OSM   H11A12615   2.230   1.729   6.556  0.2101 -0.5499 -0.0197
  120OSM   H11B12616   2.144   1.843   6.467  1.1895  0.6059  0.4002
  120OSM      P12617   2.130   1.498   6.403  0.0290 -0.1685  0.1396
  120OSM    O1312618   2.015   1.432   6.338  0.1529  0.2446  0.9683
  120OSM    O1412619   2.268   1.471   6.350  0.8702 -0.0534 -0.6357
  120OSM    O1112620   2.112   1.461   6.560 -0.1896 -0.0316 -0.0654
  120OSM    O1212621   2.103   1.655   6.403 -0.0022 -0.3548  0.5618
  120OSM    C1S12622   2.221   1.440   6.648 -0.2654  0.8522  0.0353
  120OSM    H1S12623   2.269   1.529   6.694  1.9961 -0.4243  0.2834
  120OSM    H1T12624   2.312   1.395   6.603 -0.7199  1.0781 -1.1337
  120OSM     NF12625   2.258   1.368   6.890 -0.2841  0.1937 -0.3846
  120OSM    HNF12626   2.319   1.294   6.916  0.1572  1.3977  2.2568
  120OSM    C2S12627   2.182   1.338   6.769 -0.6662 -0.0185  0.3066
  120OSM    H2S12628   2.073   1.361   6.778 -1.1634 -1.1238 -2.1540
  120OSM    C3S12629   2.170   1.193   6.721 -0.6770  0.2697 -0.3736
  120OSM    H3S12630   2.271   1.148   6.712 -1.0083 -1.2191  2.2677
  120OSM     O312631   2.109   1.162   6.599  0.5226 -0.1875 -0.9492
  120OSM    HO312632   2.097   1.251   6.564  0.1623  0.0876 -0.1406
  120OSM    C4S12633   2.102   1.111   6.825 -0.1401  0.5303  0.8315
  120OSM    H4S12634   2.164   1.060   6.900  1.2793  0.7396 -0.1573
  120OSM    C5S12635   1.973   1.073   6.830  0.1856  0.0752 -0.0247
  120OSM    H5S12636   1.901   1.096   6.751  1.0387 -0.3915 -0.9630
  120OSM    C6S12637   1.921   0.975   6.935  0.3983 -0.1071 -0.0088
  120OSM    H6S12638   1.933   0.871   6.899 -0.9987 -0.5257  0.6365
  120OSM    H6T12639   1.813   0.998   6.949  0.2923 -0.2603 -0.5698
  120OSM    C7S12640   1.993   0.992   7.065 -0.3659  0.1000 -0.4342
  120OSM    H7S12641   2.009   1.099   7.088  4.5563 -0.0089 -2.0737
  120OSM    H7T12642   2.093   0.944   7.060 -1.2028 -1.8516  0.6839
  120OSM    C8S12643   1.909   0.932   7.180  0.9655 -0.0422  0.1690
  120OSM    H8S12644   1.897   0.823   7.163 -2.5013  0.1504  0.5515
  120OSM    H8T12645   1.810   0.984   7.182  0.6730 -0.6085  0.5542
  120OSM    C9S12646   1.979   0.953   7.311 -0.2065  0.5683  0.6661
  120OSM    H9S12647   1.960   1.057   7.344 -2.2962  0.2365  0.7024
  120OSM    H9T12648   2.085   0.924   7.295  0.0280  2.3768 -1.5028
  120OSM   C10S12649   1.920   0.864   7.426  0.8550 -1.2239  0.5948
  120OSM   H10S12650   1.934   0.757   7.398  1.1427 -0.9352 -0.3976
  120OSM   H10T12651   1.813   0.894   7.433  1.3074  0.4504  0.7805
  120OSM   C11S12652   1.975   0.878   7.568  0.5455 -0.1361  0.7657
  120OSM   H11S12653   1.981   0.989   7.576  0.8732  0.0561 -1.3976
  120OSM   H11T12654   2.079   0.838   7.567  1.4531  2.0054 -0.7554
  120OSM   C12S12655   1.877   0.820   7.671 -0.3036 -0.6245 -0.8468
  120OSM   H12S12656   1.877   0.710   7.658 -0.9473 -0.6850 -0.3847
  120OSM   H12T12657   1.775   0.848   7.639 -0.0122 -0.0270 -1.2699
  120OSM   C13S12658   1.907   0.879   7.815 -0.2141  0.1536  0.2967
  120OSM   H13S12659   1.894   0.989   7.827 -0.4834  0.4910 -2.4719
  120OSM   H13T12660   2.015   0.866   7.840  0.2134  2.0335 -0.3509
  120OSM   C14S12661   1.816   0.802   7.919  0.2128 -0.1928  0.2941
  120OSM   H14S12662   1.815   0.693   7.898  3.5772 -0.9602  3.1302
  120OSM   H14T12663   1.712   0.838   7.901  0.3802  1.2400  1.9157
  120OSM   C15S12664   1.847   0.813   8.065  1.0714 -0.0402  0.0872
  120OSM   H15S12665   1.831   0.920   8.091 -1.6500 -0.9614  2.9505
  120OSM   H15T12666   1.953   0.787   8.084  0.7769 -3.1259 -1.7953
  120OSM   C16S12667   1.766   0.715   8.153 -0.3690 -0.0064 -0.1168
  120OSM   H16S12668   1.803   0.612   8.136  0.5191  0.5381 -1.7326
  120OSM   H16T12669   1.660   0.716   8.122 -0.3825  0.1377 -0.0683
  120OSM   C17S12670   1.756   0.752   8.302 -0.5062  0.2278  0.0358
  120OSM   H17S12671   1.707   0.851   8.316  1.7509  1.1925  1.7363
  120OSM   H17T12672   1.853   0.772   8.353 -0.4011  2.9102 -1.0613
  120OSM   C18S12673   1.682   0.653   8.390 -0.0398 -0.1834  0.6449
  120OSM   H18S12674   1.747   0.562   8.390  0.0579 -0.1662 -1.9112
  120OSM   H18T12675   1.582   0.631   8.349  0.1923  1.8949 -1.1936
  120OSM   H18U12676   1.676   0.705   8.488  1.3480  1.2200  0.0319
  120OSM    C1F12677   2.256   1.479   6.962  0.1948 -0.5396 -0.2293
  120OSM     OF12678   2.166   1.565   6.940 -0.2841 -0.1334  0.3682
  120OSM    C2F12679   2.364   1.515   7.062  0.1879 -0.4283 -0.5322
  120OSM    H2F12680   2.463   1.485   7.021  1.0631 -1.0238  1.8613
  120OSM    H2G12681   2.342   1.453   7.151  1.5074 -0.7966 -0.4442
  120OSM    C3F12682   2.357   1.668   7.097 -0.5533  0.8510  0.0405
  120OSM    H3F12683   2.266   1.679   7.159 -0.3116 -0.8056  0.7554
  120OSM    H3G12684   2.358   1.730   7.005  0.5875  1.3505  0.3712
  120OSM    C4F12685   2.493   1.712   7.172 -0.1531 -0.2485 -1.2572
  120OSM    H4F12686   2.461   1.806   7.221  0.9570  0.2046 -1.3700
  120OSM    H4G12687   2.576   1.739   7.103 -0.2265  1.8170 -0.6111
  120OSM    C5F12688   2.557   1.608   7.269 -0.3726  0.4952 -0.3367
  120OSM    H5F12689   2.639   1.661   7.323 -2.1811  2.8843  0.2336
  120OSM    H5G12690   2.592   1.519   7.213 -0.6913 -1.0467  1.7898
  120OSM    C6F12691   2.462   1.565   7.380  0.5122  0.3558 -0.0036
  120OSM    H6F12692   2.511   1.480   7.432 -1.0339 -0.5518  0.0193
  120OSM    H6G12693   2.365   1.533   7.337  0.8751  1.4153 -1.6934
  120OSM    C7F12694   2.445   1.658   7.495 -0.3124 -0.4236 -0.4601
  120OSM    H7F12695   2.393   1.750   7.461 -0.5292 -0.2940  0.2137
  120OSM    H7G12696   2.545   1.689   7.532  0.2065 -0.7458 -1.5494
  120OSM    C8F12697   2.355   1.608   7.608  0.6335 -0.2249  0.9341
  120OSM    H8F12698   2.400   1.513   7.644  1.8910  0.1143  0.3132
  120OSM    H8G12699   2.254   1.591   7.564  1.0508 -1.3185  0.3563
  120OSM    C9F12700   2.370   1.704   7.721 -0.1049 -0.2058 -0.4049
  120OSM    H9F12701   2.396   1.804   7.683 -1.2359  0.7487  1.1821
  120OSM   C10F12702   2.385   1.678   7.853 -0.2162  0.6689  0.2263
  120OSM   H10F12703   2.380   1.764   7.921 -2.2979  0.8435 -0.0777
  120OSM   C11F12704   2.361   1.541   7.914 -0.1159  0.6576  0.3589
  120OSM   H11F12705   2.459   1.509   7.956  0.7436  0.3525 -1.7887
  120OSM   H11G12706   2.327   1.470   7.836 -0.4596  3.3246 -2.1117
  120OSM   C12F12707   2.261   1.538   8.040  0.4919 -0.2309 -0.6492
  120OSM   H12F12708   2.259   1.431   8.070  0.5140 -0.1665 -0.4193
  120OSM   H12G12709   2.163   1.571   7.999  0.7318  1.7076  0.2069
  120OSM   C13F12710   2.312   1.615   8.157  0.7874  0.2808  0.1536
  120OSM   H13F12711   2.276   1.718   8.140  0.1907  0.5619  2.7094
  120OSM   H13G12712   2.423   1.621   8.161  0.7756  0.1677  0.9456
  120OSM   C14F12713   2.262   1.554   8.292  0.1840 -0.0912 -0.0524
  120OSM   H14F12714   2.281   1.444   8.298  0.9579  0.0991  1.7961
  120OSM   H14G12715   2.151   1.559   8.294  0.2004  1.4470 -1.3706
  120OSM   C15F12716   2.326   1.617   8.419  0.0136  0.1015 -0.3074
  120OSM   H15F12717   2.241   1.648   8.484  0.5831 -0.6674  0.8314
  120OSM   H15G12718   2.361   1.717   8.387  0.6676  0.1069  0.4165
  120OSM   C16F12719   2.432   1.516   8.480  0.1250 -0.2868  0.0235
  120OSM   H16F12720   2.488   1.482   8.390 -0.1708  1.2668 -0.7815
  120OSM   H16G12721   2.379   1.434   8.533 -1.0198 -0.6472 -1.6196
  120OSM   C17F12722   2.522   1.575   8.593  0.2977  0.4349  0.1876
  120OSM   H17F12723   2.580   1.657   8.544  2.0382 -1.2863 -0.7831
  120OSM   H17G12724   2.599   1.495   8.604 -0.4381 -0.5412 -1.3633
  120OSM   C18F12725   2.448   1.614   8.717  0.2745 -0.2973 -0.3746
  120OSM   H18F12726   2.405   1.520   8.760 -0.1936  0.3673  0.6642
  120OSM   H18G12727   2.361   1.682   8.705 -0.5983 -1.3546 -0.2417
  120OSM   H18H12728   2.515   1.651   8.798 -0.1370 -1.9958  0.8073
  121OSM      N12729   3.317   3.205   5.995  0.1121 -0.5825  0.0015
  121OSM    C1512730   3.418   3.252   5.896  0.0316 -0.2429 -0.5314
  121OSM   H15A12731   3.498   3.181   5.886  1.2364  1.2939 -2.6386
  121OSM   H15B12732   3.461   3.343   5.933  1.0282 -0.1237 -1.8926
  121OSM   H15C12733   3.381   3.282   5.798 -0.1797 -0.1770 -0.4316
  121OSM    C1412734   3.213   3.317   6.001 -0.2592  0.1470  0.0679
  121OSM   H14A12735   3.144   3.289   6.079  0.1179 -1.2944 -0.0816
  121OSM   H14B12736   3.147   3.319   5.916  0.6291 -2.3063 -0.7802
  121OSM   H14C12737   3.260   3.414   6.011  0.1809 -0.1683  1.3224
  121OSM    C1312738   3.255   3.080   5.947 -0.2618  0.2542  0.2535
  121OSM   H13A12739   3.331   3.004   5.938 -0.5486  0.0063 -0.1249
  121OSM   H13B12740   3.207   3.097   5.852 -0.7381 -2.9469 -0.1711
  121OSM   H13C12741   3.185   3.049   6.023 -1.1984 -1.6177 -1.2852
  121OSM    C1212742   3.382   3.183   6.131  0.1174  0.3841 -0.2015
  121OSM   H12A12743   3.458   3.107   6.123  1.1306  1.4047 -0.4918
  121OSM   H12B12744   3.318   3.146   6.210  1.2369 -0.3152  0.4163
  121OSM    C1112745   3.459   3.296   6.198  0.9309 -0.4132  0.4172
  121OSM   H11A12746   3.489   3.277   6.303  3.6070  2.4888  0.3187
  121OSM   H11B12747   3.397   3.389   6.201  3.8871  1.9146 -2.6949
  121OSM      P12748   3.707   3.238   6.136  0.0714  0.1370 -0.0794
  121OSM    O1312749   3.683   3.104   6.093  0.0138  0.1856  0.2717
  121OSM    O1412750   3.814   3.312   6.072  0.4999  0.4333  0.1074
  121OSM    O1112751   3.728   3.247   6.292  0.4254 -0.6460  0.2616
  121OSM    O1212752   3.573   3.326   6.118 -0.1847  0.4775 -0.1653
  121OSM    C1S12753   3.837   3.195   6.362  0.2224  0.4739  0.2577
  121OSM    H1S12754   3.920   3.269   6.361  1.4409 -0.7804 -2.9720
  121OSM    H1T12755   3.863   3.090   6.338  1.0792  0.8614 -0.5424
  121OSM     NF12756   3.909   3.168   6.600 -0.5482 -0.2287 -0.1374
  121OSM    HNF12757   3.916   3.083   6.652 -1.0540 -1.1086 -1.4609
  121OSM    C2S12758   3.797   3.186   6.517 -0.2198 -0.0247  0.2668
  121OSM    H2S12759   3.761   3.290   6.538 -0.1318 -0.2457  1.6155
  121OSM    C3S12760   3.676   3.090   6.538 -0.4975  1.0489 -0.8078
  121OSM    H3S12761   3.718   2.991   6.565 -1.6290  0.3356 -1.5727
  121OSM     O312762   3.586   3.059   6.429 -0.7821 -0.6806 -0.4252
  121OSM    HO312763   3.627   3.107   6.356  0.1347 -2.5333 -1.2060
  121OSM    C4S12764   3.607   3.136   6.669 -0.3600  0.0928  0.2158
  121OSM    H4S12765   3.652   3.092   6.760 -1.8813 -1.4983  0.2574
  121OSM    C5S12766   3.491   3.209   6.683  0.2396  0.1728 -1.1963
  121OSM    H5S12767   3.434   3.240   6.595 -1.3317  1.3701  0.1694
  121OSM    C6S12768   3.413   3.243   6.804 -0.1290 -0.1271  0.2683
  121OSM    H6S12769   3.320   3.183   6.793  0.2814 -0.5626 -1.0256
  121OSM    H6T12770   3.383   3.348   6.783 -0.2545 -0.1986  0.0876
  121OSM    C7S12771   3.484   3.238   6.938 -0.0913  0.0291 -0.2012
  121OSM    H7S12772   3.591   3.260   6.920  1.0272 -4.5064 -0.4512
  121OSM    H7T12773   3.492   3.139   6.988 -0.0693 -0.0121 -0.2848
  121OSM    C8S12774   3.433   3.337   7.044 -0.1104  0.5774  0.2318
  121OSM    H8S12775   3.335   3.297   7.075  0.1342  0.3254  0.6798
  121OSM    H8T12776   3.427   3.435   6.992  0.7655  0.0234 -0.9681
  121OSM    C9S12777   3.512   3.343   7.176 -0.6760  0.4202  0.5575
  121OSM    H9S12778   3.613   3.388   7.167 -0.4119  0.0364  1.4695
  121OSM    H9T12779   3.525   3.237   7.206 -2.2327  0.1856  0.4656
  121OSM   C10S12780   3.437   3.417   7.292  0.2930 -0.0286  0.3197
  121OSM   H10S12781   3.486   3.392   7.388 -1.4115  0.0163  1.2431
  121OSM   H10T12782   3.329   3.390   7.298  0.2316  0.5636  2.8727
  121OSM   C11S12783   3.441   3.572   7.264 -0.3219  0.3066  0.1055
  121OSM   H11S12784   3.388   3.601   7.171  0.5325 -1.0559 -0.8529
  121OSM   H11T12785   3.547   3.603   7.257 -0.2532  0.0754  0.1066
  121OSM   C12S12786   3.385   3.653   7.380  0.4822  0.3095 -0.2219
  121OSM   H12S12787   3.416   3.759   7.377 -0.6371  0.7031  1.1300
  121OSM   H12T12788   3.431   3.612   7.473  0.3462  1.2984  0.2886
  121OSM   C13S12789   3.232   3.644   7.395  0.3583  0.1633  0.4122
  121OSM   H13S12790   3.198   3.551   7.446  0.0569  0.0562  0.0201
  121OSM   H13T12791   3.188   3.640   7.293  0.6728 -3.1277  0.2898
  121OSM   C14S12792   3.174   3.760   7.482  0.3481  0.0939  0.2517
  121OSM   H14S12793   3.064   3.753   7.468  0.0064  0.0254  2.4991
  121OSM   H14T12794   3.213   3.856   7.442 -1.5843  0.2657 -1.3461
  121OSM   C15S12795   3.207   3.752   7.634  0.3673  0.3190 -0.6073
  121OSM   H15S12796   3.125   3.809   7.683  0.5208  0.2679 -0.2925
  121OSM   H15T12797   3.303   3.802   7.658  0.0166  0.4521  0.6014
  121OSM   C16S12798   3.198   3.618   7.709 -0.5912  0.2668 -0.8826
  121OSM   H16S12799   3.301   3.578   7.709 -0.4592  0.6020 -0.8608
  121OSM   H16T12800   3.134   3.550   7.649  0.7266 -1.9055  0.0819
  121OSM   C17S12801   3.163   3.623   7.857  0.2274 -0.3452  0.0996
  121OSM   H17S12802   3.114   3.528   7.885  0.9281 -1.2170 -1.5173
  121OSM   H17T12803   3.096   3.707   7.885  1.0654  0.0917  0.8558
  121OSM   C18S12804   3.287   3.643   7.952 -0.1194  0.3501 -0.3003
  121OSM   H18S12805   3.252   3.645   8.057  0.0156 -0.9108 -0.2069
  121OSM   H18T12806   3.325   3.743   7.922 -0.8052  0.1391 -2.0121
  121OSM   H18U12807   3.371   3.571   7.944  0.3794  0.9613 -0.6645
  121OSM    C1F12808   4.015   3.261   6.605  0.1552 -0.2376 -0.0677
  121OSM     OF12809   4.012   3.363   6.533 -0.6268  0.0747 -0.0237
  121OSM    C2F12810   4.129   3.247   6.699  0.8057 -0.2689 -0.4448
  121OSM    H2F12811   4.221   3.271   6.642  2.0489 -0.8719  1.2336
  121OSM    H2G12812   4.131   3.141   6.733 -0.6734 -0.3237 -0.4428
  121OSM    C3F12813   4.137   3.334   6.821  0.4725  0.0109 -0.1466
  121OSM    H3F12814   4.043   3.329   6.880  0.6014  0.7774  0.1346
  121OSM    H3G12815   4.142   3.441   6.791  1.2152  0.2594  0.8104
  121OSM    C4F12816   4.246   3.287   6.919  0.7351  0.1708  0.0878
  121OSM    H4F12817   4.332   3.291   6.848 -0.3217 -1.3695 -1.3789
  121OSM    H4G12818   4.225   3.182   6.948  0.1849  0.5134  0.9360
  121OSM    C5F12819   4.254   3.381   7.042  0.2451 -0.0048 -0.0272
  121OSM    H5F12820   4.326   3.340   7.116  0.0186  0.5686  0.5180
  121OSM    H5G12821   4.155   3.407   7.085  1.0485  2.4168  0.5395
  121OSM    C6F12822   4.308   3.521   7.007  0.3893 -1.0174 -0.4400
  121OSM    H6F12823   4.231   3.566   6.941  0.2044 -1.8385 -0.7923
  121OSM    H6G12824   4.410   3.513   6.964  1.0846 -1.4860  1.1794
  121OSM    C7F12825   4.307   3.613   7.132  0.1820  0.5840  0.2506
  121OSM    H7F12826   4.203   3.644   7.155 -0.1138  0.4088 -0.8173
  121OSM    H7G12827   4.361   3.705   7.099  2.0678 -0.6347 -0.2285
  121OSM    C8F12828   4.373   3.549   7.258  0.1339 -0.5114  0.6124
  121OSM    H8F12829   4.468   3.518   7.210 -0.5864 -0.8957 -0.6046
  121OSM    H8G12830   4.315   3.460   7.291 -1.8173  1.0762  1.6649
  121OSM    C9F12831   4.401   3.629   7.384 -0.2512  0.0299 -0.3617
  121OSM    H9F12832   4.498   3.681   7.387  0.3738 -1.0165 -1.4756
  121OSM   C10F12833   4.328   3.618   7.494  0.0538  0.6878 -0.2447
  121OSM   H10F12834   4.356   3.684   7.578  0.9224  1.2884 -0.9843
  121OSM   C11F12835   4.200   3.549   7.503  0.5041  0.9223 -0.4056
  121OSM   H11F12836   4.135   3.560   7.414 -1.3417 -4.8411 -0.1954
  121OSM   H11G12837   4.128   3.591   7.577 -1.3891 -0.0257 -1.6232
  121OSM   C12F12838   4.212   3.396   7.539 -0.0546  0.1856 -0.0481
  121OSM   H12F12839   4.243   3.393   7.645  0.0593  1.8842 -0.0025
  121OSM   H12G12840   4.290   3.352   7.474  0.9152 -0.1172  1.2783
  121OSM   C13F12841   4.074   3.330   7.510 -0.6913 -0.1825 -0.7357
  121OSM   H13F12842   3.995   3.397   7.550  0.3104  0.0253  1.0179
  121OSM   H13G12843   4.068   3.233   7.564  0.3935 -0.5206 -1.2039
  121OSM   C14F12844   4.051   3.291   7.359  0.0882 -0.4974 -0.2109
  121OSM   H14F12845   4.140   3.235   7.323  0.6995 -0.2426  0.8360
  121OSM   H14G12846   4.064   3.389   7.308  2.1197  0.0812  1.2957
  121OSM   C15F12847   3.922   3.217   7.343 -1.0329  0.0900 -0.6535
  121OSM   H15F12848   3.837   3.277   7.382  0.1905  1.9167 -0.6953
  121OSM   H15G12849   3.927   3.128   7.410 -0.7638 -0.8598 -1.9110
  121OSM   C16F12850   3.900   3.166   7.196 -0.2177  0.0227 -0.7011
  121OSM   H16F12851   3.993   3.135   7.143  1.6270  0.1399  2.2473
  121OSM   H16G12852   3.850   3.246   7.137 -1.2387  0.3439  0.5662
  121OSM   C17F12853   3.795   3.045   7.200 -0.0600  0.3775  0.1219
  121OSM   H17F12854   3.702   3.087   7.244 -0.3293 -0.5026  0.4165
  121OSM   H17G12855   3.841   2.966   7.263  1.5419  1.3552  0.2282
  121OSM   C18F12856   3.775   2.998   7.058 -0.0915 -0.7667  0.2007
  121OSM   H18F12857   3.869   2.966   7.008 -0.9150 -0.9366 -1.2889
  121OSM   H18G12858   3.717   3.073   7.000 -0.5051 -1.8020 -0.7665
  121OSM   H18H12859   3.725   2.899   7.060  2.3883 -2.1347 -1.2716
  122OSM      N12860   2.691   5.588   5.967  0.0613  0.1715  0.3744
  122OSM    C1512861   2.563   5.659   5.943  1.4371  0.1581 -0.2931
  122OSM   H15A12862   2.523   5.711   6.029 -0.4046 -1.6583  0.0257
  122OSM   H15B12863   2.485   5.595   5.904  0.4449 -0.4233  2.4342
  122OSM   H15C12864   2.579   5.738   5.871 -1.4991  1.1425  0.0120
  122OSM    C1412865   2.742   5.543   5.836 -0.3858  0.4233  0.4377
  122OSM   H14A12866   2.783   5.623   5.777 -0.4488  0.1156 -0.0323
  122OSM   H14B12867   2.664   5.489   5.783 -1.9611  1.6838  1.3608
  122OSM   H14C12868   2.817   5.466   5.844 -0.3385  0.4896  0.6209
  122OSM    C1312869   2.792   5.687   6.019  0.1653  0.1765 -0.0522
  122OSM   H13A12870   2.763   5.721   6.117  1.4791 -0.0386  0.4197
  122OSM   H13B12871   2.795   5.773   5.954  1.8654  1.4755  1.6193
  122OSM   H13C12872   2.888   5.645   6.043 -0.0760  0.2709  1.1410
  122OSM    C1212873   2.668   5.474   6.068  0.1568 -0.1179 -0.1395
  122OSM   H12A12874   2.608   5.520   6.145  0.6796  0.5417 -0.1193
  122OSM   H12B12875   2.764   5.454   6.113  0.4598  1.5963  0.0397
  122OSM    C1112876   2.590   5.351   6.016 -0.0611 -0.5254  0.6410
  122OSM   H11A12877   2.492   5.386   5.979 -0.2352  0.6267  2.0825
  122OSM   H11B12878   2.561   5.288   6.103  2.6817 -1.1766  1.1953
  122OSM      P12879   2.795   5.195   5.963  0.0746  0.2591 -0.4278
  122OSM    O1312880   2.773   5.050   5.927  0.3326 -0.1331  0.0715
  122OSM    O1412881   2.925   5.258   5.920 -0.0693  0.4148 -0.0130
  122OSM    O1112882   2.783   5.195   6.124 -0.0923 -0.0599  0.0012
  122OSM    O1212883   2.666   5.276   5.918  0.2371 -0.0671  0.0546
  122OSM    C1S12884   2.882   5.141   6.207 -0.4077 -0.2085  0.1865
  122OSM    H1S12885   2.977   5.195   6.187  0.7445 -2.2083  0.0210
  122OSM    H1T12886   2.899   5.037   6.172 -0.6507  0.2579 -1.4111
  122OSM     NF12887   2.941   5.122   6.455  0.3320  0.3823 -0.7863
  122OSM    HNF12888   2.951   5.034   6.501 -0.0138  0.4397 -0.5948
  122OSM    C2S12889   2.836   5.127   6.354 -0.2725 -0.0833  0.9095
  122OSM    H2S12890   2.789   5.227   6.364 -1.9534 -0.3082 -2.9170
  122OSM    C3S12891   2.710   5.040   6.366 -0.7848 -0.8828  0.5076
  122OSM    H3S12892   2.750   4.936   6.367  1.4091 -0.1584 -1.2311
  122OSM     O312893   2.619   5.035   6.254  0.3030 -0.8521 -0.2595
  122OSM    HO312894   2.646   5.109   6.200 -1.5144  0.3384  0.3646
  122OSM    C4S12895   2.642   5.054   6.499 -0.6797  0.1442  0.0505
  122OSM    H4S12896   2.686   4.983   6.571 -0.1954  1.8644  1.5087
  122OSM    C5S12897   2.544   5.134   6.521  0.1922 -0.4968  0.0797
  122OSM    H5S12898   2.505   5.188   6.434  1.0817  0.0655  0.0207
  122OSM    C6S12899   2.484   5.148   6.652  0.3237 -0.1683  0.2059
  122OSM    H6S12900   2.502   5.060   6.718  1.8972  1.3903  2.0129
  122OSM    H6T12901   2.375   5.134   6.636  0.8972 -3.1800 -1.7503
  122OSM    C7S12902   2.525   5.272   6.721 -0.4871 -0.2491  0.1103
  122OSM    H7S12903   2.505   5.364   6.661 -2.8333 -2.0262 -2.0843
  122OSM    H7T12904   2.633   5.269   6.744 -0.2518  0.5144 -0.8044
  122OSM    C8S12905   2.444   5.279   6.856 -0.0945 -0.6325 -0.1347
  122OSM    H8S12906   2.462   5.189   6.918  0.2418  0.2534  1.0689
  122OSM    H8T12907   2.336   5.294   6.831  0.0311  1.1442  0.3208
  122OSM    C9S12908   2.490   5.402   6.931  0.4897 -0.5259  0.5581
  122OSM    H9S12909   2.397   5.455   6.963  1.8295  1.8576  0.7561
  122OSM    H9T12910   2.544   5.477   6.870 -1.4850  0.0742 -0.5569
  122OSM   C10S12911   2.565   5.383   7.059  0.0173 -0.0130  0.6668
  122OSM   H10S12912   2.605   5.483   7.086  0.2343  0.1143 -0.0851
  122OSM   H10T12913   2.649   5.313   7.041  0.5364  0.6709  0.4199
  122OSM   C11S12914   2.478   5.353   7.177 -0.2829 -0.2937 -0.3173
  122OSM   H11S12915   2.428   5.259   7.145  2.5900 -2.6848  1.6854
  122OSM   H11T12916   2.400   5.426   7.206 -0.4009 -0.6240  0.1932
  122OSM   C12S12917   2.572   5.318   7.296  0.1398 -0.4120  0.0083
  122OSM   H12S12918   2.658   5.252   7.273 -0.2993 -1.6326  1.6752
  122OSM   H12T12919   2.515   5.250   7.362 -1.1953 -0.3019 -0.9887
  122OSM   C13S12920   2.620   5.436   7.379 -0.5921  0.5382  0.0435
  122OSM   H13S12921   2.540   5.512   7.390  0.7893  1.8562  1.5376
  122OSM   H13T12922   2.689   5.496   7.315  0.3311  0.8998  1.3375
  122OSM   C14S12923   2.691   5.397   7.518 -0.4249 -0.3761  0.7089
  122OSM   H14S12924   2.758   5.484   7.538 -1.7270  0.4532  1.6331
  122OSM   H14T12925   2.752   5.306   7.497  0.4658  0.7355 -1.9626
  122OSM   C15S12926   2.592   5.382   7.633 -0.1113 -0.0569 -0.0989
  122OSM   H15S12927   2.502   5.328   7.596  0.5511 -0.7153 -0.7896
  122OSM   H15T12928   2.556   5.481   7.670  1.2344  0.3202  0.2450
  122OSM   C16S12929   2.652   5.302   7.748  0.5349 -0.0182  0.1152
  122OSM   H16S12930   2.748   5.347   7.783 -0.2756  0.8183  1.3264
  122OSM   H16T12931   2.674   5.197   7.720 -1.3300 -1.0484  2.3081
  122OSM   C17S12932   2.549   5.297   7.861  0.2052  0.4520 -0.5245
  122OSM   H17S12933   2.447   5.274   7.822  0.0111 -0.8198  0.6540
  122OSM   H17T12934   2.533   5.397   7.908  0.8251  0.4081 -0.2191
  122OSM   C18S12935   2.573   5.201   7.983 -0.2026  0.5984  0.1638
  122OSM   H18S12936   2.481   5.201   8.045 -0.9251  0.9920 -0.8747
  122OSM   H18T12937   2.661   5.227   8.046  0.1962 -0.1592 -0.0767
  122OSM   H18U12938   2.587   5.095   7.954 -0.6576  0.7679 -0.7362
  122OSM    C1F12939   3.034   5.219   6.469 -0.6206 -0.2253  0.4169
  122OSM     OF12940   3.028   5.323   6.407  0.8259  0.2659 -0.2206
  122OSM    C2F12941   3.139   5.203   6.563  0.4290  0.0419 -0.1299
  122OSM    H2F12942   3.178   5.101   6.543 -0.3970  0.1154 -2.5126
  122OSM    H2G12943   3.097   5.217   6.665  1.1345 -0.2736  0.2086
  122OSM    C3F12944   3.256   5.299   6.557 -0.5287 -0.8349  0.3958
  122OSM    H3F12945   3.206   5.394   6.586  1.1176  0.2764 -0.2524
  122OSM    H3G12946   3.301   5.316   6.457 -1.2900  4.0681  0.6472
  122OSM    C4F12947   3.365   5.260   6.663  0.0847  0.4223 -0.4325
  122OSM    H4F12948   3.452   5.322   6.630  0.4595  1.1800  1.8296
  122OSM    H4G12949   3.405   5.160   6.640  1.6478  1.0264 -0.4599
  122OSM    C5F12950   3.332   5.284   6.809 -0.0753 -0.2850  0.1393
  122OSM    H5F12951   3.260   5.207   6.844 -2.8055  2.2398  0.4211
  122OSM    H5G12952   3.281   5.382   6.813  0.6990  0.0965  1.0697
  122OSM    C6F12953   3.465   5.284   6.891  0.3477 -0.4730  0.4894
  122OSM    H6F12954   3.529   5.371   6.865  1.5521 -1.4129  0.2325
  122OSM    H6G12955   3.520   5.194   6.856  0.4141  0.2325 -1.3031
  122OSM    C7F12956   3.440   5.277   7.040 -0.6921  0.1298 -0.2358
  122OSM    H7F12957   3.338   5.313   7.066 -0.4955  1.6638 -1.4299
  122OSM    H7G12958   3.519   5.325   7.102 -0.0286 -1.7937  0.4665
  122OSM    C8F12959   3.436   5.130   7.088 -0.1238 -0.5745 -0.5890
  122OSM    H8F12960   3.539   5.089   7.093  0.1718  0.2291  0.3951
  122OSM    H8G12961   3.392   5.072   7.004 -0.0876 -0.1728 -0.8932
  122OSM    C9F12962   3.361   5.097   7.219  0.3163 -0.0425 -0.1622
  122OSM    H9F12963   3.259   5.060   7.200 -0.1974  1.8497 -1.3828
  122OSM   C10F12964   3.411   5.094   7.341  0.4806  0.3833 -0.3254
  122OSM   H10F12965   3.344   5.073   7.425 -2.6393  2.4505 -2.0820
  122OSM   C11F12966   3.557   5.121   7.381 -0.5725  0.5943  0.4549
  122OSM   H11F12967   3.611   5.179   7.304  0.3012 -0.0400  0.5797
  122OSM   H11G12968   3.603   5.021   7.398  0.3220  1.4257  3.9306
  122OSM   C12F12969   3.575   5.194   7.513  0.1859 -0.0734 -0.2462
  122OSM   H12F12970   3.518   5.290   7.512  1.9278  1.1667  3.0340
  122OSM   H12G12971   3.675   5.243   7.517  1.0219 -1.8002  1.9926
  122OSM   C13F12972   3.537   5.122   7.640  0.5178 -0.0925 -0.3013
  122OSM   H13F12973   3.587   5.023   7.644  2.1703  0.5468 -2.6837
  122OSM   H13G12974   3.427   5.108   7.644  0.6240 -0.8674  3.3913
  122OSM   C14F12975   3.571   5.198   7.767 -0.5343  0.3632 -0.3944
  122OSM   H14F12976   3.498   5.281   7.781  0.9203  2.0048 -1.9793
  122OSM   H14G12977   3.668   5.251   7.751 -0.4732  0.5774  0.6308
  122OSM   C15F12978   3.583   5.108   7.892  0.3482 -0.3351 -0.1277
  122OSM   H15F12979   3.676   5.049   7.880  0.4815 -0.2299  0.3523
  122OSM   H15G12980   3.497   5.037   7.891  0.6957 -0.8902  2.4328
  122OSM   C16F12981   3.569   5.191   8.023  0.5527  0.4324 -0.4101
  122OSM   H16F12982   3.492   5.271   8.023 -0.4778 -0.5187  0.4679
  122OSM   H16G12983   3.662   5.248   8.042  1.7999 -1.6486  0.0879
  122OSM   C17F12984   3.540   5.100   8.138  0.8237  0.0054 -0.1634
  122OSM   H17F12985   3.625   5.030   8.157  1.4419  0.6003 -0.7136
  122OSM   H17G12986   3.445   5.051   8.109  0.2246  1.1132 -0.0969
  122OSM   C18F12987   3.498   5.161   8.269 -0.1579 -0.0772 -0.6653
  122OSM   H18F12988   3.587   5.196   8.326  0.9759 -1.2017 -1.6760
  122OSM   H18G12989   3.452   5.081   8.331 -0.6033  0.3566 -0.4331
  122OSM   H18H12990   3.410   5.228   8.262  0.6760  1.6387  2.6761
  123OSM      N12991   1.007   0.933   6.177  0.1516 -0.4243 -0.0004
  123OSM    C1512992   0.971   0.992   6.044 -0.0853 -0.0998 -0.3676
  123OSM   H15A12993   1.049   0.979   5.971 -0.5608 -0.1127 -0.8732
  123OSM   H15B12994   0.953   1.097   6.059  2.0789  0.1687  0.8387
  123OSM   H15C12995   0.895   0.932   5.997 -0.2694  0.4987 -0.8276
  123OSM    C1412996   1.067   0.797   6.169  0.3901 -0.1592  0.3398
  123OSM   H14A12997   1.148   0.812   6.100 -0.6017  0.6792 -0.6923
  123OSM   H14B12998   1.001   0.723   6.125  1.7960 -0.9689 -0.5030
  123OSM   H14C12999   1.097   0.754   6.263  0.3381 -1.0427 -0.0313
  123OSM    C1313000   1.123   1.014   6.222 -0.4431  0.3353  0.6388
  123OSM   H13A13001   1.211   0.999   6.161 -0.7009  0.2941  0.2673
  123OSM   H13B13002   1.146   1.006   6.327 -0.0826  1.4805  0.6588
  123OSM   H13C13003   1.102   1.119   6.208  2.3211  1.0278  1.1945
  123OSM    C1213004   0.894   0.948   6.279  0.6273 -0.5185  1.0460
  123OSM   H12A13005   0.821   0.872   6.256 -0.0169 -0.7991  3.7747
  123OSM   H12B13006   0.841   1.041   6.267 -0.0869 -1.0554 -0.1517
  123OSM    C1113007   0.927   0.918   6.430 -0.0621  0.3575 -0.4414
  123OSM   H11A13008   0.840   0.955   6.489  0.3120  0.0141  0.3456
  123OSM   H11B13009   1.016   0.979   6.457  1.5151 -0.8031 -2.7300
  123OSM      P13010   0.829   0.686   6.476 -0.1970  0.5888 -0.1898
  123OSM    O1313011   0.721   0.701   6.382  0.2203  0.4966  0.2554
  123OSM    O1413012   0.881   0.551   6.494  0.0958 -0.1102 -0.2671
  123OSM    O1113013   0.791   0.738   6.616 -0.0996 -0.0743  0.7749
  123OSM    O1213014   0.948   0.785   6.447  0.5031  0.4336 -0.0019
  123OSM    C1S13015   0.883   0.757   6.723  0.1517  0.1926  0.4004
  123OSM    H1S13016   0.975   0.806   6.686  0.3312 -0.1477  0.3974
  123OSM    H1T13017   0.913   0.655   6.752  0.0631  0.4472  1.4181
  123OSM     NF13018   0.905   0.855   6.950  0.6408 -0.7920 -0.5228
  123OSM    HNF13019   0.899   0.798   7.032 -0.0506 -0.4509 -0.3306
  123OSM    C2S13020   0.807   0.834   6.840 -0.0440  0.4079 -0.7350
  123OSM    H2S13021   0.778   0.931   6.795 -1.8635 -0.0820 -0.6761
  123OSM    C3S13022   0.683   0.749   6.891  0.2382  0.1720  0.1804
  123OSM    H3S13023   0.717   0.647   6.919  0.2827  0.0312 -0.3688
  123OSM     O313024   0.596   0.705   6.788  0.0870 -0.1746 -0.3181
  123OSM    HO313025   0.628   0.737   6.703 -0.4108  0.0195 -0.4389
  123OSM    C4S13026   0.616   0.816   7.010 -0.2443 -0.2098 -0.0002
  123OSM    H4S13027   0.661   0.766   7.097 -1.6822 -1.9547 -0.1828
  123OSM    C5S13028   0.508   0.901   7.025 -0.0106  0.2740 -0.3571
  123OSM    H5S13029   0.447   0.927   6.937 -2.0346  1.3538  1.2748
  123OSM    C6S13030   0.457   0.932   7.164 -0.5273  0.2111  0.2382
  123OSM    H6S13031   0.347   0.928   7.151 -0.6407  0.7200  1.0091
  123OSM    H6T13032   0.479   1.038   7.189 -0.8602  0.0323  1.3379
  123OSM    C7S13033   0.500   0.836   7.281 -0.0476 -0.1198  0.1014
  123OSM    H7S13034   0.606   0.853   7.306  0.2028 -0.5317 -0.6425
  123OSM    H7T13035   0.477   0.733   7.246  0.7776 -1.1588  2.4430
  123OSM    C8S13036   0.437   0.868   7.414  0.6571  0.0548  0.1328
  123OSM    H8S13037   0.329   0.853   7.393  0.4145  0.0736  1.3030
  123OSM    H8T13038   0.440   0.972   7.454  0.7247  0.1428 -0.1033
  123OSM    C9S13039   0.474   0.772   7.526  0.4206  0.2132 -0.0848
  123OSM    H9S13040   0.585   0.781   7.532  0.3843 -0.0178  1.1722
  123OSM    H9T13041   0.436   0.671   7.500  2.0918 -0.4336 -0.1411
  123OSM   C10S13042   0.415   0.825   7.666  0.2070 -0.2150  0.1988
  123OSM   H10S13043   0.423   0.936   7.668  0.2616 -0.1510 -1.5549
  123OSM   H10T13044   0.470   0.775   7.748 -0.7407 -0.9281  0.4127
  123OSM   C11S13045   0.264   0.783   7.673  0.4747  0.5657 -0.4393
  123OSM   H11S13046   0.265   0.672   7.677 -0.2028  0.5921  0.9332
  123OSM   H11T13047   0.217   0.803   7.575 -1.9505 -1.4030  0.2205
  123OSM   C12S13048   0.174   0.839   7.782  0.0192  0.5054 -0.3286
  123OSM   H12S13049   0.077   0.784   7.785 -0.0569  0.3062 -3.1801
  123OSM   H12T13050   0.158   0.944   7.750 -1.5489  0.9334  1.6766
  123OSM   C13S13051   0.242   0.854   7.918  0.2229 -0.4851  0.1670
  123OSM   H13S13052   0.345   0.895   7.916  0.3530 -0.8348 -0.3192
  123OSM   H13T13053   0.263   0.750   7.951  0.7472 -0.6884 -0.7972
  123OSM   C14S13054   0.151   0.930   8.017 -0.0050 -0.1577 -0.0935
  123OSM   H14S13055   0.050   0.884   8.031  0.2561 -1.6866 -2.5785
  123OSM   H14T13056   0.137   1.031   7.974 -1.6247  0.0614  0.8599
  123OSM   C15S13057   0.204   0.926   8.161  0.1334 -0.0249  0.5877
  123OSM   H15S13058   0.307   0.967   8.158 -0.3446  1.1627 -0.3761
  123OSM   H15T13059   0.208   0.819   8.190 -0.1419 -0.1279  0.2565
  123OSM   C16S13060   0.107   0.996   8.266 -0.2132 -0.6836  0.1888
  123OSM   H16S13061   0.173   0.987   8.355  1.2707 -0.2140 -0.8282
  123OSM   H16T13062   0.011   0.944   8.288 -1.3589  1.3846  0.3187
  123OSM   C17S13063   0.093   1.142   8.221 -0.1284 -0.1136 -0.2378
  123OSM   H17S13064   0.035   1.146   8.127 -2.0127  2.5481  0.9091
  123OSM   H17T13065   0.195   1.182   8.204 -0.4663  0.7925 -0.1868
  123OSM   C18S13066   0.011   1.222   8.323  0.4575 -0.1895  0.0118
  123OSM   H18S13067   0.058   1.220   8.423 -0.4050 -4.1402  0.5115
  123OSM   H18T13068  -0.097   1.195   8.325  0.2911  0.2216 -1.8827
  123OSM   H18U13069   0.009   1.326   8.284  0.6108  0.7317  2.2782
  123OSM    C1F13070   1.010   0.941   6.943 -0.5190 -0.3253  0.5872
  123OSM     OF13071   1.031   1.016   6.844 -0.1733  0.1271  0.5512
  123OSM    C2F13072   1.102   0.937   7.060 -0.3857  0.3748 -0.2973
  123OSM    H2F13073   1.207   0.919   7.027 -0.4825 -0.4216 -0.2002
  123OSM    H2G13074   1.074   0.857   7.132  0.3475 -0.4404 -0.8838
  123OSM    C3F13075   1.087   1.070   7.136 -0.2595 -0.5264 -0.7427
  123OSM    H3F13076   1.105   1.157   7.071 -0.3831  1.7036  2.0207
  123OSM    H3G13077   1.158   1.080   7.221 -1.5523 -0.3718  0.3551
  123OSM    C4F13078   0.938   1.084   7.194 -0.3363  0.1798 -0.2514
  123OSM    H4F13079   0.915   0.992   7.252  2.5359  0.1187  0.9974
  123OSM    H4G13080   0.872   1.102   7.107  0.8696  0.8233 -1.0651
  123OSM    C5F13081   0.930   1.205   7.291 -0.6171  0.5888  0.0525
  123OSM    H5F13082   0.997   1.286   7.254  1.1110 -1.0225 -0.5250
  123OSM    H5G13083   0.965   1.168   7.389  1.9369 -2.5647 -1.8550
  123OSM    C6F13084   0.791   1.271   7.315  0.2477 -0.5632  0.3333
  123OSM    H6F13085   0.754   1.310   7.218 -1.0961 -0.6054  0.8131
  123OSM    H6G13086   0.807   1.368   7.366 -2.2399  1.5389 -2.5359
  123OSM    C7F13087   0.684   1.180   7.374 -0.6004  0.2233  0.1001
  123OSM    H7F13088   0.681   1.083   7.322  1.1194 -0.3109  0.9175
  123OSM    H7G13089   0.587   1.233   7.364 -0.4187  0.3713 -0.9313
  123OSM    C8F13090   0.707   1.139   7.519  1.1306  0.3902  0.2027
  123OSM    H8F13091   0.804   1.087   7.532  0.1302 -2.0437 -1.3759
  123OSM    H8G13092   0.619   1.083   7.556  1.8014  0.0477  1.3532
  123OSM    C9F13093   0.691   1.266   7.604  0.1828  0.2923 -1.0109
  123OSM    H9F13094   0.604   1.331   7.590 -0.7822 -0.2831  1.7019
  123OSM   C10F13095   0.779   1.297   7.705 -0.2531  0.8745 -0.5943
  123OSM   H10F13096   0.762   1.389   7.763 -2.0661  0.9558 -1.1940
  123OSM   C11F13097   0.894   1.210   7.755  0.1075  0.0001 -0.2339
  123OSM   H11F13098   0.994   1.253   7.732  0.8498 -1.7718 -0.4848
  123OSM   H11G13099   0.888   1.108   7.712  1.4070 -0.7168  1.1548
  123OSM   C12F13100   0.884   1.217   7.910 -0.0218  0.0583 -0.4716
  123OSM   H12F13101   0.896   1.322   7.945 -1.0135  0.5525 -1.5451
  123OSM   H12G13102   0.958   1.144   7.950  0.1477 -0.7136 -2.1102
  123OSM   C13F13103   0.758   1.177   7.981 -0.4205  0.3262 -0.4158
  123OSM   H13F13104   0.733   1.074   7.946 -1.6080  0.1144  0.9314
  123OSM   H13G13105   0.671   1.240   7.954 -1.8706 -1.5978 -0.4763
  123OSM   C14F13106   0.773   1.187   8.133 -0.1724 -0.8062  0.7960
  123OSM   H14F13107   0.675   1.222   8.173 -0.4914 -1.1053  0.2797
  123OSM   H14G13108   0.858   1.255   8.153  1.0626 -1.5508 -1.5555
  123OSM   C15F13109   0.803   1.045   8.192  0.0363 -0.2788 -0.1330
  123OSM   H15F13110   0.893   0.997   8.147  0.1819  0.2635 -0.4354
  123OSM   H15G13111   0.717   0.979   8.168 -0.7508  0.6612  0.0573
  123OSM   C16F13112   0.843   1.057   8.341 -0.0326 -0.4638  0.3285
  123OSM   H16F13113   0.759   1.107   8.395  0.0302  0.2260 -0.1965
  123OSM   H16G13114   0.936   1.118   8.340 -0.3482  0.0234  0.3264
  123OSM   C17F13115   0.865   0.918   8.400 -0.5252  0.0616  0.2619
  123OSM   H17F13116   0.946   0.872   8.339 -1.1919  0.9262 -1.3327
  123OSM   H17G13117   0.776   0.853   8.388  0.1584 -0.6096 -1.5492
  123OSM   C18F13118   0.914   0.923   8.544  0.6645  0.6485 -0.8537
  123OSM   H18F13119   1.018   0.965   8.546  1.1700 -0.6147 -0.0124
  123OSM   H18G13120   0.925   0.821   8.585 -0.1082 -1.1598 -4.7295
  123OSM   H18H13121   0.845   0.980   8.609 -0.3604 -0.1242 -1.2320
  124OSM      N13122   0.876   4.147   6.140 -0.4487 -0.5237 -0.2315
  124OSM    C1513123   0.953   4.119   6.010 -0.6479 -0.7480 -0.2146
  124OSM   H15A13124   1.023   4.039   6.029  2.3331  1.7253  0.0106
  124OSM   H15B13125   1.017   4.197   5.971  2.1272 -3.8227 -2.3948
  124OSM   H15C13126   0.892   4.097   5.923  0.5947 -1.6763 -0.8740
  124OSM    C1413127   0.806   4.276   6.138  0.0723 -0.2651 -0.0484
  124OSM   H14A13128   0.874   4.354   6.108 -1.7290  0.8836 -1.3252
  124OSM   H14B13129   0.761   4.303   6.233  0.6857  0.4346  0.0577
  124OSM   H14C13130   0.721   4.281   6.073 -0.6118  0.8704  0.8905
  124OSM    C1313131   0.785   4.023   6.164  0.5219 -0.7026  0.2078
  124OSM   H13A13132   0.710   4.017   6.086 -1.3014  0.2195  1.7845
  124OSM   H13B13133   0.734   4.014   6.259  0.6717  0.4065  0.4008
  124OSM   H13C13134   0.844   3.935   6.144  2.4343  0.2908  1.2633
  124OSM    C1213135   0.979   4.156   6.251  0.1142 -0.0696  0.2084
  124OSM   H12A13136   0.921   4.185   6.338 -0.6302 -0.3704 -0.1752
  124OSM   H12B13137   1.055   4.229   6.227  0.4560 -0.0272  1.3287
  124OSM    C1113138   1.063   4.024   6.283  0.2115 -0.9364  0.2301
  124OSM   H11A13139   0.990   3.943   6.305 -1.2394  0.3597  0.3924
  124OSM   H11B13140   1.128   4.034   6.373  1.7145 -2.0666 -0.6771
  124OSM      P13141   1.213   3.845   6.159  0.1580 -0.4280  0.0517
  124OSM    O1313142   1.108   3.745   6.179  0.3151 -0.0456  0.1963
  124OSM    O1413143   1.290   3.852   6.033  0.2571 -0.1458 -0.3562
  124OSM    O1113144   1.323   3.838   6.279  0.0114 -0.1311 -0.3669
  124OSM    O1213145   1.141   3.987   6.170  0.0526 -0.2643  0.0057
  124OSM    C1S13146   1.411   3.946   6.310  0.6457  0.2573 -0.3209
  124OSM    H1S13147   1.365   4.044   6.332  0.2654  0.1086 -0.4456
  124OSM    H1T13148   1.497   3.958   6.241  1.6236  1.3315  1.0277
  124OSM     NF13149   1.580   4.015   6.479 -0.0617 -0.4293  0.5819
  124OSM    HNF13150   1.679   4.003   6.473  0.2094  1.2988  1.1004
  124OSM    C2S13151   1.494   3.903   6.432  0.2627 -0.3236  0.2515
  124OSM    H2S13152   1.423   3.871   6.512 -0.5823 -1.6847 -0.9895
  124OSM    C3S13153   1.577   3.775   6.405 -0.5392  0.3240 -0.3000
  124OSM    H3S13154   1.663   3.807   6.343 -0.5447 -0.0924 -0.5213
  124OSM     O313155   1.512   3.675   6.328  0.4658 -0.0057 -0.3798
  124OSM    HO313156   1.440   3.719   6.281 -0.9553 -1.9627 -0.1663
  124OSM    C4S13157   1.630   3.707   6.537 -0.2518  0.0708  0.1666
  124OSM    H4S13158   1.698   3.770   6.596 -0.0301  0.0613 -0.0738
  124OSM    C5S13159   1.620   3.577   6.577  0.4584 -0.3196 -0.1565
  124OSM    H5S13160   1.562   3.510   6.512 -0.1512 -0.4304  0.4875
  124OSM    C6S13161   1.700   3.518   6.696 -0.0374  0.0741  0.5715
  124OSM    H6S13162   1.779   3.445   6.668  1.2857  1.2580  1.1385
  124OSM    H6T13163   1.626   3.463   6.758  0.8481 -0.8618  0.8278
  124OSM    C7S13164   1.766   3.611   6.795  0.4167  0.0536  0.8239
  124OSM    H7S13165   1.693   3.660   6.862  1.1891 -0.0152  1.7454
  124OSM    H7T13166   1.799   3.697   6.734 -1.2681 -0.3529 -0.7551
  124OSM    C8S13167   1.883   3.551   6.873  0.2145 -0.7792 -0.1016
  124OSM    H8S13168   1.946   3.634   6.912 -2.2732  0.0407  2.5575
  124OSM    H8T13169   1.943   3.485   6.807  2.3234  1.0154 -0.0927
  124OSM    C9S13170   1.839   3.468   6.997  0.1801  0.2013 -0.2671
  124OSM    H9S13171   1.921   3.395   7.013  1.5128  1.7648  0.3159
  124OSM    H9T13172   1.737   3.430   6.975  0.4992  0.9453 -3.5110
  124OSM   C10S13173   1.828   3.545   7.129 -0.3326  0.3617 -0.9385
  124OSM   H10S13174   1.734   3.605   7.126 -0.1878  0.7225  0.7039
  124OSM   H10T13175   1.901   3.629   7.133 -0.1756  0.1861  0.0326
  124OSM   C11S13176   1.824   3.457   7.253 -0.2001  0.3261  0.4533
  124OSM   H11S13177   1.916   3.394   7.249 -1.5708 -1.8260  1.3483
  124OSM   H11T13178   1.736   3.393   7.233  0.2752  0.3220 -1.9000
  124OSM   C12S13179   1.806   3.546   7.375 -0.2704 -0.5660  0.2863
  124OSM   H12S13180   1.799   3.478   7.463 -0.7520 -1.1828 -0.2145
  124OSM   H12T13181   1.724   3.621   7.372  2.0574  2.1372  0.3057
  124OSM   C13S13182   1.930   3.627   7.412 -0.0604  0.2264  0.4039
  124OSM   H13S13183   1.959   3.697   7.330  0.8942 -2.3882 -1.6496
  124OSM   H13T13184   2.010   3.551   7.428 -0.8222 -0.8757 -0.8154
  124OSM   C14S13185   1.913   3.708   7.547  0.0954 -0.2382  0.2212
  124OSM   H14S13186   1.885   3.650   7.637  1.6607 -1.3047  0.0667
  124OSM   H14T13187   1.827   3.772   7.519 -1.9951 -3.4844 -1.4632
  124OSM   C15S13188   2.042   3.791   7.582 -0.3475  0.5411 -1.0376
  124OSM   H15S13189   2.075   3.846   7.492  1.9833  1.1559  0.0948
  124OSM   H15T13190   2.126   3.721   7.603 -1.5045 -1.2754 -2.2419
  124OSM   C16S13191   2.014   3.879   7.704  0.0379 -0.5477 -0.0457
  124OSM   H16S13192   1.992   3.819   7.794 -0.9956  2.1962  1.6632
  124OSM   H16T13193   1.930   3.949   7.686 -0.0272 -0.0535  1.9453
  124OSM   C17S13194   2.139   3.965   7.736 -1.1118 -0.0116 -0.3030
  124OSM   H17S13195   2.157   4.046   7.662 -0.2614  0.0437 -0.0456
  124OSM   H17T13196   2.228   3.899   7.727  0.1746  1.2239  2.1495
  124OSM   C18S13197   2.136   4.002   7.882  0.1633  0.3952  0.1799
  124OSM   H18S13198   2.233   4.039   7.920  0.4103 -1.6876  1.7154
  124OSM   H18T13199   2.118   3.916   7.950  2.6411  1.3454  2.1958
  124OSM   H18U13200   2.059   4.078   7.906 -0.6408 -0.1947 -0.4695
  124OSM    C1F13201   1.518   4.119   6.534 -0.4582 -0.0326 -0.1017
  124OSM     OF13202   1.408   4.110   6.581 -0.0036 -0.4118 -0.3680
  124OSM    C2F13203   1.587   4.255   6.525 -0.2612 -0.2193  0.3924
  124OSM    H2F13204   1.586   4.290   6.420 -0.5275 -0.7222  0.2238
  124OSM    H2G13205   1.696   4.236   6.538  0.5886  0.2156 -4.5004
  124OSM    C3F13206   1.550   4.361   6.632  1.0089 -0.3548 -0.5440
  124OSM    H3F13207   1.442   4.386   6.623  0.8397 -0.9315 -0.1526
  124OSM    H3G13208   1.586   4.463   6.608 -1.6607  1.0379  0.9025
  124OSM    C4F13209   1.546   4.321   6.784 -0.4829  0.3061  0.1801
  124OSM    H4F13210   1.651   4.334   6.819  0.1633  1.8506 -2.1273
  124OSM    H4G13211   1.511   4.217   6.800  3.0029 -0.8242  1.4508
  124OSM    C5F13212   1.455   4.411   6.879 -0.4408  0.1263 -0.1653
  124OSM    H5F13213   1.357   4.416   6.827  0.5224 -0.5469 -2.1763
  124OSM    H5G13214   1.506   4.509   6.883 -1.4300  0.6594 -0.3195
  124OSM    C6F13215   1.431   4.367   7.027  0.1172 -0.4616  0.2196
  124OSM    H6F13216   1.394   4.263   7.023 -0.7155 -0.1420 -1.1036
  124OSM    H6G13217   1.345   4.434   7.048  1.1406  1.9102 -2.4234
  124OSM    C7F13218   1.547   4.396   7.125 -0.4544  0.2768 -0.7088
  124OSM    H7F13219   1.612   4.476   7.083  2.2293 -2.5294 -2.2671
  124OSM    H7G13220   1.607   4.303   7.135 -0.8274  0.1582  0.5979
  124OSM    C8F13221   1.487   4.427   7.270  0.0108 -0.2840  0.5347
  124OSM    H8F13222   1.421   4.516   7.261  0.3588 -0.1224 -0.5870
  124OSM    H8G13223   1.577   4.451   7.330  1.2309 -0.9337 -0.9477
  124OSM    C9F13224   1.413   4.315   7.333  0.6662  0.4556  0.2521
  124OSM    H9F13225   1.401   4.226   7.271  0.6280 -1.2886  2.5996
  124OSM   C10F13226   1.336   4.323   7.444  0.2543  0.3572 -0.1707
  124OSM   H10F13227   1.277   4.236   7.478  1.3442 -1.2477 -2.1696
  124OSM   C11F13228   1.333   4.431   7.541 -0.4816  0.4339  0.3458
  124OSM   H11F13229   1.230   4.471   7.554  0.2305  2.6245 -0.2918
  124OSM   H11G13230   1.389   4.521   7.508  0.2284  0.6246  1.9848
  124OSM   C12F13231   1.377   4.396   7.693  0.2593 -0.4312  0.6010
  124OSM   H12F13232   1.425   4.492   7.722  0.4350  0.2350 -1.7318
  124OSM   H12G13233   1.461   4.323   7.691 -1.1803 -2.2064 -3.0974
  124OSM   C13F13234   1.273   4.347   7.788 -0.1420  0.1906 -0.6053
  124OSM   H13F13235   1.220   4.254   7.756  0.3560 -0.2203 -0.2676
  124OSM   H13G13236   1.198   4.428   7.793 -1.3760 -0.9355 -0.1947
  124OSM   C14F13237   1.318   4.311   7.935 -0.1762 -1.0370 -1.1856
  124OSM   H14F13238   1.383   4.222   7.942 -0.4779 -1.1921 -0.3044
  124OSM   H14G13239   1.228   4.279   7.991  0.9201 -1.9644  0.0903
  124OSM   C15F13240   1.381   4.435   7.997 -0.3846  0.1676 -0.0094
  124OSM   H15F13241   1.331   4.525   7.955 -1.0406 -0.5646 -0.8508
  124OSM   H15G13242   1.489   4.450   7.975  0.2999 -1.0310  2.2729
  124OSM   C16F13243   1.371   4.426   8.150 -0.4433 -0.0332  0.1592
  124OSM   H16F13244   1.422   4.333   8.184  2.8788  1.4523 -0.4260
  124OSM   H16G13245   1.267   4.436   8.190 -0.6206  0.7045 -0.4705
  124OSM   C17F13246   1.458   4.531   8.222  0.3067  0.0030  0.6856
  124OSM   H17F13247   1.429   4.629   8.179 -2.9984 -1.6473 -1.2915
  124OSM   H17G13248   1.565   4.512   8.196  0.6690  3.2760 -0.7331
  124OSM   C18F13249   1.430   4.525   8.371  0.8402 -0.3360  0.1249
  124OSM   H18F13250   1.418   4.420   8.407 -3.7270  0.5137  1.8467
  124OSM   H18G13251   1.345   4.590   8.405  2.2951  1.2527  0.8915
  124OSM   H18H13252   1.516   4.563   8.431  0.6912 -0.6462  0.5433
  125OSM      N13253   4.259   2.891   6.169 -0.4693 -0.4274 -0.3728
  125OSM    C1513254   4.134   2.915   6.247  0.2453  1.1832 -0.0456
  125OSM   H15A13255   4.138   2.872   6.346 -0.2515  0.4962 -0.3213
  125OSM   H15B13256   4.061   2.854   6.196  0.5191 -0.0915  1.0339
  125OSM   H15C13257   4.115   3.021   6.250  0.2854  1.2464 -1.3176
  125OSM    C1413258   4.270   2.971   6.048 -0.4079  0.2348  0.1738
  125OSM   H14A13259   4.184   2.962   5.983 -0.3356 -0.0796  0.1205
  125OSM   H14B13260   4.360   2.945   5.995  0.3762  0.2252  1.4912
  125OSM   H14C13261   4.269   3.074   6.080  1.4692  0.3898 -0.1704
  125OSM    C1313262   4.361   2.941   6.264 -0.7432  0.7761  0.0818
  125OSM   H13A13263   4.454   2.925   6.212 -0.1941  2.1396  0.6103
  125OSM   H13B13264   4.371   2.883   6.354  0.6611  1.5771  0.4668
  125OSM   H13C13265   4.349   3.046   6.286 -0.6924  1.0244 -0.9914
  125OSM    C1213266   4.275   2.738   6.140  0.0412 -0.3889  0.4582
  125OSM   H12A13267   4.224   2.705   6.050  1.8939  0.7339 -1.0681
  125OSM   H12B13268   4.234   2.687   6.226 -0.1958 -0.1064  0.5162
  125OSM    C1113269   4.410   2.679   6.110 -0.2931 -0.7216 -0.0697
  125OSM   H11A13270   4.454   2.741   6.029 -0.3505  0.2386  0.6200
  125OSM   H11B13271   4.387   2.582   6.062  0.2659 -0.0198 -1.8251
  125OSM      P13272   4.645   2.717   6.228  0.0971  0.5484  0.2410
  125OSM    O1313273   4.721   2.598   6.177 -0.3025 -0.0089 -0.7001
  125OSM    O1413274   4.662   2.838   6.146 -0.6533 -0.3626  0.2140
  125OSM    O1113275   4.678   2.757   6.381  0.2420  0.2765  0.4774
  125OSM    O1213276   4.490   2.682   6.228 -0.2095 -0.2285  0.3380
  125OSM    C1S13277   4.623   2.681   6.489  0.4682 -0.6237  0.1145
  125OSM    H1S13278   4.656   2.575   6.482  0.1234 -0.6099 -2.1403
  125OSM    H1T13279   4.513   2.693   6.479  0.4324 -1.2039 -0.2037
  125OSM     NF13280   4.607   2.649   6.739 -0.3944  0.2963  0.2406
  125OSM    HNF13281   4.512   2.664   6.764 -1.0402  1.7535 -2.6846
  125OSM    C2S13282   4.657   2.738   6.630 -0.6639 -0.5492  0.1544
  125OSM    H2S13283   4.765   2.754   6.650 -1.2872  2.9422  1.4007
  125OSM    C3S13284   4.605   2.887   6.635 -0.5420  0.2213  0.1863
  125OSM    H3S13285   4.494   2.883   6.635 -0.5429  0.1989 -0.2307
  125OSM     O313286   4.639   2.964   6.512 -0.5492 -0.3347  0.1295
  125OSM    HO313287   4.678   2.894   6.459  1.6100 -1.0399  2.4784
  125OSM    C4S13288   4.654   2.969   6.754  0.2020 -0.2834 -0.0218
  125OSM    H4S13289   4.758   2.949   6.786  1.1496  0.9646 -2.1346
  125OSM    C5S13290   4.577   3.062   6.817  0.2853  0.4657  0.4868
  125OSM    H5S13291   4.472   3.079   6.788  0.6251  0.1492 -1.0272
  125OSM    C6S13292   4.634   3.151   6.929  0.4060  0.0290  0.2345
  125OSM    H6S13293   4.601   3.257   6.930  1.4465  0.3583  1.6093
  125OSM    H6T13294   4.744   3.145   6.923  0.3790 -3.1875  1.0191
  125OSM    C7S13295   4.601   3.107   7.073 -0.0700  0.5836  1.1463
  125OSM    H7S13296   4.586   2.997   7.074 -3.2706  0.8943 -0.3153
  125OSM    H7T13297   4.498   3.141   7.098 -0.5387 -0.5816  0.8775
  125OSM    C8S13298   4.705   3.148   7.171  0.4049 -0.3884 -0.5654
  125OSM    H8S13299   4.723   3.257   7.177 -2.2997  0.1109 -0.6541
  125OSM    H8T13300   4.808   3.110   7.149  0.8315  1.6207 -2.3681
  125OSM    C9S13301   4.667   3.113   7.314  0.3180 -0.5472  0.0908
  125OSM    H9S13302   4.757   3.125   7.378 -0.3345 -0.1776  0.9486
  125OSM    H9T13303   4.634   3.007   7.311  1.1720 -0.8083 -1.0432
  125OSM   C10S13304   4.547   3.201   7.363 -0.3027 -0.1267  0.1866
  125OSM   H10S13305   4.461   3.132   7.382 -1.4904  0.7047 -1.8664
  125OSM   H10T13306   4.516   3.273   7.285  1.1796  0.6093  0.2459
  125OSM   C11S13307   4.577   3.268   7.497 -0.8033 -0.0939 -0.9586
  125OSM   H11S13308   4.515   3.361   7.499  2.7877  2.5254  0.6100
  125OSM   H11T13309   4.682   3.303   7.493 -0.6977 -0.4097 -0.9549
  125OSM   C12S13310   4.558   3.167   7.613 -0.0370  0.3030  0.9355
  125OSM   H12S13311   4.638   3.090   7.613 -1.1174 -0.9168 -0.9475
  125OSM   H12T13312   4.467   3.107   7.590  1.1925 -1.6298  0.8008
  125OSM   C13S13313   4.544   3.231   7.755  0.3675 -0.0611  0.3775
  125OSM   H13S13314   4.460   3.303   7.764 -0.5764 -1.0813 -0.0944
  125OSM   H13T13315   4.641   3.281   7.777 -0.1692  0.8272  0.7684
  125OSM   C14S13316   4.538   3.119   7.855  0.3990 -0.2497  0.6013
  125OSM   H14S13317   4.602   3.033   7.825 -2.6990 -2.1297 -1.2412
  125OSM   H14T13318   4.434   3.082   7.842 -0.2240  2.2341 -3.0684
  125OSM   C15S13319   4.570   3.160   8.004 -0.1898  0.2917 -0.2565
  125OSM   H15S13320   4.483   3.217   8.043 -0.3654  0.1948 -0.5014
  125OSM   H15T13321   4.654   3.233   7.995 -1.0220  1.4763  1.0973
  125OSM   C16S13322   4.616   3.043   8.093  0.2733 -0.3324 -1.1719
  125OSM   H16S13323   4.726   3.031   8.096  0.0716 -2.4644  0.1981
  125OSM   H16T13324   4.570   2.950   8.054 -1.1367  0.3588 -1.2425
  125OSM   C17S13325   4.562   3.064   8.235  0.3136  0.1421 -0.3322
  125OSM   H17S13326   4.451   3.055   8.230  0.3454  0.0677 -1.1845
  125OSM   H17T13327   4.600   3.163   8.264 -1.4689  0.8818 -0.3650
  125OSM   C18S13328   4.616   2.954   8.331 -0.2077  0.9571  0.3361
  125OSM   H18S13329   4.576   2.856   8.298 -0.3130  1.5512 -1.3812
  125OSM   H18T13330   4.587   2.966   8.438 -0.3619 -2.0707  0.7387
  125OSM   H18U13331   4.727   2.951   8.334 -0.1920  1.4172  0.2639
  125OSM    C1F13332   4.660   2.529   6.772  0.0520 -0.1221 -0.1429
  125OSM     OF13333   4.762   2.492   6.714  0.4082 -0.2276 -0.0566
  125OSM    C2F13334   4.592   2.444   6.882  0.5259  0.0502 -0.1827
  125OSM    H2F13335   4.525   2.373   6.829  0.7713 -1.3798  1.3492
  125OSM    H2G13336   4.526   2.497   6.953 -0.9714 -1.2456 -0.5458
  125OSM    C3F13337   4.692   2.362   6.964 -0.2338 -0.5490  0.2398
  125OSM    H3F13338   4.755   2.429   7.025 -0.7298  1.2778 -1.1636
  125OSM    H3G13339   4.763   2.307   6.899 -0.7132  0.5147 -1.2377
  125OSM    C4F13340   4.624   2.264   7.054  0.0836 -0.0260 -0.1959
  125OSM    H4F13341   4.682   2.170   7.070 -1.8395 -1.0040  1.6873
  125OSM    H4G13342   4.526   2.237   7.008  0.3416  0.4588 -1.0438
  125OSM    C5F13343   4.611   2.337   7.196  0.0902  0.3300 -0.0956
  125OSM    H5F13344   4.575   2.441   7.185  1.9950  1.1641  0.9895
  125OSM    H5G13345   4.715   2.336   7.235 -0.0413 -0.9264  0.2601
  125OSM    C6F13346   4.519   2.271   7.291 -0.0674 -0.3387  0.2311
  125OSM    H6F13347   4.530   2.161   7.297  0.9592 -0.2313  0.5412
  125OSM    H6G13348   4.418   2.284   7.247  0.3564  0.4083 -0.5743
  125OSM    C7F13349   4.527   2.336   7.427 -0.5213  0.4333 -1.0090
  125OSM    H7F13350   4.532   2.446   7.416 -0.3581  0.5998  0.5301
  125OSM    H7G13351   4.630   2.317   7.462 -0.2905  1.3655 -1.1522
  125OSM    C8F13352   4.433   2.293   7.537  0.4208  0.8987 -0.2395
  125OSM    H8F13353   4.438   2.183   7.545 -2.6207  0.6750 -0.2828
  125OSM    H8G13354   4.330   2.321   7.506  0.0473 -0.3649 -0.1608
  125OSM    C9F13355   4.446   2.380   7.656  0.2459  0.2545 -0.3522
  125OSM    H9F13356   4.461   2.488   7.641  3.2655 -0.2627 -1.7770
  125OSM   C10F13357   4.430   2.344   7.782 -0.2834 -1.1971  0.3177
  125OSM   H10F13358   4.421   2.424   7.857 -0.5494 -0.6269 -0.3049
  125OSM   C11F13359   4.417   2.205   7.842 -0.2710  0.1512  0.8508
  125OSM   H11F13360   4.404   2.129   7.762  1.1095  0.1549  0.5945
  125OSM   H11G13361   4.324   2.208   7.903 -1.7132  1.1412 -1.2671
  125OSM   C12F13362   4.532   2.186   7.934  1.3114  0.2779  0.0050
  125OSM   H12F13363   4.631   2.224   7.902  1.7125  0.6362  1.5816
  125OSM   H12G13364   4.550   2.077   7.946 -0.2625  0.0972  0.9697
  125OSM   C13F13365   4.508   2.253   8.072 -0.2321 -0.5218 -0.6120
  125OSM   H13F13366   4.506   2.363   8.062  3.4551 -0.2081  0.5616
  125OSM   H13G13367   4.597   2.242   8.138 -1.1444 -0.9641  0.5868
  125OSM   C14F13368   4.391   2.205   8.145 -0.0435  0.2218  0.1567
  125OSM   H14F13369   4.380   2.095   8.129 -0.5202  0.7136 -3.7123
  125OSM   H14G13370   4.295   2.243   8.104  0.6382  4.3438  1.9224
  125OSM   C15F13371   4.385   2.232   8.298 -0.5991 -0.5458  0.0359
  125OSM   H15F13372   4.418   2.334   8.329 -1.0068 -0.5793  0.6066
  125OSM   H15G13373   4.457   2.166   8.351  1.4853  1.3567 -0.2562
  125OSM   C16F13374   4.245   2.209   8.344 -0.1429  0.3605 -0.4584
  125OSM   H16F13375   4.210   2.107   8.319  1.6101 -0.5066  0.4527
  125OSM   H16G13376   4.176   2.281   8.293  0.9276  1.6433 -0.1585
  125OSM   C17F13377   4.223   2.231   8.495 -0.0958  0.1778  0.2218
  125OSM   H17F13378   4.289   2.307   8.542 -1.1914  0.6264  1.0780
  125OSM   H17G13379   4.252   2.130   8.532 -1.2117  0.0151  0.6957
  125OSM   C18F13380   4.081   2.255   8.539  0.3277 -0.1892 -0.4933
  125OSM   H18F13381   4.068   2.221   8.644 -1.2777 -2.4303 -1.3469
  125OSM   H18G13382   4.021   2.190   8.472 -0.9150  0.6980 -0.2695
  125OSM   H18H13383   4.052   2.361   8.519 -1.2159 -1.0876 -3.7852
  126OSM      N13384   2.050   6.647   6.356  0.0937 -0.9591 -0.0842
  126OSM    C1513385   2.143   6.612   6.478  0.5260 -0.0166  0.3307
  126OSM   H15A13386   2.091   6.617   6.573 -0.7890 -0.8121 -0.3185
  126OSM   H15B13387   2.232   6.673   6.479  0.0745  0.6592  0.1201
  126OSM   H15C13388   2.188   6.515   6.463  0.8374  0.1881 -0.0895
  126OSM    C1413389   2.132   6.659   6.231  0.0051 -0.2849 -0.0544
  126OSM   H14A13390   2.075   6.710   6.155 -2.2777  0.1947  1.8520
  126OSM   H14B13391   2.157   6.559   6.200  0.9038 -0.7943  2.0842
  126OSM   H14C13392   2.228   6.706   6.245  1.0734 -0.1545 -5.6055
  126OSM    C1313393   1.943   6.544   6.336  0.5165 -0.3463  0.1248
  126OSM   H13A13394   1.965   6.460   6.271 -3.5196 -1.6928  0.2017
  126OSM   H13B13395   1.850   6.572   6.290  0.1728  1.4841  1.8060
  126OSM   H13C13396   1.915   6.499   6.430  0.1243 -0.3072  0.0272
  126OSM    C1213397   1.984   6.786   6.377  0.0472 -0.5048  0.3982
  126OSM   H12A13398   1.918   6.807   6.293  0.8331  0.6688  0.0667
  126OSM   H12B13399   2.060   6.862   6.380  0.6282 -0.7964 -2.9778
  126OSM    C1113400   1.897   6.801   6.506 -0.2378 -0.3171 -0.6591
  126OSM   H11A13401   1.860   6.704   6.545  1.3278  0.1309  2.2043
  126OSM   H11B13402   1.804   6.861   6.494  0.0533  0.2766 -0.0256
  126OSM      P13403   2.004   7.007   6.622  0.0891 -0.4629  0.2440
  126OSM    O1313404   2.103   7.032   6.725 -0.1044  0.5339  0.4499
  126OSM    O1413405   2.030   7.070   6.489 -0.1008  0.4700 -0.7505
  126OSM    O1113406   1.865   7.065   6.672 -0.0812  0.0105 -0.3698
  126OSM    O1213407   1.976   6.851   6.614 -0.6766 -0.2047 -0.2266
  126OSM    C1S13408   1.778   6.993   6.761 -0.3336 -0.4795  0.5178
  126OSM    H1S13409   1.826   6.895   6.783  0.2056 -1.0264 -2.6364
  126OSM    H1T13410   1.675   6.985   6.720  0.3254  0.4924 -1.4542
  126OSM     NF13411   1.698   6.960   7.000  0.8673 -0.4822  0.0650
  126OSM    HNF13412   1.605   6.977   7.029  0.4955 -2.0265 -0.1696
  126OSM    C2S13413   1.761   7.054   6.908 -0.2339  0.0295  0.6387
  126OSM    H2S13414   1.867   7.062   6.939 -0.4880 -0.0677  1.5473
  126OSM    C3S13415   1.686   7.186   6.906 -0.6920  0.1722  0.3294
  126OSM    H3S13416   1.579   7.164   6.886 -1.1193  1.5870  0.9318
  126OSM     O313417   1.729   7.282   6.802  0.6672  0.3722  0.6008
  126OSM    HO313418   1.774   7.228   6.736  1.9062 -0.5595  2.1546
  126OSM    C4S13419   1.688   7.258   7.043 -0.4452  0.0477 -0.0933
  126OSM    H4S13420   1.616   7.214   7.113  0.5736  1.1453  1.7183
  126OSM    C5S13421   1.773   7.354   7.084  0.0974 -0.0286 -0.1653
  126OSM    H5S13422   1.838   7.392   7.004 -1.0362 -1.3082 -1.7537
  126OSM    C6S13423   1.769   7.417   7.222  0.1916 -0.9201 -0.0772
  126OSM    H6S13424   1.727   7.519   7.206 -1.1255 -1.1147  1.7235
  126OSM    H6T13425   1.869   7.414   7.269  0.4624 -0.3482 -0.6094
  126OSM    C7S13426   1.662   7.348   7.318  0.3694 -0.3079  0.3057
  126OSM    H7S13427   1.679   7.239   7.327 -0.7869 -0.4231  1.3426
  126OSM    H7T13428   1.556   7.366   7.291  0.2195  1.0826  1.6824
  126OSM    C8S13429   1.684   7.394   7.461  0.1160 -0.3140 -0.4926
  126OSM    H8S13430   1.672   7.504   7.456  0.6841 -0.2416 -0.3693
  126OSM    H8T13431   1.788   7.375   7.494  0.4644 -0.2374 -1.5043
  126OSM    C9S13432   1.584   7.332   7.556 -0.3549  0.3251  0.2004
  126OSM    H9S13433   1.591   7.221   7.550  0.4147  0.3807  0.0665
  126OSM    H9T13434   1.486   7.357   7.509  1.1619 -0.2491 -3.6114
  126OSM   C10S13435   1.591   7.365   7.703 -0.2978 -0.0580  0.5792
  126OSM   H10S13436   1.592   7.475   7.719  0.0279 -0.0372  0.4309
  126OSM   H10T13437   1.694   7.349   7.740  0.0316 -0.4349 -0.4604
  126OSM   C11S13438   1.477   7.301   7.783 -0.5509  0.9430 -0.3072
  126OSM   H11S13439   1.487   7.193   7.762  4.0221  1.0995 -0.0099
  126OSM   H11T13440   1.373   7.328   7.757 -1.1325  1.4484  2.2408
  126OSM   C12S13441   1.502   7.329   7.939  0.2303  0.7764 -0.3744
  126OSM   H12S13442   1.488   7.435   7.968  0.0705  0.0404  2.6466
  126OSM   H12T13443   1.600   7.298   7.980 -2.0792 -3.2231  2.9978
  126OSM   C13S13444   1.408   7.250   8.034  0.3253 -0.2845 -0.2295
  126OSM   H13S13445   1.410   7.143   8.005 -1.9090 -0.9110  1.6469
  126OSM   H13T13446   1.305   7.283   8.008  1.3411  3.2082 -0.2787
  126OSM   C14S13447   1.438   7.270   8.178  0.3271 -0.0733 -0.0936
  126OSM   H14S13448   1.404   7.374   8.199  1.6147  0.3265  0.1560
  126OSM   H14T13449   1.546   7.253   8.200 -0.0670  0.1124  2.2264
  126OSM   C15S13450   1.352   7.180   8.269 -0.8690  0.3507  0.1111
  126OSM   H15S13451   1.395   7.078   8.257  0.5911  1.2807 -5.3991
  126OSM   H15T13452   1.251   7.171   8.223 -0.1699 -0.9991 -1.2393
  126OSM   C16S13453   1.339   7.231   8.412 -0.0050 -0.2613  0.2567
  126OSM   H16S13454   1.257   7.171   8.457  0.7474 -1.2023  0.3962
  126OSM   H16T13455   1.307   7.337   8.419 -0.9803 -0.4769 -0.6141
  126OSM   C17S13456   1.468   7.199   8.488  0.6997  0.4054 -0.0297
  126OSM   H17S13457   1.561   7.230   8.436  0.9288 -1.2068 -0.6264
  126OSM   H17T13458   1.477   7.088   8.479 -0.8889  0.2151  0.4522
  126OSM   C18S13459   1.478   7.245   8.633  0.0928 -0.1964 -1.0596
  126OSM   H18S13460   1.577   7.233   8.682  0.6081  1.9844 -1.4378
  126OSM   H18T13461   1.405   7.193   8.698  1.8100 -1.5008 -0.0826
  126OSM   H18U13462   1.475   7.356   8.642  0.7120 -0.1987 -0.7486
  126OSM    C1F13463   1.746   6.839   7.029  0.3359  0.8266  0.3839
  126OSM     OF13464   1.863   6.809   7.015  0.4818 -0.0905  0.2813
  126OSM    C2F13465   1.655   6.743   7.093 -0.0747  0.8189  0.0855
  126OSM    H2F13466   1.566   6.722   7.030 -0.3352 -1.9157  1.2104
  126OSM    H2G13467   1.631   6.784   7.193 -1.7897  0.8255 -0.3053
  126OSM    C3F13468   1.714   6.600   7.112  0.3059  1.1867  0.0100
  126OSM    H3F13469   1.741   6.554   7.014  2.1322  0.5443  0.7730
  126OSM    H3G13470   1.632   6.539   7.155  0.7036 -0.4121 -1.3854
  126OSM    C4F13471   1.809   6.571   7.230 -0.9147 -0.2955  0.3749
  126OSM    H4F13472   1.901   6.633   7.219 -0.4941 -0.6457  1.7165
  126OSM    H4G13473   1.840   6.465   7.215 -0.5935  0.0888 -2.0911
  126OSM    C5F13474   1.762   6.589   7.368  0.0597  0.1022  0.8148
  126OSM    H5F13475   1.667   6.535   7.387 -1.9822  2.8042 -0.9319
  126OSM    H5G13476   1.737   6.697   7.377 -1.5978 -0.1624 -0.2188
  126OSM    C6F13477   1.856   6.551   7.483  0.5297  1.0334  0.0461
  126OSM    H6F13478   1.949   6.612   7.489  1.3845 -0.1891 -0.2507
  126OSM    H6G13479   1.890   6.445   7.477 -1.0605  0.3052  2.3456
  126OSM    C7F13480   1.787   6.567   7.615 -0.2908  0.1330  0.5555
  126OSM    H7F13481   1.691   6.513   7.612 -1.9069  2.7638  1.1539
  126OSM    H7G13482   1.766   6.676   7.623  1.6513  1.2252 -5.0023
  126OSM    C8F13483   1.869   6.530   7.736  0.3196  0.3052  0.0845
  126OSM    H8F13484   1.963   6.589   7.737 -0.3407  1.4313 -0.8792
  126OSM    H8G13485   1.898   6.423   7.726 -1.8567 -0.2646 -0.8042
  126OSM    C9F13486   1.789   6.540   7.859  1.0499  0.4958 -0.5098
  126OSM    H9F13487   1.704   6.609   7.860  1.8151  1.7338  4.4455
  126OSM   C10F13488   1.821   6.478   7.974 -0.3629 -0.3340  0.0410
  126OSM   H10F13489   1.759   6.500   8.062 -0.2504 -0.8011  0.2441
  126OSM   C11F13490   1.934   6.383   8.009 -0.1147 -0.0540 -0.1059
  126OSM   H11F13491   1.977   6.355   7.910 -0.8689 -1.6501 -0.0136
  126OSM   H11G13492   1.905   6.287   8.056  0.6062  0.1456  0.7695
  126OSM   C12F13493   2.043   6.447   8.099 -0.2726 -0.0932  0.5195
  126OSM   H12F13494   2.087   6.534   8.045  1.0003 -1.1110 -0.1423
  126OSM   H12G13495   2.125   6.375   8.120 -1.1577 -0.8616  1.3989
  126OSM   C13F13496   2.010   6.507   8.238  1.0382  0.7549  0.4883
  126OSM   H13F13497   1.928   6.580   8.226 -1.1853 -1.2915  2.2802
  126OSM   H13G13498   2.109   6.543   8.274  0.6795 -0.8452  3.3106
  126OSM   C14F13499   1.967   6.409   8.335  0.9355 -0.2483 -0.2706
  126OSM   H14F13500   2.019   6.311   8.325  1.4148 -0.1445  0.9520
  126OSM   H14G13501   1.860   6.386   8.317  0.8979  0.0335 -0.4024
  126OSM   C15F13502   1.990   6.460   8.481  0.3731  0.4813  1.3452
  126OSM   H15F13503   1.957   6.566   8.482  0.0716  0.5530 -2.5084
  126OSM   H15G13504   2.098   6.471   8.504  1.0991  1.3316 -1.9963
  126OSM   C16F13505   1.915   6.383   8.585  0.8089  0.5510 -0.1967
  126OSM   H16F13506   1.940   6.275   8.581 -1.4508 -0.0247 -0.4251
  126OSM   H16G13507   1.807   6.385   8.559  1.0170  1.1056 -1.0396
  126OSM   C17F13508   1.940   6.436   8.727  0.5433 -0.2149 -0.3889
  126OSM   H17F13509   1.929   6.546   8.740  0.1414 -0.0834 -1.7317
  126OSM   H17G13510   2.049   6.423   8.749  0.9942  1.8925 -1.1391
  126OSM   C18F13511   1.850   6.366   8.826  0.1980 -0.3832  0.3149
  126OSM   H18F13512   1.873   6.258   8.821  1.2311 -0.1486 -0.3183
  126OSM   H18G13513   1.743   6.384   8.804  0.1005  0.4812  1.4217
  126OSM   H18H13514   1.864   6.411   8.927 -0.1553 -1.8361  1.0278
  127OSM      N13515   0.405   1.079   6.405 -0.6246 -0.5049  0.0629
  127OSM    C1513516   0.368   1.174   6.521  0.2498  0.1831 -0.7570
  127OSM   H15A13517   0.261   1.189   6.517  0.3107  0.7237 -0.4393
  127OSM   H15B13518   0.423   1.267   6.520  1.4394 -0.3810  2.4377
  127OSM   H15C13519   0.390   1.121   6.612  2.6675  0.9745 -0.8144
  127OSM    C1413520   0.476   1.154   6.296 -0.9588 -0.0510 -0.2959
  127OSM   H14A13521   0.573   1.184   6.333 -1.0392 -0.8973  0.6520
  127OSM   H14B13522   0.422   1.242   6.264  2.7602  2.0608 -1.3134
  127OSM   H14C13523   0.486   1.090   6.209 -1.8648  1.3983 -1.5093
  127OSM    C1313524   0.492   0.967   6.463  0.5586 -0.1989  0.1689
  127OSM   H13A13525   0.514   0.892   6.389  2.7700  0.4641  0.0755
  127OSM   H13B13526   0.432   0.920   6.540 -1.1408 -1.0080 -1.5797
  127OSM   H13C13527   0.589   1.003   6.496  0.6079 -0.8554  0.7612
  127OSM    C1213528   0.277   1.027   6.349  0.8012 -0.1596 -0.4585
  127OSM   H12A13529   0.218   0.994   6.433  1.5544  0.6741  0.4217
  127OSM   H12B13530   0.306   0.948   6.282  4.0965  0.8421 -0.4204
  127OSM    C1113531   0.178   1.124   6.287  0.3514 -0.3215 -0.0969
  127OSM   H11A13532   0.101   1.063   6.234  0.8136  0.2735 -1.4986
  127OSM   H11B13533   0.233   1.177   6.206  0.8896  0.4969  0.7900
  127OSM      P13534   0.048   1.337   6.337 -0.0062 -0.3056 -0.1949
  127OSM    O1313535   0.121   1.390   6.218  0.4911  0.3010  0.7065
  127OSM    O1413536  -0.094   1.289   6.315  0.1458 -0.5270 -0.4443
  127OSM    O1113537   0.060   1.440   6.454 -0.2443  0.2660  0.2247
  127OSM    O1213538   0.121   1.211   6.384 -0.4899 -0.0969 -0.2779
  127OSM    C1S13539   0.048   1.405   6.591  0.2107 -0.7558  0.5633
  127OSM    H1S13540   0.135   1.347   6.631  0.4582 -1.0669 -0.3888
  127OSM    H1T13541  -0.035   1.335   6.612  0.1728 -0.8136  0.2292
  127OSM     NF13542   0.018   1.476   6.831 -0.5785 -0.2944 -0.1225
  127OSM    HNF13543  -0.076   1.477   6.863 -1.1199  0.4034 -1.6067
  127OSM    C2S13544   0.030   1.527   6.694  0.6972 -0.0506  0.6560
  127OSM    H2S13545   0.120   1.593   6.695  1.2145 -0.6906  2.4994
  127OSM    C3S13546  -0.082   1.630   6.652  0.2337  0.0464  0.5031
  127OSM    H3S13547  -0.182   1.584   6.667 -0.9853  2.0981 -0.8005
  127OSM     O313548  -0.071   1.663   6.511 -0.4693  0.6127 -0.3271
  127OSM    HO313549  -0.012   1.592   6.486  0.7486  0.6214  2.1438
  127OSM    C4S13550  -0.076   1.751   6.740  0.3958 -0.2871  0.7832
  127OSM    H4S13551   0.025   1.788   6.765 -0.3122  1.1386  1.6873
  127OSM    C5S13552  -0.179   1.810   6.796 -0.2133  0.4272 -0.5619
  127OSM    H5S13553  -0.281   1.769   6.791 -0.1953  0.4492 -1.2028
  127OSM    C6S13554  -0.170   1.921   6.896 -0.3649  0.1256 -0.3642
  127OSM    H6S13555  -0.250   1.899   6.969  0.3798  2.2665  1.2197
  127OSM    H6T13556  -0.187   2.022   6.853  0.7456  1.0111  1.1580
  127OSM    C7S13557  -0.045   1.931   6.986 -0.2131  0.3185  0.5170
  127OSM    H7S13558   0.033   1.949   6.909 -0.1306 -2.8313 -0.2777
  127OSM    H7T13559  -0.022   1.838   7.043  0.9824  0.0930 -0.2788
  127OSM    C8S13560  -0.057   2.041   7.096 -0.8366  0.0813 -0.3678
  127OSM    H8S13561  -0.121   2.009   7.181 -0.0273  0.8600  0.5598
  127OSM    H8T13562  -0.103   2.124   7.037 -1.7463 -0.3285 -0.2488
  127OSM    C9S13563   0.085   2.090   7.136 -0.1120 -0.2466  0.0316
  127OSM    H9S13564   0.128   2.173   7.075  0.9118 -0.3482  0.5901
  127OSM    H9T13565   0.165   2.014   7.125  1.8842  1.5223  1.3482
  127OSM   C10S13566   0.093   2.141   7.280 -0.1097 -0.0650  0.0759
  127OSM   H10S13567   0.187   2.101   7.324  0.7010  1.9147  0.2429
  127OSM   H10T13568   0.005   2.128   7.347  0.6960  1.5434  1.5391
  127OSM   C11S13569   0.112   2.293   7.274 -0.1069 -0.3776 -0.2564
  127OSM   H11S13570   0.028   2.338   7.217 -1.9110  0.2742  2.7039
  127OSM   H11T13571   0.207   2.301   7.217  0.1460  0.6020  0.2810
  127OSM   C12S13572   0.128   2.364   7.412  0.6091 -0.0229  0.3078
  127OSM   H12S13573   0.126   2.474   7.397 -0.3389 -0.0628  0.1204
  127OSM   H12T13574   0.227   2.337   7.456  0.6795 -1.4585 -0.6886
  127OSM   C13S13575   0.012   2.339   7.507  0.1801  0.1924  0.0274
  127OSM   H13S13576  -0.011   2.231   7.515 -2.5182  0.4117 -2.6981
  127OSM   H13T13577  -0.073   2.392   7.457  2.1188  0.9860 -2.6664
  127OSM   C14S13578   0.023   2.385   7.649  0.3627  0.1702  0.2738
  127OSM   H14S13579  -0.063   2.335   7.698  0.0567  0.0709 -0.3561
  127OSM   H14T13580   0.013   2.495   7.662  2.3553  0.1309  3.4689
  127OSM   C15S13581   0.150   2.340   7.718  0.2555  0.1739 -0.9312
  127OSM   H15S13582   0.222   2.400   7.659  0.8400  0.8906  0.4571
  127OSM   H15T13583   0.167   2.230   7.720  1.0253  0.2830  1.8681
  127OSM   C16S13584   0.158   2.383   7.867 -0.1918 -0.1553 -0.4687
  127OSM   H16S13585   0.117   2.301   7.930  1.8993 -0.7769  0.1348
  127OSM   H16T13586   0.088   2.468   7.883  0.3346 -0.0295  1.4147
  127OSM   C17S13587   0.300   2.416   7.924 -0.8952  0.2578  0.5408
  127OSM   H17S13588   0.335   2.518   7.899  1.3219 -1.0924 -2.5188
  127OSM   H17T13589   0.371   2.353   7.867 -2.7186 -0.2209 -1.3199
  127OSM   C18S13590   0.309   2.406   8.074  0.2148  0.0401 -0.1878
  127OSM   H18S13591   0.415   2.431   8.100 -0.2360  2.5673 -0.5391
  127OSM   H18T13592   0.278   2.309   8.117 -0.6303  0.2201 -0.3862
  127OSM   H18U13593   0.242   2.480   8.123  0.0181 -0.1965 -0.0990
  127OSM    C1F13594   0.114   1.419   6.898  0.4577  0.1835 -0.1376
  127OSM     OF13595   0.226   1.407   6.850 -0.7473  0.2648 -0.0309
  127OSM    C2F13596   0.080   1.363   7.029  0.7044  0.3183 -0.1699
  127OSM    H2F13597   0.040   1.261   7.012  4.2650 -1.3612  0.4208
  127OSM    H2G13598   0.005   1.433   7.071  0.8033 -0.8041  1.9812
  127OSM    C3F13599   0.199   1.347   7.131  0.7252 -0.4156  0.1415
  127OSM    H3F13600   0.241   1.450   7.140 -2.1849  0.9997 -1.1885
  127OSM    H3G13601   0.275   1.274   7.095 -0.7708 -1.7281 -0.4517
  127OSM    C4F13602   0.160   1.295   7.269 -0.0927 -0.8847  0.5344
  127OSM    H4F13603   0.110   1.196   7.268 -0.1100 -0.8804 -0.7615
  127OSM    H4G13604   0.085   1.362   7.315  0.8231 -2.1636  4.2116
  127OSM    C5F13605   0.279   1.288   7.365  0.2129 -0.8859  0.1068
  127OSM    H5F13606   0.341   1.379   7.355 -0.2001 -0.6870 -0.7675
  127OSM    H5G13607   0.327   1.192   7.337  0.9103  0.0229 -2.0512
  127OSM    C6F13608   0.230   1.287   7.509  0.0232  0.3545 -0.4221
  127OSM    H6F13609   0.179   1.189   7.515 -0.1088  0.3229 -1.7455
  127OSM    H6G13610   0.173   1.378   7.536  1.2777  0.9005  0.5145
  127OSM    C7F13611   0.356   1.291   7.611  0.9882 -0.0069  0.2550
  127OSM    H7F13612   0.412   1.382   7.581  1.6060 -0.6660 -0.6376
  127OSM    H7G13613   0.425   1.206   7.597 -0.9591 -1.5325 -0.4978
  127OSM    C8F13614   0.317   1.296   7.765  0.7502  0.2760 -0.0747
  127OSM    H8F13615   0.388   1.230   7.820  0.8704  2.0421  2.0089
  127OSM    H8G13616   0.223   1.237   7.760  0.4181  0.7843  0.1985
  127OSM    C9F13617   0.287   1.421   7.836  0.5067 -0.1922 -0.1537
  127OSM    H9F13618   0.369   1.493   7.847 -0.7883  0.8884  4.4020
  127OSM   C10F13619   0.171   1.461   7.891 -0.4171  0.2199 -0.4481
  127OSM   H10F13620   0.174   1.540   7.968 -1.0414 -1.0504  0.9232
  127OSM   C11F13621   0.033   1.394   7.879  0.0908  0.3267  0.3455
  127OSM   H11F13622  -0.021   1.400   7.976  2.1317 -0.0349  1.5559
  127OSM   H11G13623   0.047   1.285   7.866  0.5182  0.0360  2.8337
  127OSM   C12F13624  -0.056   1.457   7.767 -0.0163 -0.0081 -0.7909
  127OSM   H12F13625   0.000   1.544   7.728  2.1670 -1.1243 -0.3070
  127OSM   H12G13626  -0.141   1.506   7.818 -0.2251 -0.8194 -0.3341
  127OSM   C13F13627  -0.094   1.367   7.652 -0.4523 -0.0233  0.4357
  127OSM   H13F13628  -0.174   1.294   7.674 -0.2806 -1.7323 -3.6395
  127OSM   H13G13629  -0.005   1.305   7.627 -0.0654  0.8184 -0.3582
  127OSM   C14F13630  -0.135   1.446   7.522 -0.2472 -0.2835 -0.8741
  127OSM   H14F13631  -0.135   1.380   7.432 -0.8115 -1.7412  0.1551
  127OSM   H14G13632  -0.051   1.517   7.507 -0.1350 -0.4922 -1.2510
  127OSM   C15F13633  -0.262   1.525   7.532 -0.2040 -0.8484 -0.3349
  127OSM   H15F13634  -0.272   1.572   7.633  0.9960  0.1911 -0.6626
  127OSM   H15G13635  -0.346   1.454   7.524  1.4768 -3.0845  0.8063
  127OSM   C16F13636  -0.279   1.642   7.432  0.5866 -0.5064  0.1597
  127OSM   H16F13637  -0.212   1.729   7.448 -1.2619  0.4826  3.4792
  127OSM   H16G13638  -0.377   1.687   7.457  1.2416  1.2286 -0.2793
  127OSM   C17F13639  -0.271   1.591   7.290 -0.2304  0.1002  0.1559
  127OSM   H17F13640  -0.329   1.496   7.289  0.8648 -0.5815  0.8032
  127OSM   H17G13641  -0.167   1.568   7.259  0.2012  1.0246  0.8780
  127OSM   C18F13642  -0.322   1.700   7.195  0.2390 -0.4546  0.0827
  127OSM   H18F13643  -0.336   1.680   7.086  1.3598 -1.7503  0.1483
  127OSM   H18G13644  -0.258   1.791   7.193 -1.0903  0.5095 -0.1275
  127OSM   H18H13645  -0.424   1.733   7.226  0.9921  3.5817 -1.1580
  128OSM      N13646   6.770   5.332   5.789 -0.1688 -0.4108  0.0832
  128OSM    C1513647   6.688   5.211   5.750 -0.7652  0.9675  0.8154
  128OSM   H15A13648   6.701   5.123   5.810 -1.7592  0.5320  0.4250
  128OSM   H15B13649   6.707   5.181   5.648  0.9563 -1.9382  1.8960
  128OSM   H15C13650   6.582   5.223   5.765 -0.7339  1.0917  0.9371
  128OSM    C1413651   6.912   5.295   5.782 -0.7011  0.3412  0.4444
  128OSM   H14A13652   6.939   5.249   5.688  1.4717  0.9834  0.7024
  128OSM   H14B13653   6.935   5.226   5.862 -2.2684 -0.6857  0.0590
  128OSM   H14C13654   6.975   5.379   5.806  0.9480  0.0159 -2.3699
  128OSM    C1313655   6.731   5.443   5.695  0.1658 -0.9050 -0.0897
  128OSM   H13A13656   6.763   5.427   5.593  0.8567 -3.0414  0.4084
  128OSM   H13B13657   6.779   5.531   5.734 -0.2825 -0.6648 -0.0810
  128OSM   H13C13658   6.625   5.457   5.689  0.0670 -1.1766  0.8058
  128OSM    C1213659   6.741   5.372   5.938 -0.0847  0.3733  0.7422
  128OSM   H12A13660   6.640   5.412   5.942  0.1550  2.2927 -4.2900
  128OSM   H12B13661   6.797   5.463   5.951 -2.2108  2.0648 -0.9688
  128OSM    C1113662   6.755   5.259   6.049  0.0816 -0.3759 -0.2079
  128OSM   H11A13663   6.699   5.168   6.020 -0.4578  0.0135 -0.4089
  128OSM   H11B13664   6.711   5.296   6.144  2.8503 -0.8974  1.3823
  128OSM      P13665   6.990   5.301   6.157  0.0903 -0.0364  0.0446
  128OSM    O1313666   7.119   5.231   6.154  0.0223  0.2647 -0.1723
  128OSM    O1413667   6.997   5.440   6.109  0.0191 -0.1472 -0.6912
  128OSM    O1113668   6.925   5.302   6.300  0.1239  0.4867  0.6348
  128OSM    O1213669   6.888   5.220   6.072 -0.1857 -0.2051  0.0823
  128OSM    C1S13670   6.892   5.176   6.361 -0.2696 -0.5181 -0.6507
  128OSM    H1S13671   6.980   5.111   6.380  0.1260  0.8903  3.2761
  128OSM    H1T13672   6.822   5.121   6.294 -0.0319 -1.0133 -0.4928
  128OSM     NF13673   6.765   5.057   6.542 -0.2208  0.5218  0.7830
  128OSM    HNF13674   6.668   5.035   6.541  0.1475 -1.2996  0.6907
  128OSM    C2S13675   6.806   5.189   6.492 -0.7408 -0.2758 -0.1659
  128OSM    H2S13676   6.874   5.239   6.564  1.7364 -2.5591 -0.7402
  128OSM    C3S13677   6.687   5.284   6.474 -0.3810 -0.4434 -0.0438
  128OSM    H3S13678   6.618   5.228   6.407  0.2057  0.6614 -1.6345
  128OSM     O313679   6.718   5.405   6.399  0.0667  0.6115 -0.3210
  128OSM    HO313680   6.812   5.402   6.378 -0.4404 -2.5332 -2.8744
  128OSM    C4S13681   6.623   5.315   6.609 -0.3458  0.2894 -0.5633
  128OSM    H4S13682   6.543   5.243   6.629  3.5145 -4.4595 -0.3522
  128OSM    C5S13683   6.665   5.394   6.703  0.0999 -0.0629  0.7273
  128OSM    H5S13684   6.766   5.438   6.705 -0.5597  1.5000  2.0306
  128OSM    C6S13685   6.593   5.399   6.836 -0.0276 -0.2194  0.7128
  128OSM    H6S13686   6.486   5.370   6.830  0.1354 -0.8930  0.8999
  128OSM    H6T13687   6.590   5.507   6.859 -0.2720  0.2678 -1.3697
  128OSM    C7S13688   6.648   5.317   6.953  0.1646  0.6181  0.3720
  128OSM    H7S13689   6.753   5.347   6.974 -0.2454  1.6403  1.0898
  128OSM    H7T13690   6.656   5.208   6.934 -2.9548  0.0586  1.5117
  128OSM    C8S13691   6.560   5.333   7.073  0.1926  0.9043 -0.3028
  128OSM    H8S13692   6.474   5.263   7.063  1.9120 -1.6230  1.2464
  128OSM    H8T13693   6.523   5.437   7.069 -0.3048  0.7175 -0.7329
  128OSM    C9S13694   6.635   5.315   7.204 -0.0750  0.2079  0.4892
  128OSM    H9S13695   6.724   5.380   7.214  0.5339 -0.3808 -0.9716
  128OSM    H9T13696   6.663   5.209   7.220 -0.1826  0.2203  0.7599
  128OSM   C10S13697   6.533   5.350   7.325 -0.2381 -0.5468  0.0658
  128OSM   H10S13698   6.453   5.273   7.321 -1.0194  0.1316  1.6177
  128OSM   H10T13699   6.479   5.440   7.290 -0.2515 -0.6831 -0.2636
  128OSM   C11S13700   6.598   5.346   7.473  0.1019 -1.1833  0.4169
  128OSM   H11S13701   6.672   5.428   7.485 -0.0450 -0.9001 -0.5294
  128OSM   H11T13702   6.654   5.251   7.484  1.4428 -0.6806 -1.4675
  128OSM   C12S13703   6.492   5.356   7.585  0.4785  0.0284 -0.0472
  128OSM   H12S13704   6.413   5.278   7.583  0.9687 -0.4644 -0.7560
  128OSM   H12T13705   6.445   5.454   7.560  1.7368  0.7642  0.3469
  128OSM   C13S13706   6.551   5.363   7.716 -0.9515 -0.9175  0.3742
  128OSM   H13S13707   6.644   5.423   7.706 -0.5143 -1.5380  0.6661
  128OSM   H13T13708   6.576   5.256   7.734 -0.0487 -0.9910 -1.1302
  128OSM   C14S13709   6.468   5.400   7.840 -0.3294  0.4687  0.4068
  128OSM   H14S13710   6.399   5.313   7.847 -0.3379  0.2496 -1.6913
  128OSM   H14T13711   6.407   5.491   7.823 -1.2694 -0.3179 -0.6103
  128OSM   C15S13712   6.555   5.406   7.966 -0.2684 -0.5505  0.5266
  128OSM   H15S13713   6.636   5.476   7.938 -1.3927  0.6288  0.0967
  128OSM   H15T13714   6.602   5.312   7.999  2.3361  0.7769  0.8696
  128OSM   C16S13715   6.465   5.433   8.085 -0.4371  0.1386 -1.0331
  128OSM   H16S13716   6.368   5.382   8.070 -0.7891  0.8073 -1.0587
  128OSM   H16T13717   6.439   5.541   8.092  1.3271  0.5396  0.1422
  128OSM   C17S13718   6.524   5.384   8.218  0.0893  0.8583  0.4760
  128OSM   H17S13719   6.542   5.277   8.195 -0.1037  1.0582 -0.6951
  128OSM   H17T13720   6.451   5.388   8.301  0.0866  0.3901  0.5004
  128OSM   C18S13721   6.644   5.454   8.259 -0.2965 -0.4347 -0.2927
  128OSM   H18S13722   6.610   5.559   8.276 -0.6066 -0.8774  2.1569
  128OSM   H18T13723   6.737   5.442   8.198 -0.1286 -1.1469  0.0996
  128OSM   H18U13724   6.677   5.431   8.362  1.0803 -0.1133 -0.6361
  128OSM    C1F13725   6.858   4.982   6.596 -0.0225  1.2369 -0.3170
  128OSM     OF13726   6.966   5.026   6.632  0.0078 -0.3327 -0.4923
  128OSM    C2F13727   6.809   4.844   6.644 -0.2052  0.6314  0.6772
  128OSM    H2F13728   6.821   4.768   6.563  0.9997  1.1316  0.3653
  128OSM    H2G13729   6.700   4.846   6.666 -0.3715  2.1585 -0.1339
  128OSM    C3F13730   6.885   4.801   6.775 -0.1668 -0.2225  0.0574
  128OSM    H3F13731   6.993   4.788   6.751 -0.0841  1.1481 -0.4193
  128OSM    H3G13732   6.853   4.698   6.800  1.0831 -0.4315  0.8850
  128OSM    C4F13733   6.863   4.884   6.899 -1.1152  1.2922 -0.2379
  128OSM    H4F13734   6.761   4.883   6.943 -0.6983  0.4115  0.7447
  128OSM    H4G13735   6.902   4.986   6.880  1.9462  0.0752 -1.0280
  128OSM    C5F13736   6.963   4.832   7.012  0.5808 -0.0002  0.8052
  128OSM    H5F13737   7.062   4.836   6.962  0.8680 -0.1551  1.3538
  128OSM    H5G13738   6.935   4.725   7.024  3.9282 -1.3335 -1.5707
  128OSM    C6F13739   6.950   4.915   7.142 -0.4282  0.3757 -0.2601
  128OSM    H6F13740   6.917   5.017   7.111  0.3606  0.3903 -1.1339
  128OSM    H6G13741   7.047   4.913   7.196  0.2236  0.8329 -1.3769
  128OSM    C7F13742   6.850   4.853   7.235  0.4861  0.0696  0.3351
  128OSM    H7F13743   6.878   4.750   7.265  0.4551  0.3442  1.3373
  128OSM    H7G13744   6.756   4.851   7.177  0.0753  1.4896  0.8854
  128OSM    C8F13745   6.836   4.937   7.364 -0.1980  0.0352 -0.4853
  128OSM    H8F13746   6.737   4.925   7.414  0.9419  1.8570  2.4813
  128OSM    H8G13747   6.834   5.047   7.348  1.0609  0.4531  1.8221
  128OSM    C9F13748   6.945   4.920   7.463 -0.5231 -1.0459 -0.8877
  128OSM    H9F13749   7.033   4.880   7.410 -0.9890 -0.9751 -1.7269
  128OSM   C10F13750   6.946   4.935   7.592 -0.5949  0.3904 -0.5511
  128OSM   H10F13751   7.037   4.919   7.652  0.1861  0.1204 -1.7678
  128OSM   C11F13752   6.828   4.991   7.669 -0.1612  0.4791  0.5366
  128OSM   H11F13753   6.732   4.946   7.637  0.2927 -0.5722  0.6320
  128OSM   H11G13754   6.810   5.100   7.651 -0.1051  0.5309  0.7895
  128OSM   C12F13755   6.854   4.962   7.820  0.6483  0.6266 -0.0821
  128OSM   H12F13756   6.959   4.992   7.840  1.3925 -0.9635 -1.3243
  128OSM   H12G13757   6.836   4.853   7.833  2.6006  0.4370  1.4338
  128OSM   C13F13758   6.758   5.029   7.914  0.3695 -0.7511  0.1068
  128OSM   H13F13759   6.654   4.998   7.889 -0.9975 -0.1870  4.3285
  128OSM   H13G13760   6.772   5.139   7.902 -1.0994 -0.5670 -0.1017
  128OSM   C14F13761   6.794   4.980   8.054  0.5962  0.2761  0.0054
  128OSM   H14F13762   6.902   5.002   8.065  0.3095  3.6617 -2.5384
  128OSM   H14G13763   6.786   4.870   8.040  0.8802  0.3083 -0.4288
  128OSM   C15F13764   6.702   5.039   8.165  0.3821 -0.2996  0.2780
  128OSM   H15F13765   6.597   5.009   8.145  1.1276 -1.7392 -1.8286
  128OSM   H15G13766   6.716   5.149   8.154  1.1048 -0.4138 -0.0205
  128OSM   C16F13767   6.729   4.996   8.302 -0.2389 -0.6133  0.1124
  128OSM   H16F13768   6.829   5.022   8.342 -1.2477  1.0666  1.6793
  128OSM   H16G13769   6.714   4.887   8.316  0.1849 -0.8504 -1.1439
  128OSM   C17F13770   6.638   5.063   8.412  0.7313  0.2688  0.8724
  128OSM   H17F13771   6.531   5.038   8.401  0.2155  1.9245  1.7759
  128OSM   H17G13772   6.654   5.171   8.392  1.2319  0.0385 -0.0446
  128OSM   C18F13773   6.684   5.035   8.551  0.2072 -0.0833  0.0805
  128OSM   H18F13774   6.609   5.074   8.624  0.1840  1.0431 -0.5104
  128OSM   H18G13775   6.785   5.079   8.566  0.2744  0.1306 -0.9196
  128OSM   H18H13776   6.695   4.927   8.573  1.3144  0.1277  0.6183
  129OSM      N13777   4.908   6.479   6.162 -0.2382  0.2056  1.2749
  129OSM    C1513778   4.961   6.361   6.249 -0.2081 -0.4657  0.4567
  129OSM   H15A13779   5.039   6.400   6.313  0.0148 -0.2929  0.0906
  129OSM   H15B13780   5.002   6.283   6.186  0.3372  0.5483 -0.4917
  129OSM   H15C13781   4.875   6.337   6.308 -0.5266  0.2581  0.3007
  129OSM    C1413782   4.796   6.420   6.082  0.3813 -0.3827  0.6249
  129OSM   H14A13783   4.833   6.332   6.033  0.1801  0.2314 -0.6575
  129OSM   H14B13784   4.766   6.488   6.004  0.0681 -0.5615  0.5883
  129OSM   H14C13785   4.707   6.389   6.135 -0.3255 -1.4150 -1.0803
  129OSM    C1313786   4.849   6.583   6.255 -0.3923  0.2361  0.2511
  129OSM   H13A13787   4.811   6.657   6.186 -2.0182 -0.0152  0.8349
  129OSM   H13B13788   4.930   6.615   6.318  1.4906 -2.2555 -0.7541
  129OSM   H13C13789   4.770   6.544   6.318 -1.2021  1.0460 -0.2393
  129OSM    C1213790   5.029   6.530   6.087  0.3595 -0.0197 -0.3259
  129OSM   H12A13791   5.001   6.615   6.027 -0.5157  1.8424  2.4913
  129OSM   H12B13792   5.075   6.455   6.024  0.7711 -0.5338  0.5638
  129OSM    C1113793   5.144   6.590   6.180 -0.0146 -0.0670  0.0713
  129OSM   H11A13794   5.227   6.617   6.111  1.8041  1.1313  2.5681
  129OSM   H11B13795   5.193   6.517   6.248  1.4988 -0.7210 -1.6559
  129OSM      P13796   5.089   6.857   6.196  0.2620  0.4887  0.0486
  129OSM    O1313797   5.216   6.873   6.132  0.1456  0.4001  0.8844
  129OSM    O1413798   4.968   6.875   6.113  0.4003  0.4550  0.0661
  129OSM    O1113799   5.081   6.952   6.330  0.0562 -0.8058  0.1070
  129OSM    O1213800   5.094   6.703   6.254 -0.1520  0.0418 -0.9335
  129OSM    C1S13801   5.056   6.905   6.461  0.7516  0.0303 -0.1783
  129OSM    H1S13802   5.155   6.893   6.512  0.7694  0.1067 -0.1950
  129OSM    H1T13803   5.011   6.803   6.458 -0.3023  0.5137 -2.1494
  129OSM     NF13804   4.902   6.927   6.662  0.0936 -0.0591 -0.1144
  129OSM    HNF13805   4.806   6.900   6.657 -0.9629  3.1639  0.0438
  129OSM    C2S13806   4.954   6.993   6.540  0.5927 -0.3144  0.0116
  129OSM    H2S13807   5.001   7.085   6.580 -2.6812  1.8629 -0.6956
  129OSM    C3S13808   4.837   7.042   6.449 -0.1661 -0.0393 -0.2979
  129OSM    H3S13809   4.775   6.957   6.413  0.5547 -0.7208  0.0438
  129OSM     O313810   4.877   7.107   6.327  0.1259 -0.3582 -0.0112
  129OSM    HO313811   4.959   7.062   6.306 -0.6914 -3.3331  2.4608
  129OSM    C4S13812   4.733   7.117   6.524  1.0314 -0.2392 -0.1106
  129OSM    H4S13813   4.653   7.061   6.574 -0.8360  2.2330 -0.1184
  129OSM    C5S13814   4.726   7.250   6.538 -0.5243 -0.2586 -0.5891
  129OSM    H5S13815   4.807   7.315   6.503  0.7936 -1.0425  0.8395
  129OSM    C6S13816   4.630   7.307   6.642  0.1543  0.1786 -0.3705
  129OSM    H6S13817   4.563   7.225   6.674 -0.9179  1.1354 -0.1192
  129OSM    H6T13818   4.576   7.387   6.587 -0.2767  1.6669  2.0610
  129OSM    C7S13819   4.705   7.381   6.755 -0.1425  0.7368 -0.4684
  129OSM    H7S13820   4.632   7.448   6.806 -1.0622 -0.1303 -0.5987
  129OSM    H7T13821   4.786   7.441   6.710  1.0471 -0.8213 -0.4968
  129OSM    C8S13822   4.763   7.288   6.865  0.0428 -0.2330  0.3542
  129OSM    H8S13823   4.847   7.232   6.818  0.2628  0.3880 -0.0049
  129OSM    H8T13824   4.690   7.217   6.909  0.6174 -0.9566  0.1609
  129OSM    C9S13825   4.810   7.372   6.990 -0.4779 -0.0992 -0.2513
  129OSM    H9S13826   4.713   7.416   7.024  0.4484  0.4353  1.8283
  129OSM    H9T13827   4.885   7.447   6.958 -2.3697  0.6308 -3.4369
  129OSM   C10S13828   4.858   7.281   7.103  0.5742  0.1041  0.6851
  129OSM   H10S13829   4.966   7.266   7.082  0.3279 -0.0794 -0.5413
  129OSM   H10T13830   4.792   7.192   7.107  0.6302  0.0986  1.5402
  129OSM   C11S13831   4.846   7.339   7.246 -0.0983 -0.5393 -0.6968
  129OSM   H11S13832   4.745   7.383   7.262  1.8696  3.2720  3.5828
  129OSM   H11T13833   4.919   7.421   7.236  1.0937 -1.2208  1.5605
  129OSM   C12S13834   4.889   7.250   7.364  0.4556 -0.7342  0.3314
  129OSM   H12S13835   4.999   7.268   7.366  0.2261  0.8993  0.0572
  129OSM   H12T13836   4.890   7.140   7.357  1.9577 -0.7885  0.9896
  129OSM   C13S13837   4.834   7.290   7.494 -0.3035 -0.6444  0.8174
  129OSM   H13S13838   4.724   7.278   7.504 -0.8144 -0.3932 -3.0585
  129OSM   H13T13839   4.848   7.400   7.490 -1.6231 -0.3748  2.3604
  129OSM   C14S13840   4.917   7.241   7.616  0.4527  0.6063  0.1814
  129OSM   H14S13841   5.021   7.280   7.620  1.0042 -0.3468 -2.5332
  129OSM   H14T13842   4.928   7.130   7.606 -1.8253  0.3728 -0.2528
  129OSM   C15S13843   4.853   7.258   7.754  0.0911 -1.0121  0.3796
  129OSM   H15S13844   4.750   7.220   7.736 -0.6927  1.0947  0.1681
  129OSM   H15T13845   4.852   7.364   7.789  2.0085 -1.2925  1.4493
  129OSM   C16S13846   4.925   7.188   7.874 -0.0367  0.5028 -0.1150
  129OSM   H16S13847   5.031   7.222   7.878 -0.1346  0.6839  2.2598
  129OSM   H16T13848   4.922   7.079   7.853  1.8810  0.6240 -1.2206
  129OSM   C17S13849   4.863   7.228   8.002 -0.5960 -0.1895 -0.6142
  129OSM   H17S13850   4.910   7.318   8.048  3.7411 -1.7274 -1.6180
  129OSM   H17T13851   4.872   7.143   8.072 -1.6351 -0.3408 -0.6514
  129OSM   C18S13852   4.714   7.263   7.999 -0.6671  0.1739  0.6365
  129OSM   H18S13853   4.679   7.295   8.099 -2.8267  0.4101 -0.1374
  129OSM   H18T13854   4.648   7.182   7.960  1.2090 -0.2700 -1.9626
  129OSM   H18U13855   4.688   7.357   7.946 -1.7953  0.6337  1.9470
  129OSM    C1F13856   4.974   6.918   6.774 -0.6295 -0.1557  0.2148
  129OSM     OF13857   5.088   6.964   6.779  0.9308  0.6281 -0.7186
  129OSM    C2F13858   4.907   6.855   6.892  0.2696  0.6925  0.5424
  129OSM    H2F13859   4.875   6.759   6.847  2.6292 -0.3308  0.9290
  129OSM    H2G13860   4.825   6.924   6.923  2.1872  2.9411  0.9039
  129OSM    C3F13861   4.994   6.830   7.014 -0.2373  0.1990  0.7808
  129OSM    H3F13862   5.046   6.925   7.038  1.8250 -0.7975  0.4864
  129OSM    H3G13863   5.074   6.758   6.987  0.3188  1.2802 -0.5284
  129OSM    C4F13864   4.903   6.804   7.138  0.2347 -0.1978 -0.2064
  129OSM    H4F13865   4.867   6.699   7.126 -0.5031  0.3077 -2.9966
  129OSM    H4G13866   4.820   6.876   7.127  0.8611  0.3761 -1.4927
  129OSM    C5F13867   4.977   6.830   7.268 -0.0674 -0.1119 -0.7879
  129OSM    H5F13868   4.995   6.940   7.273  0.0971 -0.1834  0.4170
  129OSM    H5G13869   5.077   6.781   7.270 -0.8158 -1.6912 -0.2032
  129OSM    C6F13870   4.906   6.784   7.395  0.2308  0.3444  0.5242
  129OSM    H6F13871   4.876   6.677   7.401 -0.8003  0.4694 -1.4667
  129OSM    H6G13872   4.809   6.837   7.408  0.8547  1.9113 -0.9129
  129OSM    C7F13873   4.997   6.793   7.520 -1.0889 -0.1616  0.6135
  129OSM    H7F13874   5.014   6.899   7.548  1.1569  0.5508 -2.8622
  129OSM    H7G13875   5.092   6.740   7.498 -1.3868  0.1626 -1.6725
  129OSM    C8F13876   4.929   6.718   7.640 -0.3742  0.2360 -0.1417
  129OSM    H8F13877   4.822   6.745   7.651 -0.0694  0.8999  1.5868
  129OSM    H8G13878   4.987   6.754   7.728 -0.2532 -0.2800 -0.0090
  129OSM    C9F13879   4.945   6.567   7.641  0.4298 -0.8511 -0.3569
  129OSM    H9F13880   4.921   6.519   7.545 -1.4943 -2.5459  0.8818
  129OSM   C10F13881   5.013   6.488   7.729  0.0906  0.7320  0.2777
  129OSM   H10F13882   5.014   6.382   7.701 -0.5126  0.3913  1.4745
  129OSM   C11F13883   5.086   6.543   7.851  0.4081  0.5442 -0.4720
  129OSM   H11F13884   5.049   6.486   7.938 -0.6065  1.7008 -0.1080
  129OSM   H11G13885   5.051   6.648   7.867 -2.8392 -0.6034  0.7154
  129OSM   C12F13886   5.239   6.535   7.836 -0.0841  0.7443  0.0030
  129OSM   H12F13887   5.276   6.610   7.763  1.2636  0.2098  0.1118
  129OSM   H12G13888   5.271   6.432   7.808 -0.5462  1.1661 -2.2683
  129OSM   C13F13889   5.307   6.550   7.974  0.1681 -0.1593  0.8303
  129OSM   H13F13890   5.271   6.480   8.052 -0.7818  0.2964  0.8226
  129OSM   H13G13891   5.286   6.654   8.007  1.6901  0.2761  0.4984
  129OSM   C14F13892   5.463   6.538   7.969  0.2665 -0.6499 -0.3014
  129OSM   H14F13893   5.514   6.579   7.879  1.0847  1.0073  0.8509
  129OSM   H14G13894   5.485   6.430   7.968  0.5610 -0.6022  0.4016
  129OSM   C15F13895   5.533   6.593   8.095 -0.1733 -0.1774  0.3312
  129OSM   H15F13896   5.535   6.704   8.099 -0.9511 -0.1208 -0.6547
  129OSM   H15G13897   5.640   6.563   8.082  0.1397  1.0752 -0.0623
  129OSM   C16F13898   5.484   6.536   8.230 -0.2235 -0.3896 -0.7183
  129OSM   H16F13899   5.474   6.427   8.208  1.0504 -0.6201 -0.2300
  129OSM   H16G13900   5.386   6.578   8.261  0.5605 -0.0671  1.4783
  129OSM   C17F13901   5.587   6.568   8.332 -1.3785  0.6520 -0.1786
  129OSM   H17F13902   5.606   6.676   8.352 -0.4973  0.1925  1.7037
  129OSM   H17G13903   5.675   6.517   8.289  0.0963  2.0949  0.9903
  129OSM   C18F13904   5.540   6.527   8.474  0.3553 -0.2064 -0.0510
  129OSM   H18F13905   5.630   6.545   8.535  1.6885  1.7823 -2.4496
  129OSM   H18G13906   5.522   6.417   8.483 -2.4382  0.1483 -0.2678
  129OSM   H18H13907   5.454   6.590   8.505  0.8460  0.6254 -0.3693
  130OSM      N13908   5.525   3.994   5.877 -0.6731 -0.6807  0.7287
  130OSM    C1513909   5.446   3.962   5.751 -0.3519  0.2544 -0.5048
  130OSM   H15A13910   5.362   3.906   5.789  0.7414  0.4768  2.5075
  130OSM   H15B13911   5.510   3.911   5.681  0.9888  1.0452  0.1053
  130OSM   H15C13912   5.408   4.050   5.701 -1.8108  0.1527  0.3498
  130OSM    C1413913   5.578   3.861   5.915 -0.6287 -0.4282  0.1927
  130OSM   H14A13914   5.498   3.788   5.910 -1.5240  0.3315  2.1691
  130OSM   H14B13915   5.602   3.861   6.020 -0.9499 -1.0584  0.2754
  130OSM   H14C13916   5.668   3.828   5.865  0.4142 -1.0341  2.3481
  130OSM    C1313917   5.637   4.099   5.838  1.1092 -0.2894 -0.1710
  130OSM   H13A13918   5.698   4.074   5.752 -0.4768  0.7349 -1.6705
  130OSM   H13B13919   5.711   4.110   5.916  1.9523  2.1428 -1.1980
  130OSM   H13C13920   5.591   4.194   5.815  0.8664 -0.3619  0.0100
  130OSM    C1213921   5.437   4.048   5.980  0.7781 -0.1414  0.1421
  130OSM   H12A13922   5.344   3.995   5.993 -1.0077  2.9243  0.8151
  130OSM   H12B13923   5.417   4.145   5.936  2.6374  0.4634  0.5246
  130OSM    C1113924   5.487   4.073   6.129 -0.7657  0.2537 -0.0756
  130OSM   H11A13925   5.408   4.126   6.185  0.2996 -0.0369  1.7855
  130OSM   H11B13926   5.587   4.121   6.136 -0.8568  0.2312  1.5986
  130OSM      P13927   5.598   3.922   6.313  0.1169  0.0804 -0.1048
  130OSM    O1313928   5.559   3.793   6.384 -0.0661  0.1072  0.3254
  130OSM    O1413929   5.734   3.931   6.259 -0.0173  0.5822 -0.1179
  130OSM    O1113930   5.584   4.045   6.415  0.4881  0.5467  0.0300
  130OSM    O1213931   5.502   3.945   6.190  0.6808 -0.8390 -0.3977
  130OSM    C1S13932   5.447   4.092   6.453 -0.3012  0.1920 -0.4045
  130OSM    H1S13933   5.363   4.025   6.422 -0.6777 -0.3647  1.6879
  130OSM    H1T13934   5.413   4.185   6.403 -1.5631 -0.1630 -0.2549
  130OSM     NF13935   5.298   4.136   6.649  0.2487 -0.8359 -0.6302
  130OSM    HNF13936   5.270   4.228   6.675 -0.2134 -1.5027  1.3841
  130OSM    C2S13937   5.436   4.123   6.605  0.2769  0.8084 -0.2484
  130OSM    H2S13938   5.461   4.028   6.657 -1.9631  0.0214 -0.4933
  130OSM    C3S13939   5.538   4.225   6.660  0.1514 -0.3296  0.1408
  130OSM    H3S13940   5.521   4.319   6.603 -1.7372 -0.6916  0.0294
  130OSM     O313941   5.669   4.186   6.626 -0.5203  0.2759 -0.1145
  130OSM    HO313942   5.660   4.107   6.572  1.3237 -0.0012 -0.0814
  130OSM    C4S13943   5.519   4.271   6.799  0.0277 -0.1336 -0.3469
  130OSM    H4S13944   5.426   4.328   6.813 -1.2776 -1.7012 -2.1646
  130OSM    C5S13945   5.608   4.262   6.907  0.3548  0.0184  0.7184
  130OSM    H5S13946   5.709   4.222   6.893 -0.2037 -1.1877 -0.0334
  130OSM    C6S13947   5.591   4.341   7.030 -1.0349  0.5736 -0.3922
  130OSM    H6S13948   5.499   4.402   7.031  0.0963  2.4046  2.0312
  130OSM    H6T13949   5.679   4.404   7.055  0.4312 -1.7367  0.6001
  130OSM    C7S13950   5.583   4.264   7.165 -0.3611 -0.2401  0.1102
  130OSM    H7S13951   5.666   4.190   7.171  1.1138  1.4176  0.9757
  130OSM    H7T13952   5.496   4.197   7.148  2.4288 -3.8538 -1.3895
  130OSM    C8S13953   5.567   4.359   7.287  0.0588 -0.7043  0.4153
  130OSM    H8S13954   5.461   4.387   7.273 -0.6223 -3.0976  0.3901
  130OSM    H8T13955   5.629   4.450   7.271  0.6591 -1.2574 -0.5247
  130OSM    C9S13956   5.604   4.299   7.423 -0.1989  0.7644 -0.5666
  130OSM    H9S13957   5.587   4.374   7.503 -0.5261 -1.8621  1.9976
  130OSM    H9T13958   5.708   4.260   7.423 -0.7296 -0.7311 -0.2941
  130OSM   C10S13959   5.509   4.181   7.457 -0.6404  1.1609 -0.5018
  130OSM   H10S13960   5.503   4.120   7.365 -0.9404  1.4168 -0.6520
  130OSM   H10T13961   5.411   4.228   7.478 -0.8831  0.6567 -0.4944
  130OSM   C11S13962   5.562   4.108   7.578  0.1118 -0.1048 -0.0874
  130OSM   H11S13963   5.673   4.116   7.574 -0.0573  3.2167 -1.0372
  130OSM   H11T13964   5.534   4.001   7.571  1.1660 -0.3200 -1.5108
  130OSM   C12S13965   5.522   4.165   7.712 -0.8054 -0.4316 -0.0613
  130OSM   H12S13966   5.417   4.185   7.742 -0.6620 -2.2632  1.8627
  130OSM   H12T13967   5.564   4.267   7.696 -0.2666 -0.8320 -1.2605
  130OSM   C13S13968   5.597   4.109   7.832 -0.2824  0.5828  0.1050
  130OSM   H13S13969   5.611   4.186   7.912 -1.9456 -0.0145  1.0369
  130OSM   H13T13970   5.701   4.079   7.808 -0.0769  2.3930 -1.4829
  130OSM   C14S13971   5.514   3.993   7.886 -0.1921  0.4318 -0.4202
  130OSM   H14S13972   5.506   3.907   7.817 -2.0101 -2.5644  3.1753
  130OSM   H14T13973   5.414   4.040   7.895 -0.4762 -0.0382 -1.0409
  130OSM   C15S13974   5.558   3.917   8.017 -0.3335 -0.4874  0.5961
  130OSM   H15S13975   5.570   3.992   8.098  2.0931 -2.2598  2.0189
  130OSM   H15T13976   5.660   3.881   7.991  0.8886  2.3183  1.0474
  130OSM   C16S13977   5.475   3.804   8.056 -0.2743  0.8426 -1.0406
  130OSM   H16S13978   5.487   3.719   7.986 -2.3857  0.5466 -1.0905
  130OSM   H16T13979   5.367   3.830   8.055 -0.1181  1.5748  0.0109
  130OSM   C17S13980   5.515   3.754   8.199  0.0535  0.1384  0.1029
  130OSM   H17S13981   5.625   3.754   8.208 -0.1437 -0.4013  3.7779
  130OSM   H17T13982   5.487   3.647   8.208  2.7656 -0.6714 -0.1023
  130OSM   C18S13983   5.456   3.837   8.305  0.0249  0.2148 -0.2532
  130OSM   H18S13984   5.473   3.946   8.293  0.9385 -0.2231 -4.0297
  130OSM   H18T13985   5.502   3.803   8.401 -2.4474 -1.6431  0.3625
  130OSM   H18U13986   5.346   3.826   8.304  0.1472 -1.2245  0.2758
  130OSM    C1F13987   5.212   4.037   6.641  0.3729 -0.0901  0.2755
  130OSM     OF13988   5.253   3.926   6.615  0.1585 -0.1355 -0.2227
  130OSM    C2F13989   5.070   4.064   6.689 -0.4178 -0.1963  0.5069
  130OSM    H2F13990   5.043   3.981   6.759  0.7409 -0.6406  0.4587
  130OSM    H2G13991   5.010   4.051   6.597 -1.5708 -2.4545  1.4897
  130OSM    C3F13992   5.052   4.188   6.787 -0.1425 -0.0431 -0.2715
  130OSM    H3F13993   4.943   4.192   6.810 -0.6644  2.8759 -2.6645
  130OSM    H3G13994   5.082   4.280   6.734  0.6538  0.5556  1.1632
  130OSM    C4F13995   5.132   4.188   6.920  0.2656  0.4552 -0.2371
  130OSM    H4F13996   5.238   4.196   6.890  0.5310  0.7913  0.7647
  130OSM    H4G13997   5.119   4.089   6.968 -1.2534  1.7370  2.2238
  130OSM    C5F13998   5.103   4.296   7.019  0.3387  0.0059  0.1609
  130OSM    H5F13999   4.997   4.300   7.052 -0.1047 -0.7046 -1.1047
  130OSM    H5G14000   5.116   4.384   6.952 -1.2089 -0.9598 -1.4786
  130OSM    C6F14001   5.187   4.322   7.140 -0.2607  1.0656 -0.0310
  130OSM    H6F14002   5.180   4.425   7.181 -0.2183  3.0382 -4.4478
  130OSM    H6G14003   5.297   4.319   7.122 -0.3695 -1.7246 -0.8046
  130OSM    C7F14004   5.159   4.217   7.251  0.4068 -0.3934 -0.0326
  130OSM    H7F14005   5.258   4.197   7.296  0.3474 -0.2796  0.1530
  130OSM    H7G14006   5.128   4.123   7.201  1.2437  0.5089 -2.3740
  130OSM    C8F14007   5.055   4.265   7.356 -0.2904  0.1264  0.2736
  130OSM    H8F14008   4.960   4.271   7.299 -0.9008 -0.0277  1.2624
  130OSM    H8G14009   5.082   4.368   7.386  1.3646 -0.4309  0.8180
  130OSM    C9F14010   5.035   4.161   7.459 -0.1261  0.1140  0.0757
  130OSM    H9F14011   5.061   4.062   7.419  0.2140  0.6532 -1.0596
  130OSM   C10F14012   5.009   4.179   7.586 -0.8617 -0.0586  0.1859
  130OSM   H10F14013   4.994   4.092   7.651 -0.8129 -0.7894 -0.7672
  130OSM   C11F14014   4.980   4.311   7.654 -0.6055  0.4060 -0.2659
  130OSM   H11F14015   4.901   4.305   7.732  0.1315 -0.4144  0.4492
  130OSM   H11G14016   4.933   4.372   7.574  0.6592  0.1650 -1.2264
  130OSM   C12F14017   5.113   4.382   7.703 -0.0713 -0.9409 -0.3268
  130OSM   H12F14018   5.084   4.487   7.722  0.6606 -0.7088 -0.4341
  130OSM   H12G14019   5.184   4.383   7.617  1.1388  1.4163  0.5944
  130OSM   C13F14020   5.190   4.319   7.817  0.6456 -0.2889  0.3920
  130OSM   H13F14021   5.281   4.379   7.839  0.5366  0.2141 -0.4691
  130OSM   H13G14022   5.217   4.217   7.784  2.2786 -0.1952  1.3307
  130OSM   C14F14023   5.105   4.302   7.938  0.3665 -0.2182 -0.2772
  130OSM   H14F14024   5.015   4.243   7.908 -0.8521  0.5087  1.7969
  130OSM   H14G14025   5.073   4.398   7.985  0.0928  0.2967 -1.4687
  130OSM   C15F14026   5.164   4.201   8.033  0.1079  0.1961 -0.6452
  130OSM   H15F14027   5.192   4.113   7.971 -0.2333  0.7857 -1.6503
  130OSM   H15G14028   5.086   4.165   8.103 -0.7582  1.6613 -0.8305
  130OSM   C16F14029   5.283   4.257   8.113 -0.2704  0.0637  0.1556
  130OSM   H16F14030   5.261   4.365   8.124 -0.7487 -0.0279  0.1309
  130OSM   H16G14031   5.383   4.254   8.065 -1.1161  0.0119 -1.7048
  130OSM   C17F14032   5.304   4.190   8.252  0.1300  0.2510  0.8328
  130OSM   H17F14033   5.408   4.219   8.280  0.8839 -0.9984 -0.5060
  130OSM   H17G14034   5.302   4.083   8.223 -0.5671  0.3172  0.6235
  130OSM   C18F14035   5.198   4.218   8.365 -0.6367 -0.4381  0.3029
  130OSM   H18F14036   5.094   4.200   8.328 -0.9025  0.3591  0.6552
  130OSM   H18G14037   5.202   4.314   8.421  4.0822 -1.6729  2.6101
  130OSM   H18H14038   5.226   4.152   8.450  2.4474 -0.8560 -0.9132
  131OSM      N14039   5.883   2.750   6.328  0.3485  0.7634  0.6222
  131OSM    C1514040   5.852   2.878   6.252 -0.3135 -0.0437 -1.3909
  131OSM   H15A14041   5.752   2.876   6.211 -1.3808 -0.0526  1.0532
  131OSM   H15B14042   5.917   2.901   6.168  0.5762 -1.2767 -1.0609
  131OSM   H15C14043   5.853   2.963   6.318 -0.1673  0.3471 -1.8855
  131OSM    C1414044   6.009   2.767   6.409 -0.2307 -0.0669  0.1133
  131OSM   H14A14045   6.095   2.775   6.345 -0.9404  0.1371 -0.8303
  131OSM   H14B14046   6.028   2.684   6.476 -1.1481 -0.6600 -0.3449
  131OSM   H14C14047   6.006   2.863   6.460  0.5293 -0.0536  0.1381
  131OSM    C1314048   5.763   2.727   6.418 -0.0220 -0.0676 -0.1011
  131OSM   H13A14049   5.665   2.717   6.373 -0.8957 -0.1528  1.7484
  131OSM   H13B14050   5.752   2.806   6.490  0.7053  0.7482 -0.8408
  131OSM   H13C14051   5.777   2.639   6.479  0.4457 -0.2330 -0.4296
  131OSM    C1214052   5.886   2.629   6.232 -0.1445 -0.3619 -0.1602
  131OSM   H12A14053   5.951   2.649   6.147  2.7842 -0.2652  1.9506
  131OSM   H12B14054   5.789   2.622   6.186 -0.0388  3.0432 -1.2468
  131OSM    C1114055   5.951   2.495   6.282 -0.4413 -0.0742  0.0199
  131OSM   H11A14056   5.889   2.452   6.363 -0.5703 -0.2606 -0.1773
  131OSM   H11B14057   6.050   2.514   6.329 -1.2339 -0.3012  1.8514
  131OSM      P14058   5.864   2.291   6.146 -0.2863 -0.4679  0.0707
  131OSM    O1314059   5.727   2.341   6.121 -0.6294 -0.7596  0.0635
  131OSM    O1414060   5.917   2.201   6.040  0.1717  0.2327  0.1809
  131OSM    O1114061   5.865   2.201   6.272 -0.1979  0.0925  0.1118
  131OSM    O1214062   5.962   2.409   6.172  0.2302 -0.2749  0.3847
  131OSM    C1S14063   5.997   2.176   6.327  0.1919  0.4656  0.4524
  131OSM    H1S14064   6.058   2.269   6.333 -0.2150  0.8832 -1.4064
  131OSM    H1T14065   6.055   2.096   6.276 -0.6309  0.3120 -0.2485
  131OSM     NF14066   6.126   2.109   6.532  0.0850 -0.3684 -0.7782
  131OSM    HNF14067   6.157   2.014   6.536  0.0549 -0.3746 -0.6901
  131OSM    C2S14068   5.991   2.120   6.479 -0.7270 -0.5999  0.0990
  131OSM    H2S14069   5.938   2.198   6.538 -0.2831 -1.1122  1.2052
  131OSM    C3S14070   5.924   1.987   6.484 -0.0550  0.6950  0.1760
  131OSM    H3S14071   5.986   1.897   6.466 -1.5910 -0.9044  2.2724
  131OSM     O314072   5.809   1.982   6.410  0.6297  0.2537  0.5514
  131OSM    HO314073   5.807   2.065   6.363 -2.5944 -0.9025 -1.6568
  131OSM    C4S14074   5.881   1.966   6.627 -0.1416  0.0784  0.0088
  131OSM    H4S14075   5.784   2.016   6.642 -1.9002 -2.0669 -3.1310
  131OSM    C5S14076   5.950   1.907   6.727 -0.0389 -0.5870  0.2795
  131OSM    H5S14077   6.046   1.856   6.710  0.0042 -1.8203  3.5210
  131OSM    C6S14078   5.915   1.906   6.873  0.2502  0.2897  0.0023
  131OSM    H6S14079   5.994   1.948   6.939 -2.2313 -0.6353  3.8563
  131OSM    H6T14080   5.901   1.799   6.900 -1.6394  0.5866  0.3450
  131OSM    C7S14081   5.779   1.969   6.903  0.3998 -1.1128 -0.6232
  131OSM    H7S14082   5.687   1.928   6.858  0.6151 -2.1443 -0.1533
  131OSM    H7T14083   5.776   2.074   6.867  0.1636 -0.8159  0.2412
  131OSM    C8S14084   5.765   1.970   7.059 -0.1312  1.0044 -0.2811
  131OSM    H8S14085   5.847   2.020   7.115 -1.1739  1.0440  1.2836
  131OSM    H8T14086   5.760   1.866   7.098  0.1822  0.6240 -1.2494
  131OSM    C9S14087   5.642   2.042   7.120 -0.4517 -0.1012 -0.7894
  131OSM    H9S14088   5.558   1.990   7.068 -0.0229  0.3619 -1.9960
  131OSM    H9T14089   5.647   2.153   7.109 -2.0880  0.2668  1.3966
  131OSM   C10S14090   5.637   2.030   7.268  0.0667 -0.2269  0.0896
  131OSM   H10S14091   5.709   2.103   7.311 -0.2765 -0.6493  1.4377
  131OSM   H10T14092   5.664   1.928   7.302 -0.9407 -0.3347  0.6135
  131OSM   C11S14093   5.495   2.065   7.322 -0.8882  0.7578  0.4976
  131OSM   H11S14094   5.418   2.012   7.262 -0.3845 -0.5629  0.9748
  131OSM   H11T14095   5.487   2.176   7.314  1.8419  1.0747  1.2495
  131OSM   C12S14096   5.490   2.029   7.465 -0.2158  0.2320  0.0536
  131OSM   H12S14097   5.558   2.098   7.518  0.4180  0.3982 -0.9503
  131OSM   H12T14098   5.512   1.920   7.468 -1.7954 -0.1602 -1.1859
  131OSM   C13S14099   5.354   2.029   7.534  0.5926 -0.0178 -0.0794
  131OSM   H13S14100   5.278   1.976   7.473 -1.5740 -1.5585  3.6050
  131OSM   H13T14101   5.319   2.134   7.545  0.6667  0.0163 -0.1684
  131OSM   C14S14102   5.367   1.947   7.663 -0.0932 -0.3108  0.1951
  131OSM   H14S14103   5.444   1.998   7.726 -0.3564  0.0383  0.2381
  131OSM   H14T14104   5.403   1.846   7.636 -0.5699 -0.1994 -0.8880
  131OSM   C15S14105   5.232   1.931   7.726 -0.0636  0.0946 -0.0049
  131OSM   H15S14106   5.166   1.904   7.640 -1.0218 -3.1556  1.5874
  131OSM   H15T14107   5.195   2.027   7.769 -0.0100 -0.2760  0.8863
  131OSM   C16S14108   5.227   1.813   7.829  0.0456 -0.8060  0.2626
  131OSM   H16S14109   5.255   1.726   7.765 -0.4206 -1.2952  0.7135
  131OSM   H16T14110   5.120   1.799   7.854 -0.4133  0.8031 -0.6575
  131OSM   C17S14111   5.323   1.832   7.951  0.0876  0.0124  0.0074
  131OSM   H17S14112   5.299   1.936   7.982  0.0074  0.3885 -1.2497
  131OSM   H17T14113   5.429   1.828   7.919  0.7765 -1.7401  2.2462
  131OSM   C18S14114   5.299   1.739   8.062  0.4256 -0.7688  0.0779
  131OSM   H18S14115   5.193   1.731   8.095  0.1311 -1.3128 -0.9857
  131OSM   H18T14116   5.367   1.758   8.149  0.1180 -1.0258  0.3775
  131OSM   H18U14117   5.326   1.638   8.026  1.1793 -1.8454  3.2784
  131OSM    C1F14118   6.203   2.217   6.561 -0.2876  0.6862 -0.0747
  131OSM     OF14119   6.156   2.327   6.572  0.0252 -0.1996  0.0547
  131OSM    C2F14120   6.345   2.175   6.592 -1.5943 -0.1443  1.0869
  131OSM    H2F14121   6.402   2.222   6.509 -2.1621  0.6397  1.1261
  131OSM    H2G14122   6.368   2.067   6.587  0.3761  0.1495  2.7380
  131OSM    C3F14123   6.397   2.226   6.726 -0.3419  0.2424  0.0146
  131OSM    H3F14124   6.366   2.331   6.745 -0.9113 -0.1717  1.5266
  131OSM    H3G14125   6.508   2.220   6.729 -0.3406 -2.5733 -1.9564
  131OSM    C4F14126   6.332   2.139   6.837 -0.2748 -0.2681  0.8714
  131OSM    H4F14127   6.372   2.035   6.836 -1.1250 -0.5910  0.5040
  131OSM    H4G14128   6.222   2.131   6.831 -0.6929  1.2147  4.1987
  131OSM    C5F14129   6.351   2.192   6.978 -0.0130  0.6178  0.2170
  131OSM    H5F14130   6.291   2.285   6.982 -0.5056  0.2909  0.5397
  131OSM    H5G14131   6.461   2.206   6.988  0.1485 -0.0597 -0.5463
  131OSM    C6F14132   6.301   2.095   7.083 -0.2675  0.2301  0.2886
  131OSM    H6F14133   6.349   1.996   7.064  3.0090  1.7553 -0.1696
  131OSM    H6G14134   6.191   2.096   7.091 -0.1335  0.3062  2.5155
  131OSM    C7F14135   6.382   2.131   7.215  0.1417 -0.1710  0.2761
  131OSM    H7F14136   6.354   2.237   7.230 -2.5152 -0.7864  0.1654
  131OSM    H7G14137   6.492   2.121   7.203  0.0197 -0.2352 -0.8647
  131OSM    C8F14138   6.341   2.054   7.347 -0.1609  0.2513 -0.1347
  131OSM    H8F14139   6.341   1.943   7.338 -0.0784 -0.0875  3.0135
  131OSM    H8G14140   6.237   2.088   7.366  0.5264  1.5590  1.6394
  131OSM    C9F14141   6.420   2.089   7.471 -0.3737  0.1648  0.0612
  131OSM    H9F14142   6.497   2.166   7.454  0.0826  0.1060  1.6541
  131OSM   C10F14143   6.401   2.049   7.597 -0.8829  0.4224 -0.0727
  131OSM   H10F14144   6.476   2.076   7.672 -0.1742  0.2727 -0.7188
  131OSM   C11F14145   6.295   1.959   7.660  0.4377  0.8910 -1.0472
  131OSM   H11F14146   6.227   1.915   7.583  1.7342 -1.1591 -1.1026
  131OSM   H11G14147   6.237   2.026   7.727  0.4348  0.3907 -0.5433
  131OSM   C12F14148   6.361   1.843   7.753 -0.7789  0.2409  0.9435
  131OSM   H12F14149   6.416   1.883   7.841  0.0035 -0.3399  0.7222
  131OSM   H12G14150   6.434   1.791   7.689 -0.2840  1.4369  0.5110
  131OSM   C13F14151   6.256   1.738   7.795 -0.2749  0.5291 -0.4242
  131OSM   H13F14152   6.208   1.684   7.711  1.2044  0.4751 -1.2667
  131OSM   H13G14153   6.183   1.801   7.851 -2.1090 -1.5519 -0.3591
  131OSM   C14F14154   6.304   1.634   7.896 -0.4045  0.4962  0.4169
  131OSM   H14F14155   6.402   1.597   7.859 -1.1826 -1.0292 -0.2245
  131OSM   H14G14156   6.233   1.549   7.900  1.0288 -0.7234  0.7462
  131OSM   C15F14157   6.331   1.689   8.038 -0.5927  0.1484  1.0108
  131OSM   H15F14158   6.238   1.689   8.098 -0.8878 -0.0917  0.5608
  131OSM   H15G14159   6.377   1.790   8.032  0.3680 -0.3128  0.1502
  131OSM   C16F14160   6.437   1.594   8.098 -0.0712 -0.0152 -0.3209
  131OSM   H16F14161   6.524   1.585   8.029 -1.0472 -2.7820 -1.3501
  131OSM   H16G14162   6.393   1.491   8.095  0.5254 -0.3024  0.5185
  131OSM   C17F14163   6.479   1.645   8.234  0.2595 -0.4647 -0.1007
  131OSM   H17F14164   6.518   1.566   8.302 -2.3542 -2.2319 -0.4712
  131OSM   H17G14165   6.385   1.683   8.280  0.0316  1.8503 -2.2935
  131OSM   C18F14166   6.571   1.762   8.221 -0.5454 -0.2259 -0.0961
  131OSM   H18F14167   6.671   1.725   8.188 -1.3254 -0.7189 -2.0477
  131OSM   H18G14168   6.577   1.811   8.320  0.4107  0.6967 -0.5837
  131OSM   H18H14169   6.540   1.840   8.148 -2.6997  0.8936  1.9105
  132OSM      N14170   1.014   5.891   6.070 -0.0380 -0.1691 -0.4161
  132OSM    C1514171   1.074   5.977   6.173 -0.0362 -0.4978  0.1729
  132OSM   H15A14172   1.020   5.979   6.266 -2.5666 -2.2955 -1.1492
  132OSM   H15B14173   1.094   6.081   6.150  1.5768 -0.8110  0.0251
  132OSM   H15C14174   1.173   5.937   6.189  0.6553 -0.1749 -2.7240
  132OSM    C1414175   0.875   5.931   6.041 -0.3100 -0.0287  0.2563
  132OSM   H14A14176   0.811   5.927   6.128 -0.6650 -0.1169 -0.0090
  132OSM   H14B14177   0.824   5.875   5.964  1.2057 -1.4480  0.2237
  132OSM   H14C14178   0.869   6.034   6.010  0.3586  1.2921  3.9637
  132OSM    C1314179   1.083   5.917   5.941  0.2219  0.4728  0.1653
  132OSM   H13A14180   1.040   6.007   5.899 -1.7153 -1.1727 -1.5829
  132OSM   H13B14181   1.069   5.850   5.858  2.4108  0.5285 -0.3049
  132OSM   H13C14182   1.190   5.933   5.954  0.6747 -0.8569 -1.6130
  132OSM    C1214183   1.015   5.751   6.117 -0.5417  0.3508  1.0660
  132OSM   H12A14184   0.921   5.703   6.094 -0.4395  1.3691 -1.9018
  132OSM   H12B14185   1.021   5.758   6.224  1.1973 -0.8131  1.0897
  132OSM    C1114186   1.125   5.652   6.071  0.6125  0.2843 -0.1525
  132OSM   H11A14187   1.127   5.659   5.960 -2.1914  1.0749 -0.2199
  132OSM   H11B14188   1.092   5.550   6.098 -1.4805  0.9667  0.0056
  132OSM      P14189   1.285   5.649   6.284 -0.1539 -0.2691  0.2230
  132OSM    O1314190   1.299   5.503   6.306  0.1565  0.1461  0.0612
  132OSM    O1414191   1.403   5.727   6.323 -0.0934  0.3692  0.2340
  132OSM    O1114192   1.149   5.711   6.352  0.1993  0.2295 -0.3365
  132OSM    O1214193   1.253   5.681   6.128  0.1505  0.6038 -0.4262
  132OSM    C1S14194   1.061   5.628   6.427  0.4850 -0.1032 -0.2269
  132OSM    H1S14195   1.092   5.522   6.412 -2.0743 -1.4305  2.7895
  132OSM    H1T14196   0.957   5.638   6.392  0.1201 -0.0849  0.8207
  132OSM     NF14197   1.003   5.549   6.657 -0.6611  0.2908 -0.5748
  132OSM    HNF14198   0.909   5.565   6.684 -0.6138  0.2008 -0.3567
  132OSM    C2S14199   1.070   5.655   6.580 -0.5303 -1.1609  0.3344
  132OSM    H2S14200   1.177   5.653   6.611 -0.6385 -2.5546  0.6824
  132OSM    C3S14201   1.023   5.799   6.602 -0.1160 -0.0677  1.3982
  132OSM    H3S14202   0.920   5.799   6.562 -1.0112  1.8765  3.4889
  132OSM     O314203   1.100   5.895   6.530  0.2535  0.5056 -0.4622
  132OSM    HO314204   1.152   5.850   6.463  0.7636 -2.9502  1.9735
  132OSM    C4S14205   1.005   5.838   6.747 -0.5842 -0.3986 -0.1798
  132OSM    H4S14206   0.906   5.833   6.795  0.1776 -1.9603  1.3520
  132OSM    C5S14207   1.107   5.898   6.814 -0.1084  0.6073 -0.4224
  132OSM    H5S14208   1.201   5.926   6.764  0.6396  2.9944  2.0734
  132OSM    C6S14209   1.104   5.943   6.957 -0.8137 -0.0250 -0.9117
  132OSM    H6S14210   1.143   6.047   6.964 -1.5998  0.2078  0.3893
  132OSM    H6T14211   1.162   5.879   7.027 -0.9499  1.6670  0.8302
  132OSM    C7S14212   0.961   5.971   7.010 -0.5908  0.5357 -0.2792
  132OSM    H7S14213   0.906   5.874   7.005  2.2017 -1.1375 -0.2719
  132OSM    H7T14214   0.915   6.043   6.939  0.1113 -1.4331 -2.8839
  132OSM    C8S14215   0.961   6.011   7.159 -0.8258 -0.8630 -0.2216
  132OSM    H8S14216   0.862   6.050   7.189 -0.8479 -1.0786 -0.0129
  132OSM    H8T14217   1.029   6.098   7.174 -0.2474 -1.3489 -0.0203
  132OSM    C9S14218   0.990   5.899   7.256  0.0459  0.9296 -0.0033
  132OSM    H9S14219   1.086   5.849   7.226  0.6256  0.8952  1.7832
  132OSM    H9T14220   0.914   5.821   7.233 -0.5174  2.2550 -3.1099
  132OSM   C10S14221   1.004   5.928   7.412  0.5430 -0.0825  0.2435
  132OSM   H10S14222   0.932   6.011   7.426  0.0599 -0.7209  1.8079
  132OSM   H10T14223   1.105   5.966   7.436  0.2430  0.3273  0.8931
  132OSM   C11S14224   0.972   5.808   7.499 -0.1081  1.0363 -0.7155
  132OSM   H11S14225   1.030   5.718   7.469 -1.7710  0.0907 -1.2184
  132OSM   H11T14226   0.868   5.772   7.484  0.4422 -0.6528 -0.6800
  132OSM   C12S14227   1.004   5.843   7.642 -0.9432 -0.4783 -0.2754
  132OSM   H12S14228   0.920   5.908   7.675 -2.0892 -2.8139  1.7140
  132OSM   H12T14229   1.097   5.903   7.647 -1.1933 -0.1200  0.2786
  132OSM   C13S14230   1.016   5.726   7.737 -0.1926  0.0541  0.7059
  132OSM   H13S14231   1.095   5.658   7.698 -0.6618 -0.2003  0.1852
  132OSM   H13T14232   0.920   5.671   7.742  0.7313 -1.7014 -0.0779
  132OSM   C14S14233   1.059   5.759   7.879 -0.2547  0.0489 -0.1208
  132OSM   H14S14234   1.047   5.668   7.943  0.1116  0.8520  1.1359
  132OSM   H14T14235   0.979   5.828   7.913 -1.6799 -1.2339 -0.7629
  132OSM   C15S14236   1.201   5.820   7.883 -1.1407 -0.0346  0.1689
  132OSM   H15S14237   1.190   5.928   7.860  0.6056  0.1037 -0.1341
  132OSM   H15T14238   1.261   5.776   7.800  0.6083  2.5700 -0.0714
  132OSM   C16S14239   1.275   5.801   8.016 -0.4026 -0.7122 -0.2037
  132OSM   H16S14240   1.383   5.827   8.009 -0.2390 -1.7214 -2.7534
  132OSM   H16T14241   1.270   5.692   8.038  1.6849 -0.5479  1.3373
  132OSM   C17S14242   1.208   5.873   8.137  0.2203  0.1844  0.3271
  132OSM   H17S14243   1.101   5.861   8.110  0.6482 -0.5621 -1.1670
  132OSM   H17T14244   1.246   5.976   8.121  0.8972 -0.0234  0.5806
  132OSM   C18S14245   1.235   5.812   8.271  0.2432 -0.1691  0.5989
  132OSM   H18S14246   1.342   5.787   8.286 -0.0830 -1.4656  0.9382
  132OSM   H18T14247   1.167   5.728   8.299  0.0636 -0.3199 -0.2475
  132OSM   H18U14248   1.219   5.889   8.350  1.1143  1.1994 -0.5144
  132OSM    C1F14249   1.045   5.420   6.647  0.0211 -0.7643  0.7538
  132OSM     OF14250   1.159   5.389   6.616  0.6329 -0.2612 -0.4493
  132OSM    C2F14251   0.941   5.319   6.675  0.4538  0.7648 -0.1181
  132OSM    H2F14252   0.920   5.262   6.582  0.9929 -1.5626  1.1115
  132OSM    H2G14253   0.848   5.375   6.701 -1.2456 -1.1950 -1.6452
  132OSM    C3F14254   0.980   5.230   6.794  0.3379  0.0819 -1.3479
  132OSM    H3F14255   1.083   5.190   6.785  0.2908 -0.8398  1.2765
  132OSM    H3G14256   0.920   5.137   6.803  1.0239 -0.1468  2.4096
  132OSM    C4F14257   0.975   5.302   6.925 -0.5645  0.5530 -0.1783
  132OSM    H4F14258   0.868   5.315   6.951 -0.7028 -2.4516  1.2427
  132OSM    H4G14259   1.033   5.396   6.914 -0.8834  0.6684 -0.9256
  132OSM    C5F14260   1.039   5.215   7.034 -0.1617 -0.1880 -0.7933
  132OSM    H5F14261   1.149   5.208   7.016 -0.1110 -2.2937  0.0705
  132OSM    H5G14262   0.992   5.115   7.024 -1.1197 -0.0039  1.3746
  132OSM    C6F14263   1.020   5.275   7.172 -0.1313 -0.1717  0.4563
  132OSM    H6F14264   0.915   5.278   7.207 -0.2385 -0.5446  0.1665
  132OSM    H6G14265   1.057   5.380   7.176 -0.8986  0.1715 -0.7947
  132OSM    C7F14266   1.097   5.193   7.279  0.2678 -0.0172  0.0514
  132OSM    H7F14267   1.204   5.197   7.252  0.1694  2.2718 -0.1822
  132OSM    H7G14268   1.081   5.083   7.290  2.5706 -0.5026 -0.9431
  132OSM    C8F14269   1.073   5.247   7.421 -0.1285  0.6493 -0.4923
  132OSM    H8F14270   1.095   5.356   7.423 -0.9451  0.8143  1.5670
  132OSM    H8G14271   1.145   5.192   7.486 -1.5394 -1.1190 -0.3580
  132OSM    C9F14272   0.929   5.231   7.471  0.1517  0.0896  0.8245
  132OSM    H9F14273   0.863   5.205   7.387  0.0281  1.3052  0.5231
  132OSM   C10F14274   0.868   5.268   7.587  0.5094  0.3352 -0.0284
  132OSM   H10F14275   0.764   5.235   7.597  0.7763 -0.8798 -1.0295
  132OSM   C11F14276   0.926   5.326   7.712  0.0899 -1.0027 -0.5217
  132OSM   H11F14277   0.855   5.371   7.785  0.9228  1.0436 -0.8988
  132OSM   H11G14278   0.999   5.407   7.691 -2.9537  1.8122 -1.0818
  132OSM   C12F14279   1.010   5.230   7.797 -0.1895  0.5937  0.1369
  132OSM   H12F14280   1.095   5.196   7.735 -0.4067  1.3833 -0.6194
  132OSM   H12G14281   0.956   5.137   7.826 -0.2727  0.4501 -0.4776
  132OSM   C13F14282   1.047   5.303   7.927 -0.2104 -0.7005 -0.0555
  132OSM   H13F14283   0.960   5.346   7.980  1.6607  2.1345  0.9551
  132OSM   H13G14284   1.101   5.396   7.899  0.2191 -0.9308 -0.0118
  132OSM   C14F14285   1.136   5.219   8.020  0.6269  0.6178 -0.2004
  132OSM   H14F14286   1.232   5.193   7.971 -0.8659 -0.6929 -2.6335
  132OSM   H14G14287   1.086   5.120   8.021  1.3179  0.2287 -1.7738
  132OSM   C15F14288   1.141   5.286   8.152  1.1599 -0.0820 -1.3965
  132OSM   H15F14289   1.035   5.310   8.178  1.6141 -0.5696  1.1738
  132OSM   H15G14290   1.193   5.384   8.149  0.0459  0.5431 -0.9401
  132OSM   C16F14291   1.195   5.190   8.264  0.9683 -0.8710 -0.0852
  132OSM   H16F14292   1.305   5.179   8.259  0.8188 -2.9521  0.3410
  132OSM   H16G14293   1.157   5.087   8.249  0.7402 -0.6551 -1.0488
  132OSM   C17F14294   1.150   5.243   8.397  0.1443 -0.3928  0.6707
  132OSM   H17F14295   1.051   5.293   8.404 -0.5013 -1.7267  1.5414
  132OSM   H17G14296   1.225   5.319   8.426 -0.7362  0.3164  1.1675
  132OSM   C18F14297   1.170   5.129   8.501 -0.2776  0.8842  0.3482
  132OSM   H18F14298   1.273   5.087   8.508  0.8646  3.6407  2.7401
  132OSM   H18G14299   1.105   5.043   8.480  1.5267 -0.3714 -0.3457
  132OSM   H18H14300   1.162   5.169   8.605 -1.3278  1.0408  0.2147
  133SAPE     N14301   2.459   2.840  10.879 -0.2163 -0.2369 -0.1223
  133SAPE   HN114302   2.418   2.903  10.807 -1.2854 -1.0120 -0.2106
  133SAPE   HN214303   2.378   2.790  10.920 -0.5285  0.6776  0.4081
  133SAPE   HN314304   2.513   2.893  10.951  0.1360  0.8457 -1.1348
  133SAPE   C1214305   2.548   2.742  10.814  0.4203  0.6218 -0.3024
  133SAPE  H12A14306   2.485   2.664  10.764 -1.9850  2.1975  0.1078
  133SAPE  H12B14307   2.597   2.697  10.903  0.1084  2.6694  0.9576
  133SAPE   C1114308   2.657   2.811  10.728  0.0881 -0.1456 -0.7906
  133SAPE  H11A14309   2.614   2.867  10.643 -0.6130  1.4572  0.5525
  133SAPE  H11B14310   2.723   2.733  10.685  0.3034  0.0225 -0.7687
  133SAPE     P14311   2.857   2.971  10.758  0.0050 -0.5192  0.1324
  133SAPE   O1314312   2.849   3.119  10.779  0.3175 -0.0023 -0.1752
  133SAPE   O1414313   2.976   2.905  10.820 -0.2730  0.3646  0.3438
  133SAPE   O1214314   2.720   2.902  10.814 -0.1458 -0.0127  0.1579
  133SAPE   O1114315   2.866   2.951  10.601  0.3546  0.3698  0.2613
  133SAPE    C114316   2.864   3.044  10.496  0.4390 -0.1233 -0.5316
  133SAPE    HA14317   2.766   3.089  10.468  0.3709 -1.1608 -2.0369
  133SAPE    HB14318   2.929   3.131  10.520 -0.6898  0.7614 -0.5557
  133SAPE    C214319   2.925   2.987  10.353  0.8584 -0.7083 -0.0533
  133SAPE    HS14320   3.030   3.025  10.353  0.1851  1.3314 -1.2410
  133SAPE   O2114321   2.861   3.028  10.234 -0.2107 -0.6303  0.7457
  133SAPE   C2114322   2.863   3.159  10.204 -0.2355 -0.4731 -0.2330
  133SAPE   O2214323   2.897   3.248  10.280 -0.0923  1.0165 -0.2654
  133SAPE   C2214324   2.851   3.173  10.054 -0.2697  0.1250 -0.4678
  133SAPE   H2R14325   2.950   3.149  10.011 -0.6552 -0.0446 -1.2811
  133SAPE   H2S14326   2.774   3.097  10.026 -1.1715  0.3432  1.2597
  133SAPE    C314327   2.931   2.834  10.350 -0.0202 -0.4082 -0.6041
  133SAPE    HX14328   2.834   2.792  10.384  0.4742 -2.1993 -1.2740
  133SAPE    HY14329   3.004   2.802  10.427  0.6918  3.7434  0.7100
  133SAPE   O3114330   2.968   2.777  10.226 -0.5974  0.0473 -0.7234
  133SAPE   C3114331   3.093   2.803  10.183  0.8467  0.3331 -0.4405
  133SAPE   O3214332   3.179   2.851  10.251 -0.0603  0.2447 -0.4981
  133SAPE   C3214333   3.105   2.793  10.038  0.2106  0.0477 -0.4319
  133SAPE   H2X14334   3.008   2.831   9.998  0.0988  1.4238  1.0461
  133SAPE   H2Y14335   3.118   2.685  10.014  1.9233  0.3246 -0.8462
  133SAPE   C2314336   2.798   3.314  10.013  0.4739  0.5689  0.2416
  133SAPE   H3R14337   2.874   3.385  10.052  1.2756  0.2491 -0.7008
  133SAPE   H3S14338   2.699   3.330  10.060  0.6488  1.3951  0.3517
  133SAPE   C2414339   2.788   3.335   9.857  0.0226 -0.9129 -0.1511
  133SAPE   H4R14340   2.881   3.293   9.813  0.4486 -0.8305  0.6483
  133SAPE   H4S14341   2.784   3.442   9.829  3.9657 -0.3398  0.8805
  133SAPE   C2514342   2.661   3.266   9.809 -0.2650  0.4930 -0.1026
  133SAPE   H5R14343   2.654   3.168   9.858 -0.5705  0.2957 -0.5337
  133SAPE   C2614344   2.558   3.330   9.743  0.1275 -0.5281 -0.1073
  133SAPE   H6R14345   2.467   3.270   9.726 -0.0454 -0.7688  1.5021
  133SAPE   C2714346   2.558   3.472   9.687 -0.3320 -0.1261  0.4829
  133SAPE   H7R14347   2.492   3.482   9.598 -1.2380 -0.3120  1.1176
  133SAPE   H7S14348   2.661   3.496   9.654 -0.7235 -0.0210 -0.7056
  133SAPE   C2814349   2.513   3.569   9.789  0.9842 -0.2003 -0.0453
  133SAPE   H8R14350   2.576   3.562   9.878 -0.0942 -1.0858  0.6746
  133SAPE   C2914351   2.417   3.663   9.783  0.4296 -0.1059 -0.0391
  133SAPE   H9R14352   2.388   3.708   9.879  1.6870 -0.5831  0.5686
  133SAPE  C21014353   2.349   3.717   9.655 -0.4563 -0.2748 -0.3425
  133SAPE  H10R14354   2.252   3.671   9.625  1.3723 -2.4478 -3.4951
  133SAPE  H10S14355   2.420   3.700   9.572 -2.1393 -2.7447 -1.3914
  133SAPE  C21114356   2.329   3.859   9.691 -0.4496  0.1340 -0.1782
  133SAPE  H11R14357   2.240   3.879   9.752 -0.2282 -0.7266  0.4482
  133SAPE  C21214358   2.394   3.968   9.660 -0.4115 -0.3251  0.8638
  133SAPE  H12R14359   2.374   4.068   9.701  1.2240  0.6016 -0.4615
  133SAPE  C21314360   2.527   3.968   9.585 -0.1337 -0.3081 -0.0657
  133SAPE  H13R14361   2.542   3.865   9.546  0.7662 -1.0939  2.2038
  133SAPE  H13S14362   2.606   3.991   9.660  0.0260 -3.2998  0.7960
  133SAPE  C21414363   2.539   4.068   9.475  0.5053  0.2387 -1.2223
  133SAPE  H14R14364   2.574   4.169   9.501  0.3227  0.2002 -0.8145
  133SAPE  C21514365   2.493   4.050   9.351  0.3787 -0.4883 -0.3035
  133SAPE  H15R14366   2.517   4.130   9.280  0.7818  0.4475  0.8498
  133SAPE  C21614367   2.413   3.929   9.311  0.3023 -0.5296  0.0445
  133SAPE  H16R14368   2.402   3.862   9.399  1.7564  1.0831  1.5353
  133SAPE  H16S14369   2.460   3.870   9.229  0.0692 -0.8868  0.1651
  133SAPE  C21714370   2.279   3.965   9.252  0.0138  0.4901  0.2115
  133SAPE  H17R14371   2.292   4.025   9.160 -2.0500  1.0545  0.2421
  133SAPE  H17S14372   2.229   4.024   9.332  1.7504 -0.7835  2.3478
  133SAPE  C21814373   2.187   3.841   9.227  0.1391 -0.5038  0.0278
  133SAPE  H18R14374   2.242   3.762   9.172 -0.9211  1.3349 -4.0681
  133SAPE  H18S14375   2.105   3.880   9.163 -0.7830  1.9553  2.4619
  133SAPE  C21914376   2.118   3.797   9.353  0.1699  0.2909 -0.0464
  133SAPE  H19R14377   2.056   3.874   9.403  0.1396  0.1405  0.1496
  133SAPE  H19S14378   2.204   3.780   9.421  0.0396  0.2334  0.1069
  133SAPE  C22014379   2.044   3.671   9.334  0.5117  0.1982  0.0959
  133SAPE  H20R14380   1.942   3.685   9.291 -0.0369 -1.2838  0.8633
  133SAPE  H20S14381   2.046   3.613   9.428  0.0743 -2.3380 -1.3796
  133SAPE  H20T14382   2.101   3.608   9.263 -2.0372 -1.2021 -0.8224
  133SAPE   C3314383   3.220   2.870   9.977 -0.0384  0.0090  0.5816
  133SAPE   H3X14384   3.314   2.836  10.024  1.1815 -1.9257 -2.9095
  133SAPE   H3Y14385   3.201   2.979   9.979 -2.8474 -0.3121 -1.7718
  133SAPE   C3414386   3.247   2.848   9.828 -0.5262 -0.2307  0.6456
  133SAPE   H4X14387   3.272   2.742   9.807  1.6013  0.3267  0.1692
  133SAPE   H4Y14388   3.335   2.910   9.800 -1.2619 -0.4661 -2.6140
  133SAPE   C3514389   3.143   2.896   9.733  0.1800 -0.3802  0.4981
  133SAPE   H5X14390   3.054   2.830   9.728  0.5746 -0.9399  0.7498
  133SAPE   H5Y14391   3.197   2.882   9.638 -0.9317 -1.2260 -0.0254
  133SAPE   C3614392   3.106   3.046   9.741 -0.6727 -0.4240  0.0984
  133SAPE   H6X14393   3.199   3.099   9.770 -0.3727 -0.8636 -0.0558
  133SAPE   H6Y14394   3.027   3.065   9.817 -1.1807  2.4954 -1.0179
  133SAPE   C3714395   3.057   3.101   9.609  0.6328 -0.3725  0.3436
  133SAPE   H7X14396   3.129   3.057   9.537  2.5167  0.8718  1.3791
  133SAPE   H7Y14397   3.057   3.211   9.597 -0.7996 -0.6239 -3.9783
  133SAPE   C3814398   2.917   3.053   9.572 -0.5444 -0.1665 -0.6499
  133SAPE   H8X14399   2.853   3.059   9.662 -0.2683 -0.9467 -0.3933
  133SAPE   H8Y14400   2.915   2.945   9.547 -0.3913 -0.3321  0.0371
  133SAPE   C3914401   2.841   3.142   9.465  0.5568  0.2581 -0.0365
  133SAPE   H9X14402   2.831   3.240   9.517 -0.7935  0.3875 -0.5027
  133SAPE   H9Y14403   2.738   3.106   9.445 -0.3189  3.4683 -2.1374
  133SAPE  C31014404   2.912   3.156   9.327  0.1216  0.1099 -0.0037
  133SAPE  H10X14405   2.898   3.066   9.262  0.8414  1.2651 -1.8351
  133SAPE  H10Y14406   3.020   3.176   9.344  0.1513  1.8616 -1.9232
  133SAPE  C31114407   2.850   3.261   9.231 -0.6080  0.0178 -0.2572
  133SAPE  H11X14408   2.872   3.355   9.287  1.9908 -1.0322  0.6603
  133SAPE  H11Y14409   2.740   3.257   9.241 -0.5180 -1.6529  0.3921
  133SAPE  C31214410   2.885   3.237   9.084 -0.3276  0.2080  0.1350
  133SAPE  H12X14411   2.879   3.127   9.063  0.4893 -0.2523  2.1053
  133SAPE  H12Y14412   2.993   3.258   9.066  0.4773 -3.8513 -0.8025
  133SAPE  C31314413   2.787   3.301   8.986 -0.0943  0.5360 -0.1544
  133SAPE  H13X14414   2.759   3.406   9.005 -3.0327  0.0362 -1.0777
  133SAPE  H13Y14415   2.698   3.235   8.997 -0.2486  0.8047  0.2316
  133SAPE  C31414416   2.834   3.283   8.838 -0.2589 -0.0851 -0.1629
  133SAPE  H14X14417   2.838   3.174   8.815  3.2105 -0.5117  1.7187
  133SAPE  H14Y14418   2.938   3.314   8.813 -0.2128 -0.4827 -0.4784
  133SAPE  C31514419   2.735   3.325   8.733 -0.2208  0.0561 -0.3978
  133SAPE  H15X14420   2.708   3.432   8.732 -0.3341  0.0726 -3.4494
  133SAPE  H15Y14421   2.647   3.258   8.737 -0.6008  0.5975  1.5555
  133SAPE  C31614422   2.804   3.303   8.591  0.2091 -0.5648  0.2574
  133SAPE  H16X14423   2.863   3.209   8.601 -1.1745 -1.3004  2.2231
  133SAPE  H16Y14424   2.874   3.385   8.568 -0.3693  0.0859  0.7521
  133SAPE  C31714425   2.704   3.297   8.474 -0.2652 -0.3460 -0.4046
  133SAPE  H17X14426   2.769   3.306   8.384  0.3563 -0.4101  0.0345
  133SAPE  H17Y14427   2.636   3.385   8.468 -1.3216 -0.9366  1.8172
  133SAPE  C31814428   2.623   3.168   8.453 -0.2728  0.2865  0.3127
  133SAPE  H18X14429   2.522   3.178   8.500 -0.0581 -0.2159  0.8951
  133SAPE  H18Y14430   2.667   3.080   8.503  2.8284  0.7383 -1.3970
  133SAPE  H18Z14431   2.608   3.155   8.343  0.7452  1.9881 -0.0515
  134SAPE     N14432   6.194   4.127  10.786  0.7739 -0.0059  0.3280
  134SAPE   HN114433   6.157   4.047  10.841 -0.1589 -0.4486 -0.8965
  134SAPE   HN214434   6.259   4.168  10.856  0.1987 -1.7278  1.9417
  134SAPE   HN314435   6.117   4.190  10.756  0.1305 -0.1006  1.6996
  134SAPE   C1214436   6.259   4.065  10.668 -0.3088 -1.0296 -0.0729
  134SAPE  H12A14437   6.365   4.045  10.695 -0.0560  0.9115  0.5105
  134SAPE  H12B14438   6.262   4.148  10.594 -0.9816 -0.6393  0.3251
  134SAPE   C1114439   6.190   3.949  10.601 -1.4615  0.0034 -0.0622
  134SAPE  H11A14440   6.269   3.916  10.529  0.1549  2.5507  0.3950
  134SAPE  H11B14441   6.098   3.978  10.545 -1.9572 -1.9062 -0.2873
  134SAPE     P14442   6.229   3.725  10.750  0.0520  0.5180  0.3410
  134SAPE   O1314443   6.371   3.750  10.773 -0.3513 -0.2640  0.3009
  134SAPE   O1414444   6.151   3.648  10.848  0.2419 -0.0343 -0.4204
  134SAPE   O1214445   6.152   3.861  10.709  0.5608  0.2247 -0.0037
  134SAPE   O1114446   6.219   3.649  10.615 -0.1055  0.3276  0.6148
  134SAPE    C114447   6.095   3.647  10.537 -0.8657 -0.9751 -0.5193
  134SAPE    HA14448   6.010   3.690  10.594  1.4763  2.0539  0.9629
  134SAPE    HB14449   6.104   3.714  10.449  1.1391 -0.7902 -0.2248
  134SAPE    C214450   6.049   3.507  10.491  0.2519  0.9694 -0.4208
  134SAPE    HS14451   6.130   3.447  10.444 -0.4422  1.3701 -2.2144
  134SAPE   O2114452   5.936   3.522  10.401  0.0695 -0.6972 -0.0549
  134SAPE   C2114453   5.969   3.574  10.280 -0.0501 -0.3269 -0.0473
  134SAPE   O2214454   6.085   3.582  10.243 -0.3041  0.1545  0.2858
  134SAPE   C2214455   5.842   3.603  10.200 -0.2305  0.5451 -0.0620
  134SAPE   H2R14456   5.842   3.551  10.102 -0.3243  0.4376 -0.0051
  134SAPE   H2S14457   5.756   3.560  10.256  0.4600  0.8655  1.2634
  134SAPE    C314458   6.004   3.418  10.609  0.6308  0.2756 -0.4340
  134SAPE    HX14459   5.931   3.477  10.669  0.2567 -1.6265  1.0809
  134SAPE    HY14460   6.097   3.399  10.665 -0.4822 -2.4708  0.6728
  134SAPE   O3114461   5.939   3.300  10.559  0.0583 -0.4405  0.4558
  134SAPE   C3114462   6.017   3.209  10.516 -0.7924 -0.4165  0.1238
  134SAPE   O3214463   6.139   3.211  10.521  0.5237 -0.1295 -0.3752
  134SAPE   C3214464   5.941   3.106  10.425 -0.3420  0.4461  0.0438
  134SAPE   H2X14465   5.854   3.064  10.479 -1.7336  0.5018 -2.0106
  134SAPE   H2Y14466   6.014   3.026  10.402 -1.6491 -0.9324  0.6000
  134SAPE   C2314467   5.835   3.755  10.176  0.2913  0.3028  0.1584
  134SAPE   H3R14468   5.885   3.772  10.078 -2.1009  1.0920 -1.0213
  134SAPE   H3S14469   5.899   3.809  10.248  0.5673  0.5851 -0.2891
  134SAPE   C2414470   5.693   3.821  10.174  0.0759 -0.1429 -0.5322
  134SAPE   H4R14471   5.707   3.922  10.129  0.0289  0.5891  1.0236
  134SAPE   H4S14472   5.659   3.852  10.275 -0.2960 -2.5890  0.1408
  134SAPE   C2514473   5.587   3.738  10.104 -0.1937 -0.1918  0.0456
  134SAPE   H5R14474   5.529   3.675  10.173  1.3015 -0.3856  1.1788
  134SAPE   C2614475   5.572   3.733   9.966 -0.6653 -0.0739  0.3767
  134SAPE   H6R14476   5.498   3.663   9.926  2.3636 -2.0170 -2.3031
  134SAPE   C2714477   5.634   3.832   9.866  0.1305  0.4501 -0.2527
  134SAPE   H7R14478   5.684   3.917   9.916  1.9974  0.3715 -1.8692
  134SAPE   H7S14479   5.550   3.868   9.802 -0.6210 -0.8867 -0.0421
  134SAPE   C2814480   5.749   3.767   9.799  0.1194  0.1798 -0.4863
  134SAPE   H8R14481   5.837   3.763   9.866  0.1116 -0.2501 -0.4988
  134SAPE   C2914482   5.759   3.724   9.675  0.4902 -0.6148  1.0305
  134SAPE   H9R14483   5.859   3.691   9.641 -0.3361 -2.9716  0.7676
  134SAPE  C21014484   5.647   3.730   9.566 -0.6648  0.8044  0.0335
  134SAPE  H10R14485   5.552   3.700   9.614  0.1826 -1.7291  0.3211
  134SAPE  H10S14486   5.669   3.645   9.497  1.0569  1.6030 -0.4761
  134SAPE  C21114487   5.644   3.861   9.494  0.0665 -0.4297 -0.2810
  134SAPE  H11R14488   5.600   3.949   9.543  2.1478 -0.1053  1.1240
  134SAPE  C21214489   5.668   3.886   9.368 -0.6417 -0.4469  0.4632
  134SAPE  H12R14490   5.639   3.983   9.325 -0.0106 -0.4575  0.0005
  134SAPE  C21314491   5.693   3.775   9.269 -0.3194 -0.0152  0.5795
  134SAPE  H13R14492   5.641   3.801   9.174 -2.5152 -1.1276  1.4127
  134SAPE  H13S14493   5.638   3.683   9.299  1.9984 -1.5618  0.2962
  134SAPE  C21414494   5.841   3.748   9.249  0.1593 -0.6452 -0.2199
  134SAPE  H14R14495   5.901   3.835   9.221 -0.3305  0.8888  3.1154
  134SAPE  C21514496   5.896   3.625   9.257 -0.0675 -0.0036  0.3844
  134SAPE  H15R14497   6.005   3.619   9.243  0.0990  1.6231  0.8247
  134SAPE  C21614498   5.818   3.507   9.296 -0.1989  0.1612 -0.2182
  134SAPE  H16R14499   5.730   3.486   9.231  0.3331 -1.2218 -0.5157
  134SAPE  H16S14500   5.787   3.518   9.402 -0.5883 -3.1833  0.1028
  134SAPE  C21714501   5.914   3.392   9.278  0.1068  0.0326  0.2554
  134SAPE  H17R14502   5.868   3.310   9.336  2.5401 -0.0975  2.1702
  134SAPE  H17S14503   6.016   3.390   9.322 -0.1494 -4.4545  1.1718
  134SAPE  C21814504   5.941   3.344   9.136  0.1984  0.1989 -0.4805
  134SAPE  H18R14505   6.050   3.322   9.127 -0.1300 -1.5338 -0.5002
  134SAPE  H18S14506   5.919   3.428   9.067  0.1362  1.5010  1.0645
  134SAPE  C21914507   5.854   3.228   9.094 -0.1578  0.0022 -0.3399
  134SAPE  H19R14508   5.747   3.257   9.095 -0.1861 -0.0945 -0.6573
  134SAPE  H19S14509   5.873   3.144   9.164 -0.4021 -0.4522 -0.8212
  134SAPE  C22014510   5.886   3.176   8.958  0.1523  0.0594 -0.1788
  134SAPE  H20R14511   5.868   3.253   8.881  1.1130 -0.2063 -0.6788
  134SAPE  H20S14512   5.820   3.092   8.929 -1.4011  0.7943  1.0848
  134SAPE  H20T14513   5.996   3.160   8.960  0.6546  3.0238 -0.0445
  134SAPE   C3314514   5.889   3.164  10.287 -0.3991  0.1063  1.0611
  134SAPE   H3X14515   5.811   3.240  10.309 -0.9433 -1.2278  4.3265
  134SAPE   H3Y14516   5.837   3.077  10.241 -2.6052  1.0147  1.6993
  134SAPE   C3414517   5.998   3.209  10.190 -0.3926 -0.4983 -0.0429
  134SAPE   H4X14518   6.077   3.130  10.195 -0.0984 -0.1236  2.5466
  134SAPE   H4Y14519   6.046   3.304  10.220 -0.1995  0.1111 -2.1461
  134SAPE   C3514520   5.943   3.230  10.055  0.7676  0.5910 -0.1172
  134SAPE   H5X14521   5.867   3.310  10.038  1.2364  0.8223 -1.2369
  134SAPE   H5Y14522   5.883   3.142  10.023  1.9306  0.3065 -1.6230
  134SAPE   C3614523   6.048   3.251   9.948 -0.5842  0.4918  0.3376
  134SAPE   H6X14524   6.002   3.239   9.848  0.6651  1.0256 -0.3123
  134SAPE   H6Y14525   6.125   3.173   9.964 -0.2250  1.1147  1.8905
  134SAPE   C3714526   6.112   3.393   9.959  0.0016 -0.1081 -0.3871
  134SAPE   H7X14527   6.147   3.419  10.061  2.1865  0.2763 -1.1712
  134SAPE   H7Y14528   6.028   3.461   9.934  0.9087  0.6138 -1.5952
  134SAPE   C3814529   6.239   3.406   9.873 -0.1569  0.2724 -0.0936
  134SAPE   H8X14530   6.304   3.317   9.889 -1.8608 -1.3163 -1.5274
  134SAPE   H8Y14531   6.301   3.496   9.889  0.3885  0.0170 -0.7264
  134SAPE   C3914532   6.201   3.395   9.729  0.5838 -1.4688 -0.4087
  134SAPE   H9X14533   6.131   3.480   9.714 -0.4333 -2.5298 -2.0388
  134SAPE   H9Y14534   6.153   3.300   9.696 -1.9211 -0.1131 -0.8874
  134SAPE  C31014535   6.313   3.422   9.626 -0.0216  0.3111  0.3099
  134SAPE  H10X14536   6.380   3.333   9.631 -1.3896 -0.8202 -0.8180
  134SAPE  H10Y14537   6.374   3.509   9.659  0.3847  0.3917 -0.6231
  134SAPE  C31114538   6.254   3.442   9.481  0.3200 -0.0828 -0.1704
  134SAPE  H11X14539   6.180   3.524   9.492 -2.3626 -2.5234  1.5172
  134SAPE  H11Y14540   6.188   3.354   9.462  0.7254 -0.6522  0.9553
  134SAPE  C31214541   6.369   3.464   9.383  0.3241 -0.7476  0.7556
  134SAPE  H12X14542   6.439   3.379   9.398 -1.7233 -2.3864  1.5474
  134SAPE  H12Y14543   6.422   3.561   9.385  0.1767 -0.6320 -0.2798
  134SAPE  C31314544   6.307   3.455   9.236 -0.2934  0.4749 -0.1813
  134SAPE  H13X14545   6.219   3.522   9.228  0.1230  1.1058  0.3479
  134SAPE  H13Y14546   6.278   3.349   9.222 -1.9978  1.1704 -2.3449
  134SAPE  C31414547   6.418   3.485   9.136 -1.0381 -0.1370 -0.7305
  134SAPE  H14X14548   6.505   3.426   9.173  0.7313  0.4340 -3.6797
  134SAPE  H14Y14549   6.448   3.590   9.154  0.7204 -0.7644  0.3572
  134SAPE  C31514550   6.387   3.458   8.987  0.1459 -1.1896 -0.6238
  134SAPE  H15X14551   6.409   3.350   8.973  1.3463 -0.7640 -2.2847
  134SAPE  H15Y14552   6.461   3.511   8.922  0.8772 -2.5241 -0.9090
  134SAPE  C31614553   6.240   3.503   8.952  0.3563 -0.1523 -0.4571
  134SAPE  H16X14554   6.236   3.607   8.989 -2.6205 -0.8557  1.5813
  134SAPE  H16Y14555   6.167   3.443   9.012 -0.3033 -0.8901 -1.9385
  134SAPE  C31714556   6.207   3.482   8.807  0.6124 -0.1797  0.8710
  134SAPE  H17X14557   6.221   3.375   8.782 -0.7134  0.2466 -2.2396
  134SAPE  H17Y14558   6.285   3.532   8.746 -0.8897 -0.1028 -1.1108
  134SAPE  C31814559   6.068   3.533   8.759  0.2261  0.1386  0.9559
  134SAPE  H18X14560   6.054   3.505   8.652 -0.2266 -1.4559  1.4052
  134SAPE  H18Y14561   6.065   3.644   8.765 -1.2971  0.1933 -0.1830
  134SAPE  H18Z14562   5.987   3.489   8.821  0.6184  0.5805  1.7968
  135SAPE     N14563   5.668   2.099  10.658 -0.3381  0.1758 -0.4916
  135SAPE   HN114564   5.655   2.038  10.740 -0.2997 -1.0980 -1.4050
  135SAPE   HN214565   5.757   2.076  10.608  0.7038  1.9686  0.4004
  135SAPE   HN314566   5.692   2.197  10.686  1.3044 -0.0428 -1.0229
  135SAPE   C1214567   5.536   2.104  10.578  0.3449  0.3238 -0.1201
  135SAPE  H12A14568   5.523   2.202  10.527 -4.0126 -1.5302 -3.2060
  135SAPE  H12B14569   5.456   2.102  10.654 -0.7532  2.7162 -1.1028
  135SAPE   C1114570   5.542   1.981  10.491 -0.7246  0.2549 -0.1208
  135SAPE  H11A14571   5.564   1.888  10.547 -3.0448 -0.1874  0.1690
  135SAPE  H11B14572   5.625   1.991  10.418 -0.5836  1.7827  0.2140
  135SAPE     P14573   5.303   1.883  10.503 -0.2348 -0.3791  0.2615
  135SAPE   O1314574   5.323   1.902  10.651  0.0474  0.1419 -0.3794
  135SAPE   O1414575   5.169   1.924  10.453  0.2926 -0.5292 -0.1316
  135SAPE   O1214576   5.417   1.955  10.423 -0.0877  0.3276  0.1098
  135SAPE   O1114577   5.322   1.732  10.464 -0.3950 -0.2026  0.2359
  135SAPE    C114578   5.358   1.708  10.326  0.1149 -0.2375 -0.2083
  135SAPE    HA14579   5.282   1.760  10.264 -0.9233 -0.2337  1.0525
  135SAPE    HB14580   5.464   1.737  10.304 -0.7988  2.7974 -1.1071
  135SAPE    C214581   5.340   1.557  10.299  0.3093  0.4178  0.0775
  135SAPE    HS14582   5.236   1.529  10.328 -0.5813  1.5411 -1.8067
  135SAPE   O2114583   5.443   1.483  10.365 -0.1372  0.2194  0.4257
  135SAPE   C2114584   5.395   1.378  10.449 -0.0792 -0.8888  0.3817
  135SAPE   O2214585   5.278   1.360  10.460  0.3305  0.0565  0.0532
  135SAPE   C2214586   5.505   1.288  10.501 -0.6651 -0.6944 -0.0302
  135SAPE   H2R14587   5.588   1.268  10.430 -1.0275  0.9357 -0.9658
  135SAPE   H2S14588   5.555   1.338  10.586  0.5677 -0.3012 -0.9559
  135SAPE    C314589   5.342   1.526  10.151 -0.2746  0.2585 -0.0299
  135SAPE    HX14590   5.328   1.418  10.129 -1.2649  0.6512 -1.5250
  135SAPE    HY14591   5.443   1.549  10.111 -1.1216  1.5810 -1.5731
  135SAPE   O3114592   5.248   1.608  10.072  0.5514  0.0985 -0.2604
  135SAPE   C3114593   5.270   1.601   9.941  0.1177  0.0840  0.0608
  135SAPE   O3214594   5.359   1.536   9.894  0.1584  0.4804 -0.7946
  135SAPE   C3214595   5.182   1.701   9.866  0.5268  0.0212 -0.2019
  135SAPE   H2X14596   5.216   1.802   9.900  1.5980 -0.7301  1.0245
  135SAPE   H2Y14597   5.077   1.684   9.897  0.4146  0.8741 -0.0890
  135SAPE   C2314598   5.440   1.153  10.546  0.7078 -0.2631  0.2303
  135SAPE   H3R14599   5.354   1.172  10.613  1.0079  0.1833  0.4927
  135SAPE   H3S14600   5.516   1.112  10.616  1.0596  0.3430  0.2116
  135SAPE   C2414601   5.409   1.049  10.433  0.1450 -0.0871 -0.6523
  135SAPE   H4R14602   5.323   1.081  10.371  0.9255 -0.3414 -1.9095
  135SAPE   H4S14603   5.375   0.950  10.471 -0.5436  0.6142  0.5891
  135SAPE   C2514604   5.531   1.027  10.348 -0.0487 -0.2684  0.4723
  135SAPE   H5R14605   5.605   0.958  10.392  0.2769 -1.4175 -1.7668
  135SAPE   C2614606   5.552   1.073  10.223 -0.0100  0.8148  0.2306
  135SAPE   H6R14607   5.645   1.042  10.173 -1.0947  1.0644 -2.0402
  135SAPE   C2714608   5.463   1.151  10.133  0.3082 -0.1925 -0.4410
  135SAPE   H7R14609   5.518   1.244  10.106 -1.5281  0.4867 -2.1099
  135SAPE   H7S14610   5.372   1.180  10.190 -0.8177 -1.2257 -1.6400
  135SAPE   C2814611   5.417   1.067  10.010 -0.1813 -0.6201  0.7174
  135SAPE   H8R14612   5.320   1.015  10.014  0.1769 -2.3890 -4.9189
  135SAPE   C2914613   5.492   1.037   9.900  0.0894 -0.2159 -0.4158
  135SAPE   H9R14614   5.450   0.976   9.819  1.2837 -0.2959 -1.0028
  135SAPE  C21014615   5.623   1.106   9.870 -0.0729  0.1071  0.8046
  135SAPE  H10R14616   5.684   1.039   9.805  0.2464  1.1433  0.0048
  135SAPE  H10S14617   5.686   1.121   9.960 -0.9477  1.8840  1.1714
  135SAPE  C21114618   5.593   1.226   9.784  0.3581  0.6149 -0.7669
  135SAPE  H11R14619   5.580   1.319   9.841 -0.7813  1.6224 -2.5921
  135SAPE  C21214620   5.578   1.225   9.643 -0.1513 -0.8930  0.0274
  135SAPE  H12R14621   5.555   1.317   9.587 -1.3673 -1.1893  0.0058
  135SAPE  C21314622   5.585   1.106   9.553  0.2256 -0.5465 -0.6408
  135SAPE  H13R14623   5.484   1.061   9.536  0.0685  0.2767 -2.0629
  135SAPE  H13S14624   5.641   1.024   9.604  0.0555 -1.3756 -1.7458
  135SAPE  C21414625   5.665   1.136   9.428  0.3834 -0.7278 -0.1622
  135SAPE  H14R14626   5.773   1.147   9.447  0.3187  1.8162 -0.8242
  135SAPE  C21514627   5.626   1.182   9.308  1.1857 -0.1484  0.4737
  135SAPE  H15R14628   5.696   1.179   9.223  1.4790 -0.9266  0.7318
  135SAPE  C21614629   5.486   1.225   9.282 -0.3391 -0.1963 -1.0190
  135SAPE  H16R14630   5.481   1.335   9.265 -0.2649 -0.0631 -0.2347
  135SAPE  H16S14631   5.413   1.200   9.362  0.3433  1.5449  0.2071
  135SAPE  C21714632   5.420   1.175   9.147  0.2747  0.2388  0.2154
  135SAPE  H17R14633   5.312   1.199   9.140  0.4068  0.3789 -3.5526
  135SAPE  H17S14634   5.427   1.065   9.154 -0.6598  0.2137  0.8454
  135SAPE  C21814635   5.494   1.221   9.017  1.0769 -0.2296  0.0787
  135SAPE  H18R14636   5.534   1.322   9.038 -0.8244  1.0839 -2.2137
  135SAPE  H18S14637   5.408   1.224   8.947  1.6634 -0.3161 -0.6527
  135SAPE  C21914638   5.583   1.112   8.970 -0.0211 -0.6212 -0.2148
  135SAPE  H19R14639   5.553   1.005   8.972  0.6004 -0.8035  2.4573
  135SAPE  H19S14640   5.663   1.110   9.047 -1.2784 -0.5856  1.1327
  135SAPE  C22014641   5.645   1.138   8.841 -0.4858 -0.0780 -0.5850
  135SAPE  H20R14642   5.577   1.090   8.768 -3.2377  0.4749  1.4611
  135SAPE  H20S14643   5.745   1.088   8.843  0.0899  1.0441 -0.3910
  135SAPE  H20T14644   5.673   1.244   8.825 -0.5608 -0.0006 -0.2157
  135SAPE   C3314645   5.201   1.692   9.710 -0.1461 -0.2303 -0.4214
  135SAPE   H3X14646   5.310   1.701   9.690  0.0347  0.1672  0.7163
  135SAPE   H3Y14647   5.154   1.775   9.652  0.1932  0.1083 -0.2128
  135SAPE   C3414648   5.146   1.558   9.653  0.0317 -0.3081 -0.2317
  135SAPE   H4X14649   5.036   1.553   9.661  0.1241  0.5323  3.2780
  135SAPE   H4Y14650   5.183   1.469   9.709 -0.4226 -1.1920 -1.3001
  135SAPE   C3514651   5.176   1.522   9.507 -0.1566 -0.1620  0.2082
  135SAPE   H5X14652   5.145   1.416   9.494  1.1456 -0.6679  1.0133
  135SAPE   H5Y14653   5.287   1.516   9.502 -0.2404 -1.1600 -0.9501
  135SAPE   C3614654   5.118   1.620   9.407  0.2230 -0.2509 -0.1783
  135SAPE   H6X14655   5.181   1.711   9.414 -1.7384  1.0007  3.4899
  135SAPE   H6Y14656   5.013   1.649   9.429  0.7665  2.1557 -0.4264
  135SAPE   C3714657   5.130   1.575   9.261  0.1853 -0.1107 -0.4241
  135SAPE   H7X14658   5.070   1.483   9.246  1.5110 -1.2066  0.6994
  135SAPE   H7Y14659   5.234   1.534   9.262  0.9790  1.7460  1.5104
  135SAPE   C3814660   5.097   1.678   9.153 -0.7676 -0.0727  0.4195
  135SAPE   H8X14661   5.186   1.742   9.131  0.0142 -2.0876 -3.0231
  135SAPE   H8Y14662   5.009   1.744   9.166 -1.0474  0.0258 -1.6913
  135SAPE   C3914663   5.079   1.597   9.020  0.1478  0.0079  0.2313
  135SAPE   H9X14664   5.072   1.668   8.934 -2.0522 -0.4935 -0.0667
  135SAPE   H9Y14665   4.981   1.546   9.028  0.7786 -1.3566 -0.4211
  135SAPE  C31014666   5.181   1.484   8.994  0.0759 -0.3589  0.9116
  135SAPE  H10X14667   5.191   1.402   9.069  0.0962 -1.3390 -0.1377
  135SAPE  H10Y14668   5.285   1.522   8.996  0.3946 -1.1928  0.8433
  135SAPE  C31114669   5.141   1.401   8.872 -0.0689 -0.5025  0.4457
  135SAPE  H11X14670   5.043   1.352   8.890 -0.4421  0.0611 -0.0115
  135SAPE  H11Y14671   5.222   1.325   8.867  0.5892  0.0016  2.6859
  135SAPE  C31214672   5.142   1.478   8.737 -0.9315  0.3152  0.1070
  135SAPE  H12X14673   5.245   1.512   8.713 -0.6897  0.9283  1.9129
  135SAPE  H12Y14674   5.069   1.560   8.725 -1.7281 -0.5780 -1.6710
  135SAPE  C31314675   5.107   1.381   8.618  0.3535  0.2659  0.9604
  135SAPE  H13X14676   5.005   1.341   8.636  0.2420 -0.0809 -0.3202
  135SAPE  H13Y14677   5.179   1.296   8.615 -0.4358 -0.4106 -2.3098
  135SAPE  C31414678   5.114   1.442   8.478 -0.1542 -0.2277 -0.3028
  135SAPE  H14X14679   5.206   1.501   8.454  0.1526 -0.1285  1.0705
  135SAPE  H14Y14680   5.026   1.509   8.466  1.6988  2.1937 -1.2525
  135SAPE  C31514681   5.118   1.333   8.375 -0.3450  0.4461  0.4484
  135SAPE  H15X14682   5.031   1.265   8.373  0.8514 -1.1946  1.5104
  135SAPE  H15Y14683   5.208   1.270   8.391 -0.8031 -0.6305 -0.9930
  135SAPE  C31614684   5.123   1.380   8.225  0.5977 -0.2596 -0.2505
  135SAPE  H16X14685   5.228   1.408   8.203  0.1628  1.3679 -0.4282
  135SAPE  H16Y14686   5.051   1.465   8.223  0.7228 -0.1047  0.9191
  135SAPE  C31714687   5.081   1.260   8.138  0.4699  0.0074 -0.7377
  135SAPE  H17X14688   4.981   1.234   8.178 -0.7207  4.0123 -0.6752
  135SAPE  H17Y14689   5.152   1.188   8.184  0.3891  1.5467  2.0084
  135SAPE  C31814690   5.088   1.270   7.988  0.1976  0.0676  0.4912
  135SAPE  H18X14691   5.193   1.274   7.951 -0.5414 -0.8259 -1.9348
  135SAPE  H18Y14692   5.038   1.357   7.940 -1.8415 -0.8230  0.8948
  135SAPE  H18Z14693   5.045   1.180   7.940 -2.2544  2.2835 -1.8563
  136SAPE     N14694   1.209   2.341  10.953 -0.1350  0.1343 -0.3122
  136SAPE   HN114695   1.229   2.255  11.009 -1.1421 -0.1823 -0.4088
  136SAPE   HN214696   1.293   2.403  10.951  0.5820 -0.5538  2.8773
  136SAPE   HN314697   1.132   2.401  10.989  0.6330  0.3465  1.0281
  136SAPE   C1214698   1.181   2.293  10.816  0.7579  0.3113 -0.0330
  136SAPE  H12A14699   1.272   2.238  10.782  1.0474 -0.0534  1.2583
  136SAPE  H12B14700   1.159   2.377  10.747  1.1822  1.3941  1.1127
  136SAPE   C1114701   1.055   2.201  10.816  0.1032  0.1583  0.1248
  136SAPE  H11A14702   1.060   2.136  10.726 -1.4431 -1.5218  1.1797
  136SAPE  H11B14703   0.972   2.274  10.806  0.2276  0.3676  0.6020
  136SAPE     P14704   1.093   1.973  10.961 -0.0080 -0.3318  0.2753
  136SAPE   O1314705   1.147   1.961  11.100 -0.3220 -0.2060 -0.1225
  136SAPE   O1414706   0.984   1.888  10.909 -0.2161 -0.2160  0.1360
  136SAPE   O1214707   1.041   2.126  10.941 -0.2409 -0.7046 -0.0257
  136SAPE   O1114708   1.221   1.966  10.863  0.1567  0.1121 -0.1594
  136SAPE    C114709   1.225   1.882  10.744 -0.0364  0.5810 -0.5317
  136SAPE    HA14710   1.210   1.777  10.780 -0.9416  1.3511  1.4988
  136SAPE    HB14711   1.152   1.922  10.670 -1.0157  1.6414  0.9594
  136SAPE    C214712   1.374   1.880  10.685 -0.5555  0.1969 -0.2499
  136SAPE    HS14713   1.451   1.841  10.755 -0.3074 -0.0356 -0.6503
  136SAPE   O2114714   1.413   2.013  10.653 -0.0492 -0.5352 -0.3489
  136SAPE   C2114715   1.543   2.036  10.628  0.5059  0.9081  0.7130
  136SAPE   O2214716   1.634   1.959  10.653  0.0698  0.1102  0.0011
  136SAPE   C2214717   1.559   2.167  10.557 -0.3260 -0.2275 -0.8827
  136SAPE   H2R14718   1.460   2.208  10.529  0.0554  1.5500  0.1677
  136SAPE   H2S14719   1.600   2.226  10.642 -2.6956  0.4976 -0.1856
  136SAPE    C314720   1.371   1.796  10.552 -0.0008  0.3819  0.1504
  136SAPE    HX14721   1.332   1.695  10.578  1.3326 -0.7750 -2.0610
  136SAPE    HY14722   1.478   1.779  10.530 -0.0838 -1.7154  1.1445
  136SAPE   O3114723   1.291   1.848  10.439 -0.4061  0.2841 -0.0498
  136SAPE   C3114724   1.330   1.787  10.325 -1.1048 -0.4917 -0.2434
  136SAPE   O3214725   1.418   1.701  10.312 -0.2959 -0.7845 -0.7797
  136SAPE   C3214726   1.249   1.846  10.214  0.4493  0.0027  0.3722
  136SAPE   H2X14727   1.282   1.951  10.198  1.6725 -0.5212 -0.8406
  136SAPE   H2Y14728   1.142   1.851  10.242  0.3763  0.0969  0.0890
  136SAPE   C2314729   1.653   2.152  10.435  0.1774  0.7317  0.5414
  136SAPE   H3R14730   1.753   2.110  10.458  0.1230 -0.1321 -0.6836
  136SAPE   H3S14731   1.665   2.254  10.393  2.9495 -0.0944 -0.8888
  136SAPE   C2414732   1.598   2.065  10.314  0.1919 -0.1717 -0.7364
  136SAPE   H4R14733   1.564   1.965  10.349  1.5363 -0.8066 -1.1669
  136SAPE   H4S14734   1.686   2.048  10.248 -0.0083  1.6937 -1.5565
  136SAPE   C2514735   1.495   2.136  10.241 -0.1071 -0.1997 -0.7872
  136SAPE   H5R14736   1.408   2.173  10.297 -0.6142  1.4041 -2.5134
  136SAPE   C2614737   1.499   2.187  10.119 -0.1754 -0.4334 -0.0516
  136SAPE   H6R14738   1.409   2.243  10.089 -0.1702  0.0735  0.8502
  136SAPE   C2714739   1.600   2.164  10.011  0.6199  0.2295  0.7548
  136SAPE   H7R14740   1.687   2.106  10.048  1.4677  0.7548 -0.3535
  136SAPE   H7S14741   1.632   2.266   9.980  1.3021 -0.1163  0.2890
  136SAPE   C2814742   1.538   2.077   9.903 -0.1552 -0.1654  0.1348
  136SAPE   H8R14743   1.490   1.981   9.929 -1.3920 -0.6289 -3.2799
  136SAPE   C2914744   1.552   2.111   9.772  0.4401 -0.5905  0.2247
  136SAPE   H9R14745   1.519   2.032   9.702  2.0526 -1.6942  0.6510
  136SAPE  C21014746   1.620   2.230   9.713  0.3523 -0.1209 -1.1058
  136SAPE  H10R14747   1.708   2.233   9.780 -0.7071 -0.8650  0.3851
  136SAPE  H10S14748   1.563   2.321   9.743  0.2544 -0.6797  0.4436
  136SAPE  C21114749   1.659   2.222   9.570  0.3984  0.4542  0.4764
  136SAPE  H11R14750   1.760   2.189   9.540 -0.2733 -0.4848 -0.8713
  136SAPE  C21214751   1.571   2.226   9.464 -0.5837 -1.2064  0.4174
  136SAPE  H12R14752   1.611   2.218   9.362  1.6613 -2.7547  1.3429
  136SAPE  C21314753   1.424   2.259   9.471 -0.3477 -0.1222 -0.3977
  136SAPE  H13R14754   1.385   2.255   9.575  2.0600  1.0067  0.6410
  136SAPE  H13S14755   1.370   2.179   9.417 -1.3309  0.7364 -0.7171
  136SAPE  C21414756   1.385   2.392   9.413  0.1777 -0.4018  0.2093
  136SAPE  H14R14757   1.370   2.471   9.488  0.0109  0.8422 -1.0853
  136SAPE  C21514758   1.387   2.435   9.284  0.5949  0.6601  0.4846
  136SAPE  H15R14759   1.333   2.524   9.250  0.7737  0.5301 -0.1563
  136SAPE  C21614760   1.427   2.340   9.169  0.3889  0.0793 -0.4169
  136SAPE  H16R14761   1.345   2.339   9.094 -0.6275 -0.5040  0.6674
  136SAPE  H16S14762   1.438   2.232   9.192 -0.9753  0.0145  0.0140
  136SAPE  C21714763   1.566   2.384   9.107 -0.2987  0.0168  0.1851
  136SAPE  H17R14764   1.604   2.296   9.051  1.9031  0.6566  0.5962
  136SAPE  H17S14765   1.638   2.383   9.192  0.1653 -1.1563 -0.2131
  136SAPE  C21814766   1.556   2.504   9.011  0.1374 -0.4103 -0.8570
  136SAPE  H18R14767   1.523   2.590   9.073  0.4413 -0.3954 -0.7150
  136SAPE  H18S14768   1.482   2.480   8.932 -1.1878 -0.6355  0.4034
  136SAPE  C21914769   1.691   2.526   8.935  0.0921 -0.1184 -0.1703
  136SAPE  H19R14770   1.773   2.539   9.010 -0.3767 -3.1164  0.9797
  136SAPE  H19S14771   1.682   2.630   8.897  1.1672  0.8775  2.1149
  136SAPE  C22014772   1.732   2.418   8.831  0.1815  1.5514  0.1847
  136SAPE  H20R14773   1.817   2.449   8.766  1.5619  0.2246  1.2739
  136SAPE  H20S14774   1.643   2.407   8.766  3.1828  2.6236 -4.6335
  136SAPE  H20T14775   1.755   2.318   8.873 -0.5853  0.0663 -2.6703
  136SAPE   C3314776   1.258   1.774  10.078  0.6355  0.2705  0.3976
  136SAPE   H3X14777   1.256   1.664  10.093 -1.7937  0.4273  1.5764
  136SAPE   H3Y14778   1.358   1.804  10.040  1.3437 -1.7897  0.5134
  136SAPE   C3414779   1.134   1.820   9.995 -0.3114 -0.1963 -0.1912
  136SAPE   H4X14780   1.110   1.929  10.004  2.3819  0.6092 -1.7153
  136SAPE   H4Y14781   1.053   1.766  10.048 -0.0679 -0.0358  0.3460
  136SAPE   C3514782   1.143   1.781   9.845 -0.3223 -0.1745 -0.5812
  136SAPE   H5X14783   1.042   1.805   9.804  0.1111  1.3939 -0.8115
  136SAPE   H5Y14784   1.168   1.673   9.848 -1.6176 -0.4787  1.7517
  136SAPE   C3614785   1.256   1.858   9.765  0.1218  0.0867  0.0601
  136SAPE   H6X14786   1.357   1.834   9.804  0.8495  2.2437 -0.3367
  136SAPE   H6Y14787   1.234   1.964   9.792 -1.2092 -0.1332 -0.0779
  136SAPE   C3714788   1.265   1.827   9.614 -0.3525  0.0292 -0.0001
  136SAPE   H7X14789   1.300   1.723   9.601 -1.4429 -0.6607  2.1865
  136SAPE   H7Y14790   1.340   1.890   9.561 -0.0380 -1.7398 -1.7496
  136SAPE   C3814791   1.132   1.832   9.539  0.5544  0.2041 -0.1965
  136SAPE   H8X14792   1.077   1.921   9.576  1.0025  0.8786 -1.0860
  136SAPE   H8Y14793   1.058   1.755   9.568 -0.4647  1.4064  0.4979
  136SAPE   C3914794   1.145   1.844   9.394 -0.0022  0.0396  0.5948
  136SAPE   H9X14795   1.223   1.922   9.379 -1.2517  1.5822  1.7389
  136SAPE   H9Y14796   1.046   1.882   9.361  0.3090 -0.4508 -1.0121
  136SAPE  C31014797   1.191   1.720   9.321  0.1683  0.2249  0.3425
  136SAPE  H10X14798   1.127   1.637   9.359 -0.7807  0.5592 -0.4794
  136SAPE  H10Y14799   1.300   1.703   9.336  0.8897  2.6114 -1.5098
  136SAPE  C31114800   1.178   1.710   9.166 -0.1632 -0.3103  0.6835
  136SAPE  H11X14801   1.247   1.786   9.125 -0.6132  0.1292  0.7261
  136SAPE  H11Y14802   1.073   1.741   9.143  0.4598  0.9009 -0.6680
  136SAPE  C31214803   1.198   1.563   9.108 -0.1883 -0.0649 -0.0404
  136SAPE  H12X14804   1.127   1.492   9.155  0.1668  0.7379  1.8104
  136SAPE  H12Y14805   1.299   1.526   9.137  0.8909  0.9971 -2.2079
  136SAPE  C31314806   1.209   1.556   8.955 -0.2631  0.5164  0.1852
  136SAPE  H13X14807   1.112   1.590   8.912  0.7010  0.6247 -2.0371
  136SAPE  H13Y14808   1.214   1.449   8.925 -1.1214  0.4887  0.1120
  136SAPE  C31414809   1.331   1.621   8.897 -0.7188  0.3988  0.3249
  136SAPE  H14X14810   1.418   1.572   8.946 -0.9769 -1.9087 -1.3472
  136SAPE  H14Y14811   1.330   1.726   8.932  0.4389 -0.1910  2.3058
  136SAPE  C31514812   1.345   1.614   8.740 -0.1233 -0.3129 -0.2070
  136SAPE  H15X14813   1.255   1.657   8.691 -0.9763 -2.0189 -0.2056
  136SAPE  H15Y14814   1.344   1.506   8.712 -1.6716 -0.1367 -0.9394
  136SAPE  C31614815   1.470   1.681   8.676  0.4057  0.4152 -0.2412
  136SAPE  H16X14816   1.554   1.638   8.735  0.1938  0.9674  0.4823
  136SAPE  H16Y14817   1.475   1.792   8.684  0.5709  0.3510  0.7164
  136SAPE  C31714818   1.483   1.640   8.531 -0.7167 -0.6445 -0.4195
  136SAPE  H17X14819   1.389   1.651   8.472  0.9442 -1.2214 -3.3893
  136SAPE  H17Y14820   1.516   1.534   8.529 -4.3499 -1.9014 -0.0872
  136SAPE  C31814821   1.593   1.730   8.462  0.4543  0.1071  0.0032
  136SAPE  H18X14822   1.597   1.697   8.356  1.5975 -1.5006  0.5036
  136SAPE  H18Y14823   1.692   1.716   8.510  0.1973 -1.3597  0.1563
  136SAPE  H18Z14824   1.556   1.834   8.476 -1.0455 -0.0857 -2.0392
  137SAPE     N14825   6.330   4.760  10.980 -0.1692  0.7011 -0.0038
  137SAPE   HN114826   6.316   4.856  10.942 -0.6061 -0.0415 -1.8186
  137SAPE   HN214827   6.430   4.734  10.987 -0.1669  0.9479  1.0255
  137SAPE   HN314828   6.277   4.694  10.919 -1.1945 -0.2110  1.7896
  137SAPE   C1214829   6.265   4.736  11.111  0.1352 -0.8585 -0.0163
  137SAPE  H12A14830   6.328   4.779  11.191 -0.8554  1.6720 -0.5157
  137SAPE  H12B14831   6.256   4.626  11.127 -1.2087 -0.8770 -0.7297
  137SAPE   C1114832   6.126   4.795  11.112  0.3989 -0.3693  0.1431
  137SAPE  H11A14833   6.143   4.901  11.086 -0.0541 -0.3304 -0.0005
  137SAPE  H11B14834   6.091   4.785  11.217  3.0955 -2.5180  0.9673
  137SAPE     P14835   5.917   4.795  10.948  0.3910  0.1301 -0.8031
  137SAPE   O1314836   5.848   4.699  10.859 -0.1051 -0.6823  0.7901
  137SAPE   O1414837   5.835   4.858  11.055 -0.0615  0.0242  0.3313
  137SAPE   O1214838   6.038   4.725  11.017 -0.0468 -0.4049  0.1885
  137SAPE   O1114839   5.982   4.912  10.865 -0.7341 -0.1877 -0.3764
  137SAPE    C114840   6.080   4.882  10.765 -0.0025 -1.0420 -0.2003
  137SAPE    HA14841   6.173   4.938  10.788 -0.3405 -0.2466 -0.7361
  137SAPE    HB14842   6.114   4.777  10.754  1.6762 -0.3289 -2.4111
  137SAPE    C214843   6.040   4.923  10.619 -0.0703 -0.0600 -0.6585
  137SAPE    HS14844   6.018   5.031  10.605 -1.0375 -0.2313 -0.5219
  137SAPE   O2114845   5.930   4.850  10.581  0.0927 -0.6304 -0.4888
  137SAPE   C2114846   5.809   4.894  10.609 -1.0218  0.1886  0.1863
  137SAPE   O2214847   5.788   5.004  10.658 -0.2667 -0.0056 -0.2106
  137SAPE   C2214848   5.711   4.778  10.575 -0.4384 -0.1167  0.2138
  137SAPE   H2R14849   5.758   4.686  10.534  1.3566  0.7354  0.2705
  137SAPE   H2S14850   5.670   4.744  10.673 -0.3075  1.0639  0.6941
  137SAPE    C314851   6.159   4.877  10.532 -0.4132 -0.0706  0.2161
  137SAPE    HX14852   6.179   4.768  10.545  2.0591 -0.1898 -3.2124
  137SAPE    HY14853   6.242   4.944  10.561 -1.3376  0.2700  2.1964
  137SAPE   O3114854   6.134   4.899  10.394  0.0962  0.4061  0.1881
  137SAPE   C3114855   6.098   4.803  10.315 -0.0544 -0.1660  0.4116
  137SAPE   O3214856   6.082   4.688  10.346  0.1963  0.7160 -0.4281
  137SAPE   C3214857   6.100   4.857  10.171 -0.0902 -0.0582 -0.3881
  137SAPE   H2X14858   6.105   4.968  10.172  0.0266 -0.0644  0.0884
  137SAPE   H2Y14859   5.996   4.829  10.145 -1.3619  2.6138  1.4412
  137SAPE   C2314860   5.607   4.835  10.471  0.3811  0.3981 -0.0638
  137SAPE   H3R14861   5.644   4.866  10.371  0.1571  1.6591  0.2264
  137SAPE   H3S14862   5.564   4.929  10.512 -2.3326 -1.1158  0.8408
  137SAPE   C2414863   5.502   4.730  10.444  0.6319  0.5030 -0.6950
  137SAPE   H4R14864   5.425   4.773  10.377 -0.6708  1.6911  1.4554
  137SAPE   H4S14865   5.458   4.713  10.544  1.7512 -2.2595 -0.5796
  137SAPE   C2514866   5.537   4.597  10.386  0.4213 -0.0458 -0.4232
  137SAPE   H5R14867   5.534   4.510  10.454 -1.1045  0.0524 -0.3464
  137SAPE   C2614868   5.560   4.568  10.262 -0.4710 -1.0883  0.4176
  137SAPE   H6R14869   5.602   4.468  10.247 -0.3375 -1.0812  0.7351
  137SAPE   C2714870   5.573   4.668  10.145  0.2456  0.2711 -0.1476
  137SAPE   H7R14871   5.679   4.702  10.134  0.3029  0.0009 -0.4511
  137SAPE   H7S14872   5.507   4.757  10.151 -0.9103 -0.2951 -2.9150
  137SAPE   C2814873   5.527   4.589  10.018 -0.2022 -0.6759 -1.2280
  137SAPE   H8R14874   5.437   4.531  10.040  1.0202 -2.7520 -1.4652
  137SAPE   C2914875   5.587   4.589   9.896  1.0389  0.9263  0.0040
  137SAPE   H9R14876   5.539   4.526   9.819  1.4987 -0.4287  0.7913
  137SAPE  C21014877   5.712   4.664   9.861  0.8922 -0.2394 -0.0035
  137SAPE  H10R14878   5.779   4.618   9.785  2.7797  2.8064 -0.3679
  137SAPE  H10S14879   5.765   4.672   9.958  0.0263  1.9339  0.3651
  137SAPE  C21114880   5.689   4.816   9.837 -0.3726  0.8490  0.6944
  137SAPE  H11R14881   5.638   4.864   9.921 -0.4149 -0.3260  1.3704
  137SAPE  C21214882   5.736   4.897   9.734  0.0930 -0.0848 -0.1487
  137SAPE  H12R14883   5.710   5.002   9.720 -0.1505  0.0350  1.1076
  137SAPE  C21314884   5.813   4.849   9.613  0.5025  0.5588  0.6543
  137SAPE  H13R14885   5.864   4.751   9.624  3.2202  1.6859 -0.9620
  137SAPE  H13S14886   5.904   4.906   9.585  1.4603 -1.0907  0.2238
  137SAPE  C21414887   5.716   4.819   9.505  0.4954  0.0124 -0.1508
  137SAPE  H14R14888   5.633   4.751   9.533  1.1991 -0.8866 -0.1854
  137SAPE  C21514889   5.719   4.887   9.387  0.2042 -0.0930  0.4830
  137SAPE  H15R14890   5.638   4.862   9.317 -0.6527  0.1074  1.3983
  137SAPE  C21614891   5.816   4.992   9.329 -0.4105  0.4116  0.3885
  137SAPE  H16R14892   5.883   5.033   9.409  0.2395  0.2827 -0.0818
  137SAPE  H16S14893   5.759   5.079   9.289 -0.1046  0.2619 -0.3759
  137SAPE  C21714894   5.910   4.945   9.216 -0.4559  0.4022  0.3739
  137SAPE  H17R14895   5.943   4.839   9.220 -0.6402  0.3668  1.1613
  137SAPE  H17S14896   5.999   5.011   9.207  0.6404 -1.1794 -1.1541
  137SAPE  C21814897   5.840   4.955   9.082  0.2833  0.2810 -0.3449
  137SAPE  H18R14898   5.803   5.060   9.080  1.8824  0.9332  1.4954
  137SAPE  H18S14899   5.755   4.884   9.073 -0.1758  0.7194  0.3831
  137SAPE  C21914900   5.931   4.938   8.961  0.3046  0.0281  0.3950
  137SAPE  H19R14901   5.973   4.838   8.985 -0.5957 -0.3713  0.3295
  137SAPE  H19S14902   6.013   5.013   8.969 -1.5475  2.1074  0.8448
  137SAPE  C22014903   5.874   4.942   8.823 -0.1597  0.3467 -0.0069
  137SAPE  H20R14904   5.788   4.873   8.809 -2.0506  2.5849 -0.1276
  137SAPE  H20S14905   5.948   4.923   8.742 -0.3822 -0.6087  0.0055
  137SAPE  H20T14906   5.839   5.045   8.799 -0.3439  0.2525 -0.1459
  137SAPE   C3314907   6.205   4.783  10.086 -0.0017  0.6269 -0.4802
  137SAPE   H3X14908   6.205   4.672  10.095 -0.5139  0.4500 -2.1459
  137SAPE   H3Y14909   6.300   4.819  10.130 -0.9219  0.9825  1.3035
  137SAPE   C3414910   6.210   4.824   9.940  0.4206 -0.2277  0.7882
  137SAPE   H4X14911   6.229   4.933   9.926 -0.4061 -0.2565 -0.7604
  137SAPE   H4Y14912   6.113   4.800   9.891  0.6561  1.9002 -0.8632
  137SAPE   C3514913   6.313   4.745   9.867  0.4100  0.8320 -1.0627
  137SAPE   H5X14914   6.303   4.637   9.890 -2.8939  1.2060 -0.1155
  137SAPE   H5Y14915   6.411   4.768   9.913 -0.6837 -0.7692  2.3769
  137SAPE   C3614916   6.327   4.760   9.715  0.2528  0.1374 -0.1512
  137SAPE   H6X14917   6.244   4.702   9.668 -0.8557 -1.2209  3.2107
  137SAPE   H6Y14918   6.412   4.700   9.677 -1.3042 -0.9256 -2.1578
  137SAPE   C3714919   6.343   4.900   9.660  0.2117 -0.1766 -0.3725
  137SAPE   H7X14920   6.434   4.947   9.703 -0.0113  1.3015 -1.4397
  137SAPE   H7Y14921   6.251   4.956   9.690 -0.0008  1.2694 -3.3275
  137SAPE   C3814922   6.347   4.896   9.507  0.8341 -0.4585  0.0134
  137SAPE   H8X14923   6.260   4.838   9.469 -0.2763  1.3985 -0.4137
  137SAPE   H8Y14924   6.436   4.845   9.465  0.9263 -0.2990  0.0110
  137SAPE   C3914925   6.319   5.032   9.446  0.7228  0.3342 -0.2903
  137SAPE   H9X14926   6.403   5.097   9.479  1.0231  0.2894 -0.9546
  137SAPE   H9Y14927   6.225   5.076   9.485  0.0262 -0.3722 -1.1355
  137SAPE  C31014928   6.317   5.038   9.296 -0.0267  0.7427  0.2128
  137SAPE  H10X14929   6.228   4.987   9.254 -0.4277  2.1192 -0.6912
  137SAPE  H10Y14930   6.402   4.978   9.256 -1.6256 -1.1539 -0.4791
  137SAPE  C31114931   6.323   5.174   9.237 -0.5881 -0.8722 -0.5670
  137SAPE  H11X14932   6.430   5.202   9.242 -0.7514 -0.3439  0.0712
  137SAPE  H11Y14933   6.273   5.247   9.304 -0.4204 -0.9819 -0.3198
  137SAPE  C31214934   6.266   5.204   9.093  0.0165  0.4010  0.3121
  137SAPE  H12X14935   6.173   5.144   9.086  1.4619 -1.8251 -1.0890
  137SAPE  H12Y14936   6.341   5.158   9.026  0.1218 -0.9828  1.3259
  137SAPE  C31314937   6.257   5.353   9.060  0.7857 -0.2149 -0.6563
  137SAPE  H13X14938   6.365   5.378   9.056  0.8736 -0.5402 -0.3861
  137SAPE  H13Y14939   6.215   5.404   9.149  0.8827  0.4567 -0.9957
  137SAPE  C31414940   6.174   5.379   8.931 -0.1890 -0.0087  0.2494
  137SAPE  H14X14941   6.091   5.305   8.933  0.4265 -0.8127 -1.6610
  137SAPE  H14Y14942   6.234   5.353   8.842  0.0940 -0.2055  0.4992
  137SAPE  C31514943   6.136   5.532   8.928  0.1939  0.1969  0.5245
  137SAPE  H15X14944   6.213   5.603   8.964  1.1032  0.1222 -1.1371
  137SAPE  H15Y14945   6.055   5.536   9.004  1.6575 -1.6411  2.3123
  137SAPE  C31614946   6.077   5.565   8.793 -0.4088  0.0777  0.5989
  137SAPE  H16X14947   5.979   5.514   8.786  0.5900 -1.7895 -0.8929
  137SAPE  H16Y14948   6.139   5.530   8.708  0.2534 -0.0092  1.1061
  137SAPE  C31714949   6.062   5.718   8.788  0.1988  0.0148 -0.0567
  137SAPE  H17X14950   6.164   5.762   8.797  2.0426 -4.1285  1.6042
  137SAPE  H17Y14951   6.004   5.757   8.875 -0.7144  0.5623 -0.8909
  137SAPE  C31814952   6.002   5.763   8.652 -0.1709 -0.2236  0.5871
  137SAPE  H18X14953   6.016   5.873   8.637  1.0903 -0.2360  1.5546
  137SAPE  H18Y14954   5.898   5.724   8.642 -0.0233 -0.4530 -0.1221
  137SAPE  H18Z14955   6.061   5.719   8.570 -0.4109  0.7883 -0.1571
  138SAPE     N14956   3.069   5.819  10.915  0.2485 -0.2040  0.1399
  138SAPE   HN114957   3.146   5.758  10.948  0.1625 -0.8542 -0.8041
  138SAPE   HN214958   2.982   5.802  10.969 -0.2657  3.2150  0.6285
  138SAPE   HN314959   3.051   5.797  10.815 -3.9380  0.3680  0.5665
  138SAPE   C1214960   3.130   5.962  10.939 -0.3552  0.3282  0.0502
  138SAPE  H12A14961   3.239   5.949  10.924 -0.7035 -0.8005 -1.8926
  138SAPE  H12B14962   3.104   5.994  11.042 -0.2593 -0.4916  0.3326
  138SAPE   C1114963   3.088   6.074  10.838 -0.5308  0.3594 -0.5147
  138SAPE  H11A14964   3.125   6.044  10.738  0.0542 -0.3653 -0.0922
  138SAPE  H11B14965   3.134   6.169  10.872  1.9023 -1.3354  1.2491
  138SAPE     P14966   2.886   6.169  10.717  0.2948  0.1753 -0.2523
  138SAPE   O1314967   2.748   6.121  10.699  0.7824 -0.0930  0.2665
  138SAPE   O1414968   2.916   6.312  10.737  0.0300  0.3007 -0.4474
  138SAPE   O1214969   2.943   6.084  10.842  0.1602  0.1272 -0.4026
  138SAPE   O1114970   2.972   6.118  10.594 -0.4453  0.1263  0.6058
  138SAPE    C114971   2.954   5.998  10.527  0.6372  0.2242 -0.2509
  138SAPE    HA14972   3.048   5.939  10.525  0.1029 -0.7043 -3.6544
  138SAPE    HB14973   2.875   5.937  10.575  0.8743  1.3209  1.6300
  138SAPE    C214974   2.910   6.017  10.381 -0.1388 -0.3045 -0.4001
  138SAPE    HS14975   2.916   5.917  10.335 -0.6693 -1.5187  1.9915
  138SAPE   O2114976   2.998   6.110  10.314 -0.0860  0.5793 -0.9046
  138SAPE   C2114977   3.106   6.053  10.259 -0.1717 -0.2166  1.0904
  138SAPE   O2214978   3.138   5.940  10.270 -0.0600  0.3512 -0.2615
  138SAPE   C2214979   3.199   6.165  10.201  0.7083  0.9061  0.2307
  138SAPE   H2R14980   3.140   6.242  10.146  3.4464  1.1097 -2.7020
  138SAPE   H2S14981   3.250   6.215  10.286  0.1747  1.6593  0.1114
  138SAPE    C314982   2.758   6.064  10.369 -1.1476  0.3929 -1.0440
  138SAPE    HX14983   2.741   6.174  10.377  0.9639  0.8552 -2.0972
  138SAPE    HY14984   2.702   6.010  10.448 -2.3981  0.9653 -1.5126
  138SAPE   O3114985   2.711   6.028  10.233 -0.9751  0.1448 -0.3647
  138SAPE   C3114986   2.602   5.951  10.219 -0.2451 -0.3001 -0.4241
  138SAPE   O3214987   2.521   5.937  10.306 -0.1101 -0.2411  0.0408
  138SAPE   C3214988   2.592   5.886  10.090 -0.0864 -0.4975  0.2400
  138SAPE   H2X14989   2.483   5.886  10.073 -0.2051 -0.3947  1.0005
  138SAPE   H2Y14990   2.619   5.778  10.096 -1.8888 -1.1611 -2.2243
  138SAPE   C2314991   3.298   6.110  10.094 -0.1360 -0.1739 -0.4031
  138SAPE   H3R14992   3.258   6.011  10.061  0.4941  0.1347 -2.1729
  138SAPE   H3S14993   3.398   6.090  10.139 -0.3529 -3.2854 -1.0364
  138SAPE   C2414994   3.322   6.185   9.961 -0.1801  0.2818 -0.9065
  138SAPE   H4R14995   3.386   6.272   9.986  0.7014 -0.5489 -0.1594
  138SAPE   H4S14996   3.230   6.220   9.911 -2.1255 -2.6057  0.3914
  138SAPE   C2514997   3.402   6.096   9.867 -0.0094 -0.0710 -0.2432
  138SAPE   H5R14998   3.503   6.076   9.905 -0.0630 -2.0652 -0.9740
  138SAPE   C2614999   3.359   6.020   9.759 -0.2459 -0.7430 -0.1716
  138SAPE   H6R15000   3.425   5.966   9.690  1.6059  0.2069  0.7775
  138SAPE   C2715001   3.215   6.013   9.719  0.8283  0.3845  0.0934
  138SAPE   H7R15002   3.141   6.041   9.798 -1.3957 -1.4549 -1.2238
  138SAPE   H7S15003   3.190   5.908   9.696 -0.3133  0.6677 -0.0446
  138SAPE   C2815004   3.194   6.119   9.608  0.0700 -0.4304 -0.4878
  138SAPE   H8R15005   3.201   6.219   9.654  0.0850 -0.5589 -0.2143
  138SAPE   C2915006   3.166   6.112   9.475 -0.7096  0.4908 -0.5793
  138SAPE   H9R15007   3.159   6.202   9.412 -1.0465  2.3066  1.9135
  138SAPE  C21015008   3.138   5.976   9.403  0.1733  0.3941 -0.0625
  138SAPE  H10R15009   3.121   5.895   9.476  3.0132  0.7317  1.0771
  138SAPE  H10S15010   3.241   5.954   9.369  1.2455  1.8793  1.9992
  138SAPE  C21115011   3.039   5.974   9.283 -0.1345 -0.4467 -0.2690
  138SAPE  H11R15012   3.083   6.013   9.190  2.6528  1.9812  1.8672
  138SAPE  C21215013   2.910   5.939   9.291  0.6258  0.0623 -0.4085
  138SAPE  H12R15014   2.859   5.926   9.195  2.8895 -0.4703 -1.6066
  138SAPE  C21315015   2.833   5.911   9.423 -0.5222  0.0723  0.8149
  138SAPE  H13R15016   2.894   5.935   9.513  2.0636  0.4976 -0.9232
  138SAPE  H13S15017   2.822   5.801   9.414  0.3762  0.0326 -0.0426
  138SAPE  C21415018   2.700   5.973   9.413  0.3074  0.6781  0.6454
  138SAPE  H14R15019   2.691   6.058   9.482 -0.5565  1.0998  0.0332
  138SAPE  C21515020   2.590   5.932   9.350 -0.2630  0.2980 -0.0319
  138SAPE  H15R15021   2.501   5.998   9.348  0.3088  1.0927  0.2911
  138SAPE  C21615022   2.568   5.813   9.259  0.0166 -0.2269 -0.2175
  138SAPE  H16R15023   2.666   5.764   9.243  0.0624 -0.6136  1.1455
  138SAPE  H16S15024   2.527   5.845   9.161 -0.1425 -2.0299 -0.7707
  138SAPE  C21715025   2.478   5.704   9.320 -0.1279  0.7225  1.2263
  138SAPE  H17R15026   2.476   5.623   9.244 -2.3744 -0.3222  2.3093
  138SAPE  H17S15027   2.377   5.750   9.329  0.1716  1.5071  0.7549
  138SAPE  C21815028   2.524   5.644   9.457  0.0418 -0.5594  0.3059
  138SAPE  H18R15029   2.634   5.656   9.468 -0.2213  1.1689  1.5264
  138SAPE  H18S15030   2.504   5.535   9.454  0.1714 -0.6090  1.1544
  138SAPE  C21915031   2.441   5.704   9.571  0.1858  0.6161 -0.6970
  138SAPE  H19R15032   2.334   5.697   9.541  0.6515  1.1904 -2.6559
  138SAPE  H19S15033   2.468   5.812   9.572 -2.2588  1.3139  1.6962
  138SAPE  C22015034   2.452   5.648   9.713  0.0453  0.7687  0.1972
  138SAPE  H20R15035   2.366   5.683   9.773  0.0905  0.5154  0.4119
  138SAPE  H20S15036   2.546   5.688   9.756 -0.3812  1.5395  0.4378
  138SAPE  H20T15037   2.448   5.537   9.708 -0.5944  0.8331 -2.3695
  138SAPE   C3315038   2.658   5.956   9.967  0.0005 -0.4895  1.0550
  138SAPE   H3X15039   2.612   6.057   9.962  1.6586  0.3082  1.4346
  138SAPE   H3Y15040   2.624   5.906   9.874 -0.3885  3.1571 -0.9666
  138SAPE   C3415041   2.810   5.956   9.959 -0.0246 -0.9734  0.9191
  138SAPE   H4X15042   2.841   6.048  10.012  1.8549 -0.7847 -0.4113
  138SAPE   H4Y15043   2.851   5.968   9.856 -0.4476 -0.3521  0.8157
  138SAPE   C3515044   2.886   5.842  10.022 -0.5421 -0.9431 -0.2500
  138SAPE   H5X15045   2.842   5.831  10.123  0.8193  1.3166  0.6750
  138SAPE   H5Y15046   2.990   5.877  10.040 -0.8902 -0.1637  0.2804
  138SAPE   C3615047   2.899   5.707   9.941  0.4289  0.4903  0.0185
  138SAPE   H6X15048   2.794   5.673   9.928  0.3731  0.2123  1.1008
  138SAPE   H6Y15049   2.947   5.624   9.996 -0.3459  0.1603  0.2121
  138SAPE   C3715050   2.950   5.721   9.801 -0.8408  0.1237 -0.5523
  138SAPE   H7X15051   3.051   5.765   9.819 -1.6817  1.0571  2.2800
  138SAPE   H7Y15052   2.895   5.782   9.726 -1.4618 -1.3057 -1.3081
  138SAPE   C3815053   2.945   5.582   9.738 -0.2257 -0.2410 -0.3035
  138SAPE   H8X15054   2.841   5.544   9.749 -0.7140  0.6074 -1.6786
  138SAPE   H8Y15055   3.027   5.524   9.786  1.4296 -0.4996 -3.2148
  138SAPE   C3915056   2.950   5.569   9.583 -0.5389  0.1986 -0.7316
  138SAPE   H9X15057   3.041   5.611   9.533 -0.5961  0.4090 -0.6608
  138SAPE   H9Y15058   2.864   5.622   9.536 -0.9382 -0.2431 -0.5018
  138SAPE  C31015059   2.952   5.421   9.547  0.3597 -0.3086 -0.1213
  138SAPE  H10X15060   2.862   5.376   9.596 -2.0027  1.5962 -2.4148
  138SAPE  H10Y15061   3.053   5.384   9.575  0.0594 -2.3715 -1.6355
  138SAPE  C31115062   2.952   5.393   9.395 -0.1671  0.0718 -0.6107
  138SAPE  H11X15063   2.934   5.284   9.378 -1.8896 -0.0332  1.4885
  138SAPE  H11Y15064   3.047   5.418   9.342  0.4710 -1.6285 -0.3633
  138SAPE  C31215065   2.839   5.468   9.322  0.7117 -0.2353 -0.0681
  138SAPE  H12X15066   2.865   5.575   9.314 -1.2723  0.2293 -0.9297
  138SAPE  H12Y15067   2.742   5.447   9.372  0.5401 -1.3934 -0.8451
  138SAPE  C31315068   2.824   5.420   9.178  0.2867  0.4409 -0.1109
  138SAPE  H13X15069   2.860   5.315   9.177  1.6763  0.8924 -0.3901
  138SAPE  H13Y15070   2.888   5.488   9.118  1.0442  1.0717  1.3734
  138SAPE  C31415071   2.678   5.419   9.135 -0.1229  0.0365 -0.0202
  138SAPE  H14X15072   2.603   5.477   9.193 -1.9561  0.1481 -2.3569
  138SAPE  H14Y15073   2.639   5.316   9.150 -0.3437 -0.0947 -1.3932
  138SAPE  C31515074   2.657   5.458   8.990  0.3089  0.1659  0.6884
  138SAPE  H15X15075   2.680   5.566   8.976 -1.2581  0.4685  0.2229
  138SAPE  H15Y15076   2.556   5.435   8.948  0.4972 -0.5631  0.6102
  138SAPE  C31615077   2.750   5.379   8.896 -0.0843 -0.0747 -0.5694
  138SAPE  H16X15078   2.741   5.270   8.915 -0.3846  0.2314  1.2339
  138SAPE  H16Y15079   2.857   5.405   8.915 -0.2074 -0.9649  1.5694
  138SAPE  C31715080   2.733   5.401   8.744  0.0940  0.2570 -0.4674
  138SAPE  H17X15081   2.743   5.508   8.716 -1.0523  0.5646  0.2414
  138SAPE  H17Y15082   2.629   5.364   8.732 -0.6598  1.5561  1.4417
  138SAPE  C31815083   2.838   5.315   8.662 -0.2117  0.3896  0.0432
  138SAPE  H18X15084   2.941   5.352   8.682 -0.2804  0.5373  0.1226
  138SAPE  H18Y15085   2.827   5.303   8.552  0.0778 -1.3964  0.1781
  138SAPE  H18Z15086   2.842   5.215   8.712  3.8681  1.3587  2.0770
  139SAPE     N15087   1.816   4.340  11.005 -0.5848 -0.0484 -0.0238
  139SAPE   HN115088   1.723   4.299  10.985 -1.3168  1.4647  0.1603
  139SAPE   HN215089   1.827   4.357  11.108 -0.6142 -0.9157  0.1269
  139SAPE   HN315090   1.809   4.438  10.971  2.1822  1.2413  2.5714
  139SAPE   C1215091   1.925   4.277  10.934 -0.5814 -0.0195  0.1978
  139SAPE  H12A15092   1.936   4.178  10.982 -0.7937  0.3434  1.0095
  139SAPE  H12B15093   2.020   4.330  10.957  0.4310 -1.6417 -0.1542
  139SAPE   C1115094   1.918   4.264  10.781 -0.2792 -0.4935 -0.3293
  139SAPE  H11A15095   1.830   4.199  10.761 -0.4310 -0.6308  0.7398
  139SAPE  H11B15096   2.013   4.214  10.754  0.4410 -0.8098  2.5283
  139SAPE     P15097   1.916   4.408  10.575  0.0159 -0.1659 -0.0796
  139SAPE   O1315098   1.814   4.325  10.510 -0.3693 -0.1213  0.3328
  139SAPE   O1415099   1.920   4.554  10.551 -0.0545 -0.0946  0.1599
  139SAPE   O1215100   1.896   4.395  10.728 -0.1106 -0.0245  0.2969
  139SAPE   O1115101   2.064   4.354  10.547 -0.1113 -0.0176 -0.2210
  139SAPE    C115102   2.070   4.238  10.466  0.2195 -0.5600  0.9050
  139SAPE    HA15103   2.144   4.171  10.514  2.0460  0.8508  0.2136
  139SAPE    HB15104   1.977   4.177  10.458 -0.9172  0.9208  2.1521
  139SAPE    C215105   2.113   4.264  10.315 -0.3528  0.3483 -0.2464
  139SAPE    HS15106   2.218   4.301  10.316  0.7546 -2.5234  0.7173
  139SAPE   O2115107   2.033   4.364  10.246  0.6404 -0.5358  0.5263
  139SAPE   C2115108   2.078   4.419  10.131  0.5015 -0.3773 -0.4307
  139SAPE   O2215109   2.195   4.412  10.097  0.1220  0.2239  0.2528
  139SAPE   C2215110   1.974   4.492  10.049  0.6530 -0.0268 -0.4716
  139SAPE   H2R15111   1.916   4.416   9.993  2.2793 -1.6925  0.0091
  139SAPE   H2S15112   1.920   4.538  10.134  3.5002 -2.0409  2.7122
  139SAPE    C315113   2.134   4.132  10.226  0.0744 -0.3387 -0.0288
  139SAPE    HX15114   2.196   4.156  10.138 -1.2576 -0.8239 -1.1365
  139SAPE    HY15115   2.033   4.100  10.193 -0.8306  0.1088  2.1437
  139SAPE   O3115116   2.193   4.022  10.298 -0.3120  0.3798 -0.4289
  139SAPE   C3115117   2.243   3.924  10.221 -0.0419  0.3323 -0.1098
  139SAPE   O3215118   2.248   3.925  10.099 -0.0161  0.4787 -0.1632
  139SAPE   C3215119   2.286   3.813  10.312 -0.7530 -0.0611 -0.6659
  139SAPE   H2X15120   2.194   3.757  10.341 -2.2262  2.0546 -1.0724
  139SAPE   H2Y15121   2.317   3.865  10.406 -2.2924  0.0461 -0.1845
  139SAPE   C2315122   2.034   4.597   9.958  0.7960 -0.0196  0.0251
  139SAPE   H3R15123   2.108   4.648  10.024  1.7288 -3.1284  1.5862
  139SAPE   H3S15124   1.954   4.668   9.929  0.7862  0.4553  1.1346
  139SAPE   C2415125   2.109   4.550   9.827  0.6608  0.0634 -0.3225
  139SAPE   H4R15126   2.193   4.480   9.849  1.3025 -0.3359 -3.6120
  139SAPE   H4S15127   2.174   4.632   9.790 -0.0599  1.2910  1.0303
  139SAPE   C2515128   2.019   4.491   9.728 -0.1026 -0.4923  1.0664
  139SAPE   H5R15129   1.969   4.397   9.756 -0.1325  0.0716  2.9957
  139SAPE   C2615130   1.996   4.547   9.605 -0.3474 -0.0718 -0.2689
  139SAPE   H6R15131   1.916   4.497   9.549 -0.3138 -0.7526  0.2715
  139SAPE   C2715132   2.036   4.676   9.545 -0.4694 -0.2546 -0.6265
  139SAPE   H7R15133   2.144   4.686   9.565  0.0836 -3.3605 -1.5069
  139SAPE   H7S15134   1.981   4.765   9.583  2.0805  0.7635  0.9175
  139SAPE   C2815135   2.024   4.679   9.389 -0.0073  0.8300 -0.7419
  139SAPE   H8R15136   2.102   4.618   9.341 -1.7185  0.3511 -3.0534
  139SAPE   C2915137   1.940   4.746   9.309  0.3602 -0.1422 -0.0881
  139SAPE   H9R15138   1.933   4.723   9.202  2.2037 -0.0679 -0.2598
  139SAPE  C21015139   1.838   4.838   9.359  0.3765  0.5452  0.1426
  139SAPE  H10R15140   1.878   4.914   9.430  0.6500 -0.1639  0.7579
  139SAPE  H10S15141   1.769   4.777   9.422  1.1434  1.9287  2.4258
  139SAPE  C21115142   1.751   4.901   9.253  0.1647 -0.8306  0.1754
  139SAPE  H11R15143   1.644   4.877   9.252 -0.0304 -0.2347 -3.0373
  139SAPE  C21215144   1.783   4.993   9.155 -0.1034 -0.1262 -0.5358
  139SAPE  H12R15145   1.701   5.033   9.092 -2.3532 -1.8773  1.0984
  139SAPE  C21315146   1.921   5.050   9.126  0.4068 -0.7198  0.0882
  139SAPE  H13R15147   2.003   4.997   9.179  2.0255  2.9303  1.5902
  139SAPE  H13S15148   1.931   5.153   9.168  1.1040 -0.5752 -0.4124
  139SAPE  C21415149   1.937   5.047   8.976  0.0552 -0.5014  0.5012
  139SAPE  H14R15150   1.967   4.946   8.943 -1.3682 -1.0915  0.9238
  139SAPE  C21515151   1.874   5.125   8.888 -0.8146  0.4858  0.5194
  139SAPE  H15R15152   1.905   5.112   8.783 -1.1590  0.4700  0.4165
  139SAPE  C21615153   1.796   5.248   8.914 -0.2732  0.5900 -0.4526
  139SAPE  H16R15154   1.852   5.339   8.885  2.4449 -0.7252  0.3866
  139SAPE  H16S15155   1.771   5.259   9.022 -1.9244  0.8572 -0.8307
  139SAPE  C21715156   1.652   5.254   8.853  0.1483 -0.2335  0.4647
  139SAPE  H17R15157   1.597   5.170   8.901  1.3603 -1.2340  0.1676
  139SAPE  H17S15158   1.650   5.230   8.744  0.2788 -0.7220  0.5662
  139SAPE  C21815159   1.586   5.389   8.879  0.4830 -0.6207 -0.0896
  139SAPE  H18R15160   1.625   5.460   8.802 -0.3540 -0.3925 -0.3171
  139SAPE  H18S15161   1.610   5.433   8.978  3.2413  0.0818 -0.9902
  139SAPE  C21915162   1.436   5.381   8.865  0.1939 -0.2330  0.5336
  139SAPE  H19R15163   1.391   5.476   8.898  3.3532  1.5075  0.2917
  139SAPE  H19S15164   1.404   5.297   8.930  0.7364  0.2243  1.4092
  139SAPE  C22015165   1.390   5.333   8.724 -0.3849 -0.6746 -0.1957
  139SAPE  H20R15166   1.287   5.292   8.736 -1.0408  1.3350  1.6060
  139SAPE  H20S15167   1.455   5.245   8.701 -1.5455 -1.9777  1.2201
  139SAPE  H20T15168   1.396   5.419   8.655  2.2644  2.1554  3.1937
  139SAPE   C3315169   2.402   3.727  10.269  0.3326  0.7625 -0.5474
  139SAPE   H3X15170   2.454   3.669  10.349 -0.7601 -0.1615 -0.4876
  139SAPE   H3Y15171   2.472   3.796  10.218  0.9848 -0.5789 -1.5542
  139SAPE   C3415172   2.375   3.623  10.157 -0.0312 -0.6158  0.0928
  139SAPE   H4X15173   2.470   3.580  10.119  0.1913 -0.0898  0.0312
  139SAPE   H4Y15174   2.323   3.668  10.069 -0.8175 -0.1980  0.7507
  139SAPE   C3515175   2.281   3.511  10.212 -0.6937 -0.2051 -0.0195
  139SAPE   H5X15176   2.180   3.550  10.233 -0.1820  1.7945 -1.0241
  139SAPE   H5Y15177   2.319   3.467  10.307 -2.9549 -0.3821  0.8653
  139SAPE   C3615178   2.267   3.393  10.113 -0.0963  0.4818  0.0067
  139SAPE   H6X15179   2.217   3.428  10.020  2.3304  0.9393 -1.2089
  139SAPE   H6Y15180   2.207   3.322  10.174  0.2846  1.1146  1.1414
  139SAPE   C3715181   2.401   3.323  10.083  0.1274  0.5067  0.0491
  139SAPE   H7X15182   2.453   3.320  10.182 -1.1946 -0.7525  0.7406
  139SAPE   H7Y15183   2.455   3.384  10.008 -0.3208  1.8323  0.7777
  139SAPE   C3815184   2.377   3.174  10.041  0.6851 -0.7274 -0.2227
  139SAPE   H8X15185   2.348   3.120  10.134  2.0969 -2.6573 -0.8228
  139SAPE   H8Y15186   2.476   3.131  10.012  0.7719 -0.9149  0.3464
  139SAPE   C3915187   2.264   3.156   9.938  0.7371  0.3098  0.3041
  139SAPE   H9X15188   2.293   3.221   9.852  3.7170  0.4959  1.3236
  139SAPE   H9Y15189   2.160   3.179   9.968  1.2733  0.2589  2.3172
  139SAPE  C31015190   2.261   3.014   9.883 -0.7397 -0.0473 -0.4424
  139SAPE  H10X15191   2.241   2.937   9.961  0.6442 -0.2983 -0.3042
  139SAPE  H10Y15192   2.363   2.991   9.846  0.0588  0.6215  1.2258
  139SAPE  C31115193   2.151   2.996   9.782 -0.5789  0.3453  0.5145
  139SAPE  H11X15194   2.048   3.014   9.819 -2.5099 -2.2184 -2.9284
  139SAPE  H11Y15195   2.149   2.885   9.771  0.8065  0.2125  1.4535
  139SAPE  C31215196   2.186   3.060   9.643 -0.2774  0.0266 -0.2666
  139SAPE  H12X15197   2.188   3.169   9.668 -1.3845 -0.2514  1.1742
  139SAPE  H12Y15198   2.097   3.055   9.576 -0.2526  2.4427 -0.6007
  139SAPE  C31315199   2.305   2.998   9.569  0.2897  0.2080 -0.1327
  139SAPE  H13X15200   2.292   2.888   9.570  1.1490  0.0976 -0.4221
  139SAPE  H13Y15201   2.399   3.035   9.616  1.1373 -1.6941 -0.2323
  139SAPE  C31415202   2.304   3.048   9.422  0.7459 -0.6563 -0.5880
  139SAPE  H14X15203   2.198   3.069   9.395  0.3504 -1.0987  0.5206
  139SAPE  H14Y15204   2.335   2.965   9.356 -0.9832  0.6102 -3.1843
  139SAPE  C31515205   2.384   3.174   9.403  1.0863  0.6168 -0.0878
  139SAPE  H15X15206   2.495   3.174   9.407  1.0686  0.8726  0.7227
  139SAPE  H15Y15207   2.350   3.235   9.489 -2.4856 -3.0186  1.4007
  139SAPE  C31615208   2.348   3.241   9.273 -0.3302  0.0084 -0.0672
  139SAPE  H16X15209   2.386   3.185   9.185  0.1762  0.0364  0.1324
  139SAPE  H16Y15210   2.238   3.245   9.258 -0.9312  1.5974  3.6547
  139SAPE  C31715211   2.397   3.379   9.253  0.4692 -0.4181 -0.4244
  139SAPE  H17X15212   2.506   3.370   9.269  0.4724  1.8949  1.4378
  139SAPE  H17Y15213   2.356   3.448   9.330  1.3302  0.2826 -0.5858
  139SAPE  C31815214   2.383   3.450   9.116 -0.0804  0.0425 -0.3198
  139SAPE  H18X15215   2.414   3.557   9.122  1.8509 -0.5201  0.2828
  139SAPE  H18Y15216   2.275   3.451   9.088  0.4283  0.5509 -2.3781
  139SAPE  H18Z15217   2.441   3.403   9.034 -0.7564  0.6340 -1.1568
  140SAPE     N15218   5.478   0.910  11.165  0.0681  0.7616  0.6311
  140SAPE   HN115219   5.569   0.913  11.116  1.1939 -1.2758  2.4043
  140SAPE   HN215220   5.418   0.988  11.131  0.5110  0.0221 -2.0866
  140SAPE   HN315221   5.489   0.906  11.268  0.1473 -0.3903  0.5968
  140SAPE   C1215222   5.386   0.798  11.133  0.8187  0.2994  0.7312
  140SAPE  H12A15223   5.406   0.773  11.027 -2.2378  0.9344 -0.0724
  140SAPE  H12B15224   5.280   0.828  11.142  0.3735  0.4448 -3.2728
  140SAPE   C1115225   5.398   0.664  11.215  0.0749 -0.3757 -0.0757
  140SAPE  H11A15226   5.329   0.584  11.181 -0.7896 -0.8046  2.4393
  140SAPE  H11B15227   5.366   0.683  11.320  0.1010 -0.6826 -0.0108
  140SAPE     P15228   5.582   0.520  11.086 -0.1712  0.1853 -0.0590
  140SAPE   O1315229   5.711   0.565  11.032 -0.1776 -0.1509  0.3580
  140SAPE   O1415230   5.582   0.387  11.146  0.0172 -0.5885  0.4071
  140SAPE   O1215231   5.530   0.616  11.203 -0.1689 -0.0586 -0.2390
  140SAPE   O1115232   5.477   0.524  10.978  0.6988  0.0271 -0.2773
  140SAPE    C115233   5.434   0.414  10.898 -0.3071 -0.4076 -0.4405
  140SAPE    HA15234   5.520   0.348  10.873 -0.3026 -1.6266  2.4853
  140SAPE    HB15235   5.360   0.346  10.946  2.0393 -2.6051  0.3082
  140SAPE    C215236   5.368   0.481  10.769 -0.3197  0.1123 -0.2721
  140SAPE    HS15237   5.347   0.404  10.692 -1.4228  2.3149 -2.3075
  140SAPE   O2115238   5.461   0.584  10.720 -0.2508 -0.8136  0.0923
  140SAPE   C2115239   5.573   0.539  10.665 -0.7730  0.1646 -0.2585
  140SAPE   O2215240   5.604   0.419  10.651  0.0823 -0.1680 -0.0093
  140SAPE   C2215241   5.670   0.646  10.611  0.2885 -0.1731  1.2383
  140SAPE   H2R15242   5.624   0.745  10.589 -0.2052 -0.7421 -0.4173
  140SAPE   H2S15243   5.751   0.659  10.685  0.2965  0.5606  1.1116
  140SAPE    C315244   5.229   0.547  10.800 -0.2545  0.5685 -0.4794
  140SAPE    HX15245   5.254   0.637  10.860 -1.6275  0.6438  0.0150
  140SAPE    HY15246   5.165   0.488  10.869 -0.4873  1.6677  0.2572
  140SAPE   O3115247   5.166   0.577  10.669 -0.0885 -0.4444 -0.0212
  140SAPE   C3115248   5.178   0.703  10.636 -0.2258 -0.2973  0.2301
  140SAPE   O3215249   5.231   0.793  10.700  0.2205 -0.2380 -0.1742
  140SAPE   C3215250   5.104   0.732  10.506 -0.1941 -0.4026  0.1254
  140SAPE   H2X15251   5.084   0.842  10.504 -0.7089 -0.4994 -0.0328
  140SAPE   H2Y15252   5.008   0.676  10.505  0.8400 -2.2760 -1.9224
  140SAPE   C2315253   5.742   0.603  10.474  0.7535  0.7975 -0.8128
  140SAPE   H3R15254   5.789   0.507  10.503  0.2236  1.0222  0.9773
  140SAPE   H3S15255   5.820   0.671  10.435  1.5699 -1.1587 -2.7444
  140SAPE   C2415256   5.646   0.569  10.360 -0.1223  0.4620  0.5218
  140SAPE   H4R15257   5.573   0.494  10.398 -1.4848  1.0675 -0.8149
  140SAPE   H4S15258   5.707   0.527  10.277  0.9320  1.4112  0.7914
  140SAPE   C2515259   5.567   0.691  10.305  0.0608  0.3150  0.2045
  140SAPE   H5R15260   5.525   0.762  10.377 -2.6820 -0.8264 -0.1561
  140SAPE   C2615261   5.544   0.704  10.172 -0.0299  0.2784  0.8173
  140SAPE   H6R15262   5.490   0.798  10.150  1.4587  1.3036  1.4003
  140SAPE   C2715263   5.584   0.597  10.065  0.0433 -0.5364  0.2638
  140SAPE   H7R15264   5.603   0.497  10.111 -0.0030 -0.7937 -0.2775
  140SAPE   H7S15265   5.682   0.626  10.022  1.5784 -1.6596  2.7571
  140SAPE   C2815266   5.481   0.579   9.956 -0.2630 -0.0479  0.2895
  140SAPE   H8R15267   5.382   0.542   9.987 -0.5268 -0.8491 -1.3954
  140SAPE   C2915268   5.502   0.598   9.823 -0.0699  0.0817  0.1297
  140SAPE   H9R15269   5.424   0.578   9.749  0.7527  0.8772 -0.9813
  140SAPE  C21015270   5.624   0.660   9.756  0.2413  0.1732 -0.3641
  140SAPE  H10R15271   5.714   0.656   9.820 -0.2575 -0.3629  0.3102
  140SAPE  H10S15272   5.600   0.768   9.745 -1.0059  0.0317  0.7500
  140SAPE  C21115273   5.644   0.597   9.619 -0.2715 -0.7361 -0.0608
  140SAPE  H11R15274   5.732   0.532   9.607  0.7217  0.7988 -1.6687
  140SAPE  C21215275   5.575   0.626   9.507  0.0242 -0.4577  0.3717
  140SAPE  H12R15276   5.592   0.564   9.418  0.1831  0.6883 -0.4198
  140SAPE  C21315277   5.456   0.722   9.484 -0.4977  0.2039 -0.3319
  140SAPE  H13R15278   5.458   0.795   9.568 -0.2956 -0.3137  0.1235
  140SAPE  H13S15279   5.359   0.670   9.494 -0.0009 -0.5972  0.4386
  140SAPE  C21415280   5.441   0.800   9.359 -0.2472  0.3197  0.0701
  140SAPE  H14R15281   5.451   0.909   9.361 -2.7592  0.6095 -0.1462
  140SAPE  C21515282   5.412   0.748   9.239  0.0124 -0.3082  0.2205
  140SAPE  H15R15283   5.395   0.812   9.152  1.7202 -0.0279  0.0509
  140SAPE  C21615284   5.379   0.606   9.211 -0.5233 -1.1317 -0.2157
  140SAPE  H16R15285   5.275   0.612   9.172  0.4054  0.1317 -2.7783
  140SAPE  H16S15286   5.373   0.548   9.305  0.2842  0.0313  0.5716
  140SAPE  C21715287   5.477   0.535   9.115  0.1465  0.0198 -0.6888
  140SAPE  H17R15288   5.448   0.429   9.095  2.6740 -0.9672  0.3133
  140SAPE  H17S15289   5.577   0.525   9.163  1.1322  0.0029 -2.6190
  140SAPE  C21815290   5.502   0.599   8.972  0.1130 -0.3856  0.1814
  140SAPE  H18R15291   5.593   0.551   8.932  2.1171  2.3814  1.1422
  140SAPE  H18S15292   5.525   0.705   8.993  3.7692 -1.1231  0.4273
  140SAPE  C21915293   5.385   0.593   8.859 -0.2789  0.3140 -0.1637
  140SAPE  H19R15294   5.411   0.654   8.769  1.2672 -0.4747 -0.2674
  140SAPE  H19S15295   5.302   0.653   8.902  0.2244  1.3820 -0.6465
  140SAPE  C22015296   5.332   0.457   8.814  0.6153  0.9516  0.0345
  140SAPE  H20R15297   5.230   0.465   8.771  0.6160 -0.8698 -0.3677
  140SAPE  H20S15298   5.324   0.383   8.896 -1.9239  0.0941 -0.9064
  140SAPE  H20T15299   5.397   0.411   8.736 -1.1523  0.5287 -1.2392
  140SAPE   C3315300   5.170   0.716  10.369 -0.3626 -0.6859  0.2386
  140SAPE   H3X15301   5.205   0.612  10.349  1.3651  0.2115 -1.8637
  140SAPE   H3Y15302   5.256   0.786  10.358 -0.8141 -0.1307  0.1935
  140SAPE   C3415303   5.074   0.742  10.253 -0.1634  0.3117 -0.1844
  140SAPE   H4X15304   5.023   0.838  10.275 -2.0081 -1.2079  2.7575
  140SAPE   H4Y15305   4.990   0.669  10.256 -0.7606  0.9905 -0.2188
  140SAPE   C3515306   5.139   0.752  10.120  0.1001  0.3974 -0.6505
  140SAPE   H5X15307   5.208   0.668  10.098  0.6792  1.0050 -1.1884
  140SAPE   H5Y15308   5.195   0.846  10.101  1.2492 -0.4467 -1.6771
  140SAPE   C3615309   5.038   0.745  10.001  0.7874 -0.3512 -0.0877
  140SAPE   H6X15310   4.959   0.821  10.020 -1.0606 -1.6668 -2.0750
  140SAPE   H6Y15311   4.978   0.652  10.000  0.5680 -0.2134  0.0200
  140SAPE   C3715312   5.111   0.761   9.867 -0.4233  0.7608 -0.5960
  140SAPE   H7X15313   5.180   0.674   9.863 -2.5237 -0.9414 -2.4112
  140SAPE   H7Y15314   5.173   0.852   9.859 -0.1984  0.7974  1.2924
  140SAPE   C3815315   5.002   0.757   9.762 -0.1354 -0.3591 -0.6925
  140SAPE   H8X15316   4.951   0.854   9.746  1.3141  0.3186 -1.3858
  140SAPE   H8Y15317   4.918   0.687   9.785 -1.4033  0.9957 -1.0441
  140SAPE   C3915318   5.059   0.710   9.628  0.3796  0.1909  0.6526
  140SAPE   H9X15319   5.102   0.611   9.653  2.0744  0.5917 -0.4857
  140SAPE   H9Y15320   5.145   0.770   9.591  0.1084 -0.0711 -0.4389
  140SAPE  C31015321   4.964   0.685   9.515  0.1955  0.5545  0.8795
  140SAPE  H10X15322   4.908   0.778   9.489  0.0937  0.7559  1.7842
  140SAPE  H10Y15323   4.891   0.604   9.535  1.6935 -1.3373 -0.8970
  140SAPE  C31115324   5.037   0.629   9.386  0.1023  0.0970 -0.7304
  140SAPE  H11X15325   5.117   0.560   9.420  1.0994  0.7163 -1.7761
  140SAPE  H11Y15326   5.100   0.710   9.344  0.2247  0.3081 -0.1556
  140SAPE  C31215327   4.936   0.571   9.282  0.3591  0.7803 -0.7573
  140SAPE  H12X15328   4.865   0.649   9.246 -0.0783  0.8363  0.1805
  140SAPE  H12Y15329   4.879   0.484   9.321  1.2142  0.1785 -0.8377
  140SAPE  C31315330   5.011   0.506   9.165 -1.3598 -0.1968 -0.3732
  140SAPE  H13X15331   5.077   0.427   9.207 -0.5375 -0.0577 -1.3390
  140SAPE  H13Y15332   5.076   0.582   9.116 -2.7378  0.8802 -0.5679
  140SAPE  C31415333   4.910   0.468   9.057 -0.2286 -0.1007  0.1423
  140SAPE  H14X15334   4.879   0.560   9.003 -2.4580 -1.7020 -1.4812
  140SAPE  H14Y15335   4.819   0.419   9.096 -1.8014  1.0769 -1.8319
  140SAPE  C31515336   4.973   0.386   8.942 -0.8042  0.1254 -0.1135
  140SAPE  H15X15337   4.983   0.282   8.979  1.1153  0.9943  2.0402
  140SAPE  H15Y15338   5.071   0.421   8.903 -0.7928  0.3110  0.0798
  140SAPE  C31615339   4.891   0.371   8.814  0.5723 -0.2279 -0.1516
  140SAPE  H16X15340   4.961   0.320   8.744  0.5798  0.7040 -0.8466
  140SAPE  H16Y15341   4.870   0.467   8.763 -1.3017  0.4187  1.7073
  140SAPE  C31715342   4.751   0.301   8.831 -0.2022 -0.2884 -0.3824
  140SAPE  H17X15343   4.691   0.365   8.899 -0.9377  1.5633 -2.6319
  140SAPE  H17Y15344   4.758   0.200   8.876  0.2864  0.0428  0.2955
  140SAPE  C31815345   4.672   0.284   8.700  0.0985  0.1303  0.7382
  140SAPE  H18X15346   4.575   0.239   8.730 -0.8941  1.3748 -0.5095
  140SAPE  H18Y15347   4.732   0.228   8.624 -0.4049  0.7445 -0.1222
  140SAPE  H18Z15348   4.649   0.380   8.649 -1.7776 -0.2283  0.8379
  141SAPE     N15349   5.208   1.893  10.894  0.8020  0.9446  0.4814
  141SAPE   HN115350   5.216   1.994  10.918 -0.9346  1.0546  0.7532
  141SAPE   HN215351   5.263   1.872  10.809 -2.3108  0.3030 -1.5221
  141SAPE   HN315352   5.108   1.877  10.868  0.4096  1.5857  1.4919
  141SAPE   C1215353   5.254   1.806  11.013 -0.3466  0.1467  0.1844
  141SAPE  H12A15354   5.274   1.706  10.971  1.3278  1.1691 -1.6277
  141SAPE  H12B15355   5.169   1.802  11.084  0.1991 -0.6465  0.7991
  141SAPE   C1115356   5.379   1.876  11.066 -0.0311  0.1166  0.3819
  141SAPE  H11A15357   5.392   1.842  11.171  1.2206  1.8277  0.8099
  141SAPE  H11B15358   5.374   1.987  11.070 -3.7368  0.2170 -1.8754
  141SAPE     P15359   5.625   1.898  10.996  0.0560 -0.0439 -0.2679
  141SAPE   O1315360   5.688   1.953  10.874 -0.1137 -0.3115  0.3993
  141SAPE   O1415361   5.634   1.986  11.115 -0.1277  0.2697  1.1569
  141SAPE   O1215362   5.487   1.843  10.980  0.0671 -0.2537 -0.2995
  141SAPE   O1115363   5.704   1.762  11.039 -0.3824 -0.3496  0.0979
  141SAPE    C115364   5.640   1.637  11.071 -0.5175 -0.1485  0.2441
  141SAPE    HA15365   5.626   1.625  11.180 -2.0441 -0.3592  0.0558
  141SAPE    HB15366   5.542   1.628  11.018 -0.6365 -0.0095  0.4410
  141SAPE    C215367   5.739   1.523  11.025  0.4351 -0.0909  0.1714
  141SAPE    HS15368   5.830   1.544  11.084 -0.9561 -1.1460  2.8322
  141SAPE   O2115369   5.766   1.537  10.883 -0.2399  0.4786  0.2605
  141SAPE   C2115370   5.889   1.537  10.845  0.3034  0.5907  1.1110
  141SAPE   O2215371   5.990   1.509  10.907 -0.0518 -0.1588 -0.0821
  141SAPE   C2215372   5.898   1.565  10.694 -0.0470  0.2565  0.0463
  141SAPE   H2R15373   5.998   1.599  10.660  0.3214 -0.4036  0.4494
  141SAPE   H2S15374   5.880   1.468  10.641 -2.3208 -0.1737  1.4811
  141SAPE    C315375   5.683   1.386  11.059 -1.2497  0.4541 -0.0504
  141SAPE    HX15376   5.573   1.398  11.046 -1.2530  2.0330  1.0814
  141SAPE    HY15377   5.703   1.368  11.167  1.0711  1.6373 -0.2122
  141SAPE   O3115378   5.760   1.290  10.975  0.1234 -0.2668 -0.1019
  141SAPE   C3115379   5.680   1.230  10.882 -0.5531  0.4045 -0.6785
  141SAPE   O3215380   5.567   1.264  10.857 -0.1432 -0.2129 -0.2524
  141SAPE   C3215381   5.758   1.126  10.809  0.1465  0.0515  0.1490
  141SAPE   H2X15382   5.682   1.047  10.790  0.5275 -0.5239  0.9351
  141SAPE   H2Y15383   5.831   1.076  10.877  0.8959  1.5864  0.4994
  141SAPE   C2315384   5.791   1.673  10.650  0.1050  0.4090 -0.4805
  141SAPE   H3R15385   5.814   1.770  10.698 -0.2049 -0.1698  0.8723
  141SAPE   H3S15386   5.692   1.632  10.679  0.6095 -1.2428 -0.9700
  141SAPE   C2415387   5.811   1.689  10.495 -0.1813  0.0297 -0.1499
  141SAPE   H4R15388   5.915   1.719  10.470  0.9534 -3.3199  0.1092
  141SAPE   H4S15389   5.753   1.777  10.458 -0.2836  0.0010 -0.0577
  141SAPE   C2515390   5.775   1.565  10.420 -0.0593  0.0044  0.4117
  141SAPE   H5R15391   5.720   1.491  10.481 -0.3196 -0.5972 -0.5385
  141SAPE   C2615392   5.771   1.545  10.283 -0.2693  0.1771  0.8694
  141SAPE   H6R15393   5.712   1.458  10.250  0.9995 -0.6280  0.6501
  141SAPE   C2715394   5.804   1.640  10.170 -0.6410 -0.7224 -0.9948
  141SAPE   H7R15395   5.792   1.582  10.076 -1.6137 -3.8402  0.9033
  141SAPE   H7S15396   5.911   1.672  10.175 -0.3432 -1.6384 -1.3247
  141SAPE   C2815397   5.722   1.769  10.174  0.4652 -0.0421  0.2452
  141SAPE   H8R15398   5.672   1.791  10.270  2.4323 -1.6505  1.7246
  141SAPE   C2915399   5.719   1.854  10.074 -0.1575 -0.5382 -0.3569
  141SAPE   H9R15400   5.677   1.954  10.095  0.0005 -0.5210 -0.1195
  141SAPE  C21015401   5.784   1.823   9.941  0.7009 -0.5341  0.4318
  141SAPE  H10R15402   5.857   1.739   9.944 -0.2570 -1.6429 -2.9522
  141SAPE  H10S15403   5.849   1.909   9.914  1.3910 -0.5453  2.0158
  141SAPE  C21115404   5.666   1.792   9.846 -0.0279 -0.2776  0.0395
  141SAPE  H11R15405   5.602   1.709   9.879 -0.1795 -1.1734 -2.3291
  141SAPE  C21215406   5.614   1.869   9.752 -0.5085 -0.4023  0.4265
  141SAPE  H12R15407   5.528   1.829   9.696  0.6016 -2.1441 -0.1305
  141SAPE  C21315408   5.701   1.980   9.682  0.1488 -0.0226  0.3950
  141SAPE  H13R15409   5.793   1.922   9.661  0.2659  0.6044 -0.8783
  141SAPE  H13S15410   5.736   2.061   9.750 -0.0937  0.0068  0.4880
  141SAPE  C21415411   5.627   2.047   9.568  0.0439 -0.8059  0.2262
  141SAPE  H14R15412   5.564   2.131   9.602  1.1258 -0.3128  1.0431
  141SAPE  C21515413   5.633   2.022   9.437  0.3372  0.0893 -0.1422
  141SAPE  H15R15414   5.589   2.090   9.363 -0.8606  1.0185  1.3661
  141SAPE  C21615415   5.713   1.902   9.385 -0.3749 -0.2191  0.2470
  141SAPE  H16R15416   5.755   1.834   9.462  2.7592  0.3877 -0.7583
  141SAPE  H16S15417   5.810   1.938   9.344 -0.7117  3.1893  1.9917
  141SAPE  C21715418   5.647   1.819   9.277 -0.8309  0.0270  0.5837
  141SAPE  H17R15419   5.651   1.872   9.180  0.1383 -0.1140  0.5421
  141SAPE  H17S15420   5.541   1.788   9.292 -0.9394  0.5225  0.8370
  141SAPE  C21815421   5.727   1.689   9.268 -0.0374  0.0485  0.3829
  141SAPE  H18R15422   5.720   1.636   9.365  1.0063 -0.0825  0.3934
  141SAPE  H18S15423   5.831   1.726   9.258 -0.4476  1.9648  2.4565
  141SAPE  C21915424   5.675   1.591   9.162 -0.1089 -0.1503  0.7299
  141SAPE  H19R15425   5.690   1.630   9.060  0.2885 -1.1859  0.3736
  141SAPE  H19S15426   5.567   1.568   9.176 -0.1792  0.0905  0.5783
  141SAPE  C22015427   5.761   1.473   9.172  0.1785 -0.2931  0.1298
  141SAPE  H20R15428   5.737   1.402   9.090  1.1225 -0.7666  0.2534
  141SAPE  H20S15429   5.749   1.419   9.269  0.5731  2.2916  1.7209
  141SAPE  H20T15430   5.865   1.508   9.160 -0.2327  0.3165 -2.0509
  141SAPE   C3315431   5.820   1.172  10.678 -0.6173  0.0145  0.0599
  141SAPE   H3X15432   5.910   1.237  10.682  0.7523 -1.7236 -1.1204
  141SAPE   H3Y15433   5.745   1.238  10.631  0.0214  0.1606 -0.7717
  141SAPE   C3415434   5.866   1.053  10.594 -0.8710 -0.0513 -0.5081
  141SAPE   H4X15435   5.788   0.984  10.556 -1.6623 -0.8073  2.2843
  141SAPE   H4Y15436   5.931   0.985  10.653 -3.6532 -1.4337  1.1474
  141SAPE   C3515437   5.933   1.108  10.471  0.0732  0.6503  0.1480
  141SAPE   H5X15438   6.015   1.177  10.501 -0.8444  1.1643  1.5758
  141SAPE   H5Y15439   5.861   1.163  10.405  0.6578 -0.8156 -1.7880
  141SAPE   C3615440   6.003   0.999  10.384  0.1313 -0.2893 -0.5572
  141SAPE   H6X15441   6.024   0.922  10.461 -2.6623  1.0341  1.7235
  141SAPE   H6Y15442   6.101   1.035  10.347 -1.0835  2.8978 -1.0320
  141SAPE   C3715443   5.926   0.937  10.272  0.5392 -0.2539  0.1110
  141SAPE   H7X15444   5.914   1.011  10.189  0.5160 -0.1161  0.2369
  141SAPE   H7Y15445   5.829   0.897  10.308 -0.2810  1.0486 -0.5706
  141SAPE   C3815446   6.007   0.819  10.210  0.2838  0.2245 -0.7078
  141SAPE   H8X15447   5.936   0.766  10.144  1.3884  0.3326 -2.0167
  141SAPE   H8Y15448   6.045   0.754  10.292 -0.3989 -0.1845 -0.7126
  141SAPE   C3915449   6.122   0.865  10.125  0.0564  0.4106 -0.2661
  141SAPE   H9X15450   6.176   0.770  10.106  2.8142  1.7111  0.5841
  141SAPE   H9Y15451   6.204   0.917  10.178 -1.4395  1.5477  1.0342
  141SAPE  C31015452   6.099   0.929   9.990  0.4818  0.0459  0.1359
  141SAPE  H10X15453   6.191   0.974   9.950  0.4172  0.4625  0.4468
  141SAPE  H10Y15454   6.022   1.009   9.995 -1.3082 -1.4466 -1.7151
  141SAPE  C31115455   6.049   0.819   9.892 -0.0909 -0.2514 -0.4688
  141SAPE  H11X15456   5.993   0.737   9.944  1.2155 -1.1985 -0.5063
  141SAPE  H11Y15457   6.146   0.779   9.855  0.8352  0.7136  0.8400
  141SAPE  C31215458   5.970   0.878   9.776  0.0348 -0.1439 -0.0426
  141SAPE  H12X15459   5.999   0.984   9.764  0.2581 -0.0590  1.1681
  141SAPE  H12Y15460   5.861   0.875   9.799  0.1796 -0.8469  0.6224
  141SAPE  C31315461   5.995   0.822   9.637  0.4821  0.1518 -0.5128
  141SAPE  H13X15462   5.965   0.715   9.635  0.1421  0.2076  0.6459
  141SAPE  H13Y15463   6.101   0.822   9.604  0.4772 -1.8333 -0.6553
  141SAPE  C31415464   5.910   0.887   9.532  0.5056  0.2541 -0.6843
  141SAPE  H14X15465   5.913   0.998   9.544  2.3528  0.0073  1.9272
  141SAPE  H14Y15466   5.806   0.859   9.560  0.8914 -0.4933  0.0308
  141SAPE  C31515467   5.937   0.844   9.383  0.3171  0.5770 -0.0314
  141SAPE  H15X15468   6.037   0.863   9.339 -0.5078 -0.6052 -2.6744
  141SAPE  H15Y15469   5.872   0.902   9.314  0.4698 -0.1328 -0.7868
  141SAPE  C31615470   5.904   0.694   9.355 -0.0636  0.0005  0.1832
  141SAPE  H16X15471   5.799   0.675   9.386 -0.6321 -0.2901 -1.7835
  141SAPE  H16Y15472   5.974   0.645   9.425  0.8854  1.6280  0.4375
  141SAPE  C31715473   5.939   0.636   9.217 -0.0688 -0.3195  0.1555
  141SAPE  H17X15474   6.043   0.655   9.181  0.6434 -1.2021  1.6691
  141SAPE  H17Y15475   5.874   0.679   9.137  0.3483  2.2092  1.0968
  141SAPE  C31815476   5.921   0.478   9.221 -0.6460 -0.1719  0.2695
  141SAPE  H18X15477   5.819   0.456   9.258 -1.0229 -0.7741 -1.1087
  141SAPE  H18Y15478   6.001   0.442   9.289  1.2598  1.2454 -1.1079
  141SAPE  H18Z15479   5.936   0.431   9.122  0.6681 -0.2412  0.4801
  142SAPE     N15480   6.328   0.841  11.512 -0.5346 -0.1982  0.2259
  142SAPE   HN115481   6.398   0.865  11.586  0.7016 -1.3922 -0.5144
  142SAPE   HN215482   6.350   0.901  11.430  1.7788 -1.1911  0.0614
  142SAPE   HN315483   6.230   0.860  11.542 -0.8614 -1.8083  0.2658
  142SAPE   C1215484   6.345   0.698  11.467 -0.1819 -0.0496 -1.1468
  142SAPE  H12A15485   6.339   0.630  11.555 -1.9094  4.1586  2.3526
  142SAPE  H12B15486   6.443   0.691  11.413  0.3895 -1.2589 -0.0102
  142SAPE   C1115487   6.239   0.660  11.361  0.3874 -0.5403 -0.5520
  142SAPE  H11A15488   6.138   0.654  11.409 -0.3796  0.9554 -1.9127
  142SAPE  H11B15489   6.272   0.563  11.318  0.6053 -0.7571  0.0910
  142SAPE     P15490   6.134   0.742  11.145  0.0071  0.1829 -0.4807
  142SAPE   O1315491   6.003   0.719  11.213 -0.5496 -0.2206  0.9006
  142SAPE   O1415492   6.147   0.850  11.044  0.0036  0.3715  0.2656
  142SAPE   O1215493   6.235   0.763  11.260 -0.2898  0.4107 -0.4052
  142SAPE   O1115494   6.174   0.614  11.072  0.0923 -0.3650 -0.3853
  142SAPE    C115495   6.302   0.563  11.025 -0.8712  0.1487  0.8115
  142SAPE    HA15496   6.385   0.608  11.084 -1.3839  0.8274  1.0243
  142SAPE    HB15497   6.302   0.452  11.022  0.3184  0.1416 -2.5052
  142SAPE    C215498   6.331   0.602  10.876 -0.6284 -0.3438  0.8189
  142SAPE    HS15499   6.326   0.713  10.870  2.2851 -0.1515  0.4449
  142SAPE   O2115500   6.235   0.538  10.793  0.8518 -0.5413  0.5376
  142SAPE   C2115501   6.211   0.586  10.674  0.7094 -0.7601  0.4631
  142SAPE   O2215502   6.243   0.697  10.634 -0.4291  0.1027  0.4170
  142SAPE   C2215503   6.143   0.480  10.597 -0.8516 -0.2765  0.8267
  142SAPE   H2R15504   6.214   0.394  10.602 -0.2708  0.0403 -1.2386
  142SAPE   H2S15505   6.045   0.459  10.645 -0.8422 -0.4003  0.7911
  142SAPE    C315506   6.477   0.564  10.842 -0.0579  0.1119  0.1546
  142SAPE    HX15507   6.483   0.454  10.853 -1.9549  0.0044  0.4452
  142SAPE    HY15508   6.547   0.606  10.918  1.1735 -0.8964 -0.3933
  142SAPE   O3115509   6.517   0.583  10.704  0.3334  0.3247  0.0985
  142SAPE   C3115510   6.554   0.705  10.669  0.6608  0.2014  0.2345
  142SAPE   O3215511   6.550   0.802  10.740  0.2061 -0.5526  0.3731
  142SAPE   C3215512   6.602   0.702  10.526 -0.0189 -0.2676 -0.5005
  142SAPE   H2X15513   6.534   0.642  10.461 -0.3755  2.0763 -2.4783
  142SAPE   H2Y15514   6.701   0.653  10.528  0.2371  0.2657  0.2284
  142SAPE   C2315515   6.107   0.533  10.455  0.4143  0.3190  0.5051
  142SAPE   H3R15516   6.195   0.582  10.407  0.4498  0.0681  0.3133
  142SAPE   H3S15517   6.035   0.617  10.460  0.3895  0.3036  0.4071
  142SAPE   C2415518   6.066   0.415  10.365 -0.4771 -0.2471  0.1990
  142SAPE   H4R15519   5.987   0.351  10.411 -1.5121 -0.0777 -1.2429
  142SAPE   H4S15520   6.156   0.351  10.355  1.6040  2.5548 -0.2070
  142SAPE   C2515521   6.022   0.465  10.221 -0.5268 -0.1013 -0.6021
  142SAPE   H5R15522   5.919   0.502  10.225 -0.1479  0.9215  0.4492
  142SAPE   C2615523   6.094   0.478  10.109  0.0001 -0.0441 -0.1822
  142SAPE   H6R15524   6.041   0.516  10.020 -2.3455 -1.3566  0.5932
  142SAPE   C2715525   6.240   0.426  10.097 -0.3558 -0.2432  0.1912
  142SAPE   H7R15526   6.243   0.327  10.148 -0.4313  0.1250  0.9209
  142SAPE   H7S15527   6.306   0.496  10.151 -0.4813 -0.0621  0.1109
  142SAPE   C2815528   6.311   0.420   9.963 -0.1393 -0.6891  1.1093
  142SAPE   H8R15529   6.412   0.463   9.956  1.4231 -4.1224  0.7381
  142SAPE   C2915530   6.271   0.350   9.854  0.0674  0.4463 -0.5533
  142SAPE   H9R15531   6.320   0.356   9.756  0.1188 -1.3262 -0.6744
  142SAPE  C21015532   6.145   0.268   9.845 -0.1503 -0.2304  0.0307
  142SAPE  H10R15533   6.089   0.273   9.941 -1.3993 -0.7312 -0.6474
  142SAPE  H10S15534   6.177   0.162   9.836 -0.2537 -0.2205 -0.5243
  142SAPE  C21115535   6.057   0.294   9.727 -0.4641 -0.2287 -0.5256
  142SAPE  H11R15536   6.003   0.389   9.743  0.4128  0.0575  0.9266
  142SAPE  C21215537   6.051   0.224   9.610 -0.3235 -0.2421  0.5508
  142SAPE  H12R15538   5.981   0.252   9.530  2.2357 -0.4005 -1.8947
  142SAPE  C21315539   6.143   0.111   9.572 -1.1196 -0.7643  0.1286
  142SAPE  H13R15540   6.086   0.016   9.572 -1.4684 -0.5619 -0.6746
  142SAPE  H13S15541   6.230   0.095   9.640 -0.8454 -0.1430 -0.0712
  142SAPE  C21415542   6.199   0.148   9.437 -0.0444 -0.4286  0.1580
  142SAPE  H14R15543   6.290   0.210   9.437  0.2708 -0.8500 -1.4976
  142SAPE  C21515544   6.145   0.120   9.314 -0.0990  0.5494  1.1195
  142SAPE  H15R15545   6.195   0.166   9.228 -0.7941 -2.5117 -1.0874
  142SAPE  C21615546   6.025   0.036   9.275 -0.2483  0.2838  1.3457
  142SAPE  H16R15547   5.961   0.096   9.208  1.2134  1.0812  0.6099
  142SAPE  H16S15548   5.973   0.008   9.369  2.2787 -1.7357  2.2953
  142SAPE  C21715549   6.049  -0.102   9.215 -0.1769 -0.2310 -0.2813
  142SAPE  H17R15550   5.952  -0.153   9.234  0.6218 -0.6414  3.5718
  142SAPE  H17S15551   6.115  -0.165   9.280  0.0269 -0.3504 -0.6018
  142SAPE  C21815552   6.083  -0.118   9.071 -0.7443  0.1821  0.6877
  142SAPE  H18R15553   6.095  -0.223   9.036  0.4699  0.6389 -0.3393
  142SAPE  H18S15554   6.183  -0.071   9.061 -0.3669 -0.8658 -0.7028
  142SAPE  C21915555   5.983  -0.054   8.971  0.9617 -0.7521 -0.2970
  142SAPE  H19R15556   6.000   0.055   8.988  0.2832 -0.6947  0.0498
  142SAPE  H19S15557   5.884  -0.068   9.019  0.0599 -1.1814 -2.1806
  142SAPE  C22015558   6.005  -0.106   8.831 -0.1710  0.9787  0.0625
  142SAPE  H20R15559   5.920  -0.077   8.764  0.4592 -1.0231 -1.7215
  142SAPE  H20S15560   6.001  -0.217   8.842  0.6905  1.0561  1.4148
  142SAPE  H20T15561   6.105  -0.074   8.794  0.9905 -0.0640  2.1374
  142SAPE   C3315562   6.633   0.834  10.459 -0.1276 -0.1955 -0.3795
  142SAPE   H3X15563   6.706   0.894  10.518  0.0921  0.7625 -1.5949
  142SAPE   H3Y15564   6.545   0.900  10.470  0.4323  0.4514  0.3240
  142SAPE   C3415565   6.666   0.805  10.312 -0.6599 -0.0296  0.3781
  142SAPE   H4X15566   6.719   0.709  10.296 -0.7291  0.0810 -0.5787
  142SAPE   H4Y15567   6.730   0.885  10.269 -0.2864 -0.1456  0.7091
  142SAPE   C3515568   6.533   0.811  10.230  0.1962 -0.1786 -0.1801
  142SAPE   H5X15569   6.499   0.914  10.204 -0.7285 -0.1462  1.0604
  142SAPE   H5Y15570   6.453   0.761  10.288  0.8516 -1.3176 -0.2216
  142SAPE   C3615571   6.567   0.746  10.094  0.4192 -0.0086  0.3207
  142SAPE   H6X15572   6.588   0.639  10.115  3.4083  0.0128 -1.9528
  142SAPE   H6Y15573   6.659   0.786  10.047 -0.3514 -0.8977 -2.0832
  142SAPE   C3715574   6.459   0.768   9.983 -0.0346  0.4145 -0.0854
  142SAPE   H7X15575   6.444   0.877   9.968 -0.6268  0.6222  1.7669
  142SAPE   H7Y15576   6.357   0.730  10.003 -0.0361 -0.1547 -1.0954
  142SAPE   C3815577   6.504   0.714   9.847 -0.3479 -0.7252 -1.2730
  142SAPE   H8X15578   6.531   0.606   9.849  0.9997 -0.4314 -2.5825
  142SAPE   H8Y15579   6.591   0.770   9.809 -0.4197 -1.1866 -2.1239
  142SAPE   C3915580   6.398   0.716   9.738  0.0719 -0.4140 -0.0145
  142SAPE   H9X15581   6.357   0.818   9.720  0.1099 -0.5569 -0.9732
  142SAPE   H9Y15582   6.311   0.652   9.765 -1.1281  1.7606  1.5343
  142SAPE  C31015583   6.441   0.676   9.598 -0.0008  0.2411 -0.2422
  142SAPE  H10X15584   6.481   0.573   9.609 -0.8712 -0.0827 -0.0302
  142SAPE  H10Y15585   6.520   0.741   9.553  0.6961 -1.0734 -0.9839
  142SAPE  C31115586   6.325   0.657   9.499  0.1797 -0.6303  0.2157
  142SAPE  H11X15587   6.291   0.760   9.471 -1.4898 -1.4127 -0.8440
  142SAPE  H11Y15588   6.242   0.595   9.540  0.4269 -2.5061 -1.9020
  142SAPE  C31215589   6.386   0.588   9.380  0.4279 -0.0937  0.0207
  142SAPE  H12X15590   6.411   0.483   9.403  1.1602 -0.6650 -2.9343
  142SAPE  H12Y15591   6.474   0.647   9.346  1.5290 -1.9820 -0.5039
  142SAPE  C31315592   6.289   0.564   9.263 -0.5826 -0.1424 -0.4498
  142SAPE  H13X15593   6.266   0.659   9.210  2.2573 -0.0597 -1.7154
  142SAPE  H13Y15594   6.192   0.518   9.289 -1.2300  0.4974 -1.6318
  142SAPE  C31415595   6.358   0.455   9.168 -0.5162  0.3586  0.7642
  142SAPE  H14X15596   6.382   0.364   9.228  1.4873  0.0464 -0.4158
  142SAPE  H14Y15597   6.448   0.507   9.128  0.1836 -0.2682  1.4966
  142SAPE  C31515598   6.252   0.416   9.057 -0.4450  0.1375  0.3668
  142SAPE  H15X15599   6.226   0.506   8.998 -1.4261 -1.6158 -2.0642
  142SAPE  H15Y15600   6.157   0.389   9.107  0.0691 -0.1682  1.2044
  142SAPE  C31615601   6.309   0.303   8.965 -0.1238 -0.0841  0.3983
  142SAPE  H16X15602   6.327   0.220   9.037 -3.5986 -0.8370  0.5606
  142SAPE  H16Y15603   6.401   0.339   8.915 -1.4345 -0.0413 -2.1338
  142SAPE  C31715604   6.228   0.258   8.847  0.2756 -0.1397 -0.2924
  142SAPE  H17X15605   6.220   0.354   8.792  0.3007 -0.3248 -0.6206
  142SAPE  H17Y15606   6.124   0.230   8.875  0.9109 -1.7108  0.6234
  142SAPE  C31815607   6.288   0.161   8.739  1.0523 -0.4677 -0.2213
  142SAPE  H18X15608   6.301   0.063   8.792 -0.4243 -0.8692 -0.5499
  142SAPE  H18Y15609   6.387   0.195   8.702  0.9424 -1.2576 -1.2750
  142SAPE  H18Z15610   6.222   0.144   8.652 -1.0491 -1.5031  1.4761
  143SAPE     N15611   1.575   1.163  10.872 -0.0329 -0.4262  0.4651
  143SAPE   HN115612   1.472   1.168  10.886  0.1775  1.7724  1.4578
  143SAPE   HN215613   1.626   1.194  10.956 -1.3762 -0.0321  1.1555
  143SAPE   HN315614   1.602   1.228  10.795  1.4939 -1.3047  0.2019
  143SAPE   C1215615   1.616   1.016  10.835  0.5041  0.5966  0.0585
  143SAPE  H12A15616   1.726   1.015  10.846  0.5539  0.9651 -0.3943
  143SAPE  H12B15617   1.589   1.003  10.728 -0.5524  1.3064  0.2257
  143SAPE   C1115618   1.541   0.913  10.921  0.3204  0.2400 -0.4583
  143SAPE  H11A15619   1.586   0.925  11.022  0.6332  2.7538 -0.8559
  143SAPE  H11B15620   1.574   0.811  10.892  0.6204 -0.2435  1.4116
  143SAPE     P15621   1.309   0.884  11.025 -0.0321 -0.0805 -0.4503
  143SAPE   O1315622   1.332   0.744  11.057  0.3640  0.3809  0.3492
  143SAPE   O1415623   1.336   0.979  11.138  0.2296  0.4367  0.6819
  143SAPE   O1215624   1.394   0.929  10.906 -0.1453  0.5770 -0.0208
  143SAPE   O1115625   1.160   0.902  10.980  0.0545 -0.9424  0.0730
  143SAPE    C115626   1.096   0.799  10.907 -0.3985 -0.2544  0.0804
  143SAPE    HA15627   1.100   0.698  10.952  2.6224 -2.2728 -3.9991
  143SAPE    HB15628   0.991   0.832  10.892 -1.0581 -2.0032  0.6305
  143SAPE    C215629   1.148   0.796  10.754 -0.2018  0.6306 -0.3768
  143SAPE    HS15630   1.252   0.757  10.761 -0.8254 -0.9814  0.6913
  143SAPE   O2115631   1.131   0.932  10.704 -0.3423  0.4179 -0.2381
  143SAPE   C2115632   1.228   0.974  10.615 -0.1477 -0.5147  0.1405
  143SAPE   O2215633   1.336   0.916  10.601 -0.1252  0.0611  0.1570
  143SAPE   C2215634   1.184   1.110  10.554 -0.2448 -0.3193 -0.3392
  143SAPE   H2R15635   1.097   1.078  10.493 -1.0595 -0.6024  0.9244
  143SAPE   H2S15636   1.146   1.172  10.638 -2.4067 -1.3836 -0.4344
  143SAPE    C315637   1.070   0.694  10.671  0.3883  0.3263  0.7461
  143SAPE    HX15638   0.972   0.742  10.649  0.4253 -0.2690 -0.8444
  143SAPE    HY15639   1.056   0.596  10.723  2.5274  0.2994  1.3722
  143SAPE   O3115640   1.134   0.678  10.541 -0.0738  0.1904 -0.3454
  143SAPE   C3115641   1.250   0.616  10.534  0.5308  0.0669 -0.2768
  143SAPE   O3215642   1.319   0.571  10.625 -0.6106 -0.1346 -0.2815
  143SAPE   C3215643   1.270   0.571  10.389 -0.1654 -0.0876  0.4935
  143SAPE   H2X15644   1.204   0.626  10.318 -1.7780 -0.7921  1.3892
  143SAPE   H2Y15645   1.241   0.464  10.389 -2.0080  0.3370 -1.1966
  143SAPE   C2315646   1.301   1.175  10.474  0.5380 -0.3522  0.1695
  143SAPE   H3R15647   1.331   1.114  10.386  0.3611  0.4695 -0.4728
  143SAPE   H3S15648   1.389   1.176  10.542 -0.2891 -1.2384  1.3013
  143SAPE   C2415649   1.272   1.319  10.441 -0.2184  0.3240  0.0349
  143SAPE   H4R15650   1.349   1.362  10.373 -0.0672 -3.2687 -2.3810
  143SAPE   H4S15651   1.277   1.380  10.533 -0.7243 -0.5878  0.6875
  143SAPE   C2515652   1.129   1.343  10.391  0.0817 -0.0512 -0.1657
  143SAPE   H5R15653   1.060   1.380  10.468 -1.8536 -2.2651 -0.7384
  143SAPE   C2615654   1.081   1.327  10.272 -0.5847  1.4649  0.5111
  143SAPE   H6R15655   0.976   1.343  10.245  0.1018  4.2238 -0.8157
  143SAPE   C2715656   1.153   1.267  10.150 -0.0503 -0.6212 -0.2105
  143SAPE   H7R15657   1.093   1.182  10.111 -0.2365 -1.2847  1.4607
  143SAPE   H7S15658   1.257   1.236  10.174 -0.1102  0.3975  1.5370
  143SAPE   C2815659   1.145   1.378  10.044 -0.0372 -0.1266 -0.2677
  143SAPE   H8R15660   1.153   1.483  10.078 -1.1650 -0.0552 -0.1967
  143SAPE   C2915661   1.120   1.353   9.911  0.3749  0.0706  0.0478
  143SAPE   H9R15662   1.089   1.438   9.849 -0.6337 -1.1714 -1.2133
  143SAPE  C21015663   1.107   1.213   9.847 -0.2404 -0.2036 -0.4642
  143SAPE  H10R15664   1.004   1.196   9.809 -0.8125 -0.2186  1.0548
  143SAPE  H10S15665   1.128   1.137   9.924  0.3917  1.2147  0.8084
  143SAPE  C21115666   1.210   1.185   9.733 -0.7486 -0.3102  0.4306
  143SAPE  H11R15667   1.306   1.238   9.744 -0.7854  0.3772 -1.9872
  143SAPE  C21215668   1.198   1.112   9.622 -0.4693  0.4335 -0.4056
  143SAPE  H12R15669   1.277   1.119   9.546 -1.0491  0.6876 -0.9954
  143SAPE  C21315670   1.086   1.026   9.572  0.0615 -0.2175  0.1627
  143SAPE  H13R15671   1.042   0.985   9.665  0.0972 -0.9736 -0.1466
  143SAPE  H13S15672   1.123   0.935   9.520  0.2825  0.0633 -0.1791
  143SAPE  C21415673   0.971   1.089   9.494 -0.8536 -0.3456 -0.6955
  143SAPE  H14R15674   0.889   1.132   9.553  0.8488  0.4755  1.1624
  143SAPE  C21515675   0.965   1.104   9.360 -0.2310 -0.6364 -0.6577
  143SAPE  H15R15676   0.892   1.172   9.314  0.9784  1.4047  0.2969
  143SAPE  C21615677   1.067   1.056   9.261  0.4800 -0.5852 -0.0638
  143SAPE  H16R15678   1.166   1.035   9.306 -0.0804 -0.1160  1.4762
  143SAPE  H16S15679   1.078   1.138   9.188 -1.7218 -1.2560 -1.2540
  143SAPE  C21715680   1.019   0.934   9.178 -0.4315  0.0623 -0.4332
  143SAPE  H17R15681   1.089   0.910   9.095  1.4899 -1.1258  1.4373
  143SAPE  H17S15682   0.924   0.959   9.126 -1.3662 -0.9306  0.7375
  143SAPE  C21815683   0.988   0.815   9.270  0.1171 -0.0275  0.4086
  143SAPE  H18R15684   0.913   0.846   9.345 -1.3524 -4.8343  1.2541
  143SAPE  H18S15685   1.077   0.771   9.320  0.3301  1.1116  1.0747
  143SAPE  C21915686   0.919   0.703   9.198 -0.2793 -0.3244 -0.0900
  143SAPE  H19R15687   0.984   0.670   9.115  0.6076 -1.7356  1.1270
  143SAPE  H19S15688   0.825   0.742   9.153 -0.9412 -1.3267  0.3717
  143SAPE  C22015689   0.873   0.584   9.291 -0.0383  0.1915 -0.0939
  143SAPE  H20R15690   0.954   0.565   9.365  0.5013 -4.2023 -1.5262
  143SAPE  H20S15691   0.850   0.491   9.235 -0.8032  1.4949 -2.0527
  143SAPE  H20T15692   0.781   0.611   9.348  0.5469  0.5074  0.7257
  143SAPE   C3315693   1.416   0.581  10.341  0.7238 -0.0678  0.2381
  143SAPE   H3X15694   1.418   0.520  10.248 -0.6777  0.8651 -0.4387
  143SAPE   H3Y15695   1.491   0.546  10.415 -0.3474  0.0999  1.4336
  143SAPE   C3415696   1.465   0.723  10.300  0.7159 -0.0959  1.1302
  143SAPE   H4X15697   1.570   0.703  10.269  0.8826 -0.2383  1.7813
  143SAPE   H4Y15698   1.480   0.789  10.389  1.0170 -1.3791  2.0583
  143SAPE   C3515699   1.383   0.791  10.187 -0.4742  0.3461  0.1800
  143SAPE   H5X15700   1.435   0.883  10.153 -0.4473  0.4989  0.6257
  143SAPE   H5Y15701   1.295   0.829  10.244  1.0855  1.2991  2.0787
  143SAPE   C3615702   1.334   0.699  10.075 -0.2647  0.3964  0.3214
  143SAPE   H6X15703   1.268   0.624  10.124 -0.0841  0.0572  0.0486
  143SAPE   H6Y15704   1.421   0.647  10.031  0.5266  2.8845 -1.3037
  143SAPE   C3715705   1.275   0.783   9.959 -0.0361 -0.0795  0.2954
  143SAPE   H7X15706   1.357   0.844   9.917  0.7059  0.5462  2.4833
  143SAPE   H7Y15707   1.202   0.843  10.018 -0.1343  0.9763 -0.8704
  143SAPE   C3815708   1.202   0.705   9.856 -0.2872 -0.1165 -0.0403
  143SAPE   H8X15709   1.137   0.770   9.794 -1.3388 -2.9971 -2.1755
  143SAPE   H8Y15710   1.141   0.630   9.913  2.8933 -0.2112  3.6607
  143SAPE   C3915711   1.297   0.625   9.759  0.3944 -0.5122  0.0458
  143SAPE   H9X15712   1.300   0.515   9.768  0.6834 -0.4268  1.1660
  143SAPE   H9Y15713   1.400   0.649   9.795 -1.1351  2.6307  2.8545
  143SAPE  C31015714   1.281   0.656   9.608  0.2599 -0.2157  0.4135
  143SAPE  H10X15715   1.263   0.765   9.599 -3.5501 -0.7824 -0.2590
  143SAPE  H10Y15716   1.182   0.620   9.574  0.4088  0.4864 -0.8171
  143SAPE  C31115717   1.399   0.616   9.523 -0.8888 -0.6854 -0.0132
  143SAPE  H11X15718   1.424   0.508   9.518 -1.6029 -0.8155 -0.9673
  143SAPE  H11Y15719   1.485   0.655   9.582 -2.9617  0.0759  2.7057
  143SAPE  C31215720   1.387   0.668   9.378  0.0206  0.3483 -0.0701
  143SAPE  H12X15721   1.489   0.696   9.344  0.5521 -1.4874 -0.1017
  143SAPE  H12Y15722   1.323   0.759   9.378 -0.2550  0.1733 -1.6972
  143SAPE  C31315723   1.326   0.557   9.283 -0.0235  0.7257 -0.0891
  143SAPE  H13X15724   1.221   0.543   9.317 -0.6048  0.6943 -1.8221
  143SAPE  H13Y15725   1.369   0.455   9.287  2.1865  1.5315 -1.7175
  143SAPE  C31415726   1.320   0.618   9.145  0.1254 -0.7711 -0.2480
  143SAPE  H14X15727   1.422   0.610   9.100 -0.3291 -2.6249 -1.0370
  143SAPE  H14Y15728   1.284   0.723   9.150 -1.4974 -1.2931 -0.5538
  143SAPE  C31515729   1.226   0.539   9.053 -0.4742  0.4757 -0.0122
  143SAPE  H15X15730   1.127   0.543   9.103  0.3816 -0.7344  1.8972
  143SAPE  H15Y15731   1.259   0.434   9.041  0.1132  0.6870 -0.2571
  143SAPE  C31615732   1.227   0.604   8.912 -0.5048  0.0957  0.1982
  143SAPE  H16X15733   1.326   0.588   8.866 -0.2294 -2.7151  1.5061
  143SAPE  H16Y15734   1.220   0.714   8.927  2.3417  0.5246 -1.0146
  143SAPE  C31715735   1.109   0.549   8.831  0.5201  0.6138 -0.2457
  143SAPE  H17X15736   1.020   0.587   8.885  0.0365  2.9880 -2.5158
  143SAPE  H17Y15737   1.095   0.441   8.851  0.6725  0.7047  0.3798
  143SAPE  C31815738   1.098   0.595   8.683  0.0139 -0.2025 -0.4853
  143SAPE  H18X15739   1.134   0.700   8.680 -0.3536 -0.0889 -1.2048
  143SAPE  H18Y15740   0.992   0.585   8.651 -0.3260  0.1954  0.4726
  143SAPE  H18Z15741   1.170   0.537   8.621  0.1684 -1.0637  0.4720
  144SAPE     N15742   4.487   5.811  11.372 -0.7611  0.2538 -0.5068
  144SAPE   HN115743   4.462   5.860  11.460 -1.3211 -0.5768 -0.1992
  144SAPE   HN215744   4.485   5.708  11.380  1.1523  0.1761 -0.5202
  144SAPE   HN315745   4.583   5.846  11.354 -0.9542  0.7984 -0.5039
  144SAPE   C1215746   4.407   5.857  11.257 -0.1115 -0.2364 -0.2640
  144SAPE  H12A15747   4.390   5.966  11.274  1.8037  0.3951 -2.0219
  144SAPE  H12B15748   4.319   5.789  11.264  0.9586 -1.7212 -0.8223
  144SAPE   C1115749   4.486   5.830  11.127 -0.2328  0.0312  0.4922
  144SAPE  H11A15750   4.583   5.881  11.136 -0.3604  0.0367  2.0373
  144SAPE  H11B15751   4.429   5.882  11.047  1.0270 -0.0711 -0.5005
  144SAPE     P15752   4.434   5.623  10.965 -0.2396 -0.0878  0.2361
  144SAPE   O1315753   4.477   5.483  10.971  0.0996 -0.2021  0.3035
  144SAPE   O1415754   4.288   5.647  10.960  0.8051  0.1005  0.3643
  144SAPE   O1215755   4.500   5.692  11.094 -0.1579  0.2878 -0.1765
  144SAPE   O1115756   4.511   5.696  10.851  0.3714  0.0144 -0.3191
  144SAPE    C115757   4.457   5.802  10.767  0.4261 -0.5684 -0.0306
  144SAPE    HA15758   4.402   5.874  10.832 -0.2207 -1.0196 -0.0755
  144SAPE    HB15759   4.540   5.856  10.716  0.8121  0.8887  1.9980
  144SAPE    C215760   4.365   5.756  10.648 -0.3650 -0.4087 -0.5019
  144SAPE    HS15761   4.270   5.727  10.700 -0.2697 -0.7720 -0.5279
  144SAPE   O2115762   4.407   5.640  10.589 -0.1714 -0.3997  0.7721
  144SAPE   C2115763   4.500   5.650  10.489  0.3948 -0.8091 -0.5584
  144SAPE   O2215764   4.570   5.743  10.462 -0.0116 -0.2760 -0.5471
  144SAPE   C2215765   4.492   5.519  10.405 -0.1550  0.0812  0.5824
  144SAPE   H2R15766   4.591   5.507  10.357  0.2250  1.4008  0.9894
  144SAPE   H2S15767   4.475   5.428  10.466  1.9383 -1.1927 -0.6226
  144SAPE    C315768   4.339   5.880  10.554 -0.0213 -0.3933  0.5612
  144SAPE    HX15769   4.441   5.911  10.523  0.7483 -0.7149  2.5920
  144SAPE    HY15770   4.291   5.968  10.602  1.7509  0.8219  0.2305
  144SAPE   O3115771   4.282   5.828  10.427  0.0155 -0.0573  0.0582
  144SAPE   C3115772   4.155   5.798  10.428 -0.1108  0.8231  1.2765
  144SAPE   O3215773   4.078   5.809  10.522 -0.0323 -0.0591 -0.3969
  144SAPE   C3215774   4.109   5.746  10.284 -0.0187 -0.0970 -0.3159
  144SAPE   H2X15775   4.203   5.721  10.230  0.0731 -1.5255  0.4679
  144SAPE   H2Y15776   4.058   5.835  10.241 -0.1577 -1.0104 -2.1460
  144SAPE   C2315777   4.385   5.522  10.296  0.3817  0.2118 -0.2847
  144SAPE   H3R15778   4.382   5.626  10.258  0.2173  0.0383 -0.7501
  144SAPE   H3S15779   4.280   5.508  10.332  0.1744  1.4490 -0.3729
  144SAPE   C2415780   4.416   5.414  10.187 -0.4731 -0.7492 -0.0555
  144SAPE   H4R15781   4.438   5.321  10.244 -0.3596  0.0444  1.2228
  144SAPE   H4S15782   4.517   5.438  10.149  0.6590 -3.7879  0.7538
  144SAPE   C2515783   4.321   5.386  10.074 -0.2986 -1.1383  0.1579
  144SAPE   H5R15784   4.267   5.290  10.079 -0.4580 -1.1650 -1.4150
  144SAPE   C2615785   4.307   5.454   9.960  0.2557 -0.0668  0.3542
  144SAPE   H6R15786   4.247   5.410   9.880  1.4799  0.1890 -0.7347
  144SAPE   C2715787   4.371   5.592   9.923  0.0658 -0.3977  0.3047
  144SAPE   H7R15788   4.454   5.559   9.857  0.8400 -0.7761  1.4269
  144SAPE   H7S15789   4.408   5.640  10.016 -2.5987  0.1139  1.1828
  144SAPE   C2815790   4.275   5.678   9.854 -0.1611  0.0843  1.1360
  144SAPE   H8R15791   4.236   5.759   9.917 -0.8762  0.0833  0.6951
  144SAPE   C2915792   4.234   5.674   9.724 -0.0045  0.0612 -0.2802
  144SAPE   H9R15793   4.155   5.747   9.700  0.0463  0.3857  0.5183
  144SAPE  C21015794   4.263   5.557   9.635  0.2505  0.0732  0.5506
  144SAPE  H10R15795   4.264   5.458   9.686  0.0358 -1.6021 -2.5127
  144SAPE  H10S15796   4.366   5.565   9.595  0.1476  0.6740  0.3916
  144SAPE  C21115797   4.161   5.534   9.521 -0.4859  0.2472  0.5263
  144SAPE  H11R15798   4.072   5.476   9.548 -0.1006 -0.0748  1.1272
  144SAPE  C21215799   4.158   5.592   9.397 -0.0359 -0.0774 -0.1635
  144SAPE  H12R15800   4.065   5.580   9.339 -0.0111 -1.4776  0.0564
  144SAPE  C21315801   4.262   5.677   9.332 -0.6144 -0.0772  0.5053
  144SAPE  H13R15802   4.338   5.714   9.404  3.0915 -2.4507 -1.8596
  144SAPE  H13S15803   4.214   5.767   9.288  0.5987  0.2818 -0.1408
  144SAPE  C21415804   4.344   5.604   9.228 -0.1586  1.1662  0.7512
  144SAPE  H14R15805   4.442   5.565   9.260  0.3884  1.9582  0.0601
  144SAPE  C21515806   4.303   5.573   9.098  0.2434 -0.3756 -0.3931
  144SAPE  H15R15807   4.366   5.506   9.038  2.8144  1.7194 -0.2160
  144SAPE  C21615808   4.177   5.637   9.048 -0.0451 -0.4836 -0.3122
  144SAPE  H16R15809   4.200   5.732   8.996  1.2923 -0.9726 -0.6624
  144SAPE  H16S15810   4.097   5.651   9.124 -0.3838 -0.2742 -0.7001
  144SAPE  C21715811   4.103   5.537   8.948  0.0916  0.3388 -0.5282
  144SAPE  H17R15812   4.170   5.508   8.865  1.4213 -0.0861  0.6616
  144SAPE  H17S15813   4.018   5.597   8.907 -1.1348  0.0259  1.3927
  144SAPE  C21815814   4.052   5.407   9.013  0.1019  0.7108  0.6637
  144SAPE  H18R15815   3.956   5.424   9.066 -0.6198 -0.7356 -0.1377
  144SAPE  H18S15816   4.135   5.371   9.078  1.8600  0.6938 -1.4869
  144SAPE  C21915817   4.038   5.294   8.911 -0.7433 -0.2140  0.5450
  144SAPE  H19R15818   4.009   5.199   8.960  0.5343 -0.2560  1.2475
  144SAPE  H19S15819   4.134   5.269   8.860 -1.3658  0.0669 -0.8308
  144SAPE  C22015820   3.952   5.327   8.794 -0.1800 -0.3331 -0.6629
  144SAPE  H20R15821   3.953   5.235   8.732  0.3201  0.9294 -2.6482
  144SAPE  H20S15822   3.984   5.418   8.737  0.1933  0.2551  0.4530
  144SAPE  H20T15823   3.846   5.346   8.822 -0.0593 -0.7411  0.0870
  144SAPE   C3315824   3.997   5.637  10.287 -0.3567  0.8259 -0.3676
  144SAPE   H3X15825   3.904   5.676  10.333 -1.0718  0.4128 -1.4528
  144SAPE   H3Y15826   4.021   5.552  10.354  0.3425  0.7075 -0.7553
  144SAPE   C3415827   3.968   5.575  10.146 -0.5333  0.3040 -0.1147
  144SAPE   H4X15828   3.901   5.489  10.170 -1.9996  1.7141  1.0681
  144SAPE   H4Y15829   4.064   5.533  10.109 -0.7826 -0.4529  0.0789
  144SAPE   C3515830   3.925   5.684  10.047  0.4930 -0.1586  0.0032
  144SAPE   H5X15831   4.003   5.763  10.044  0.1102  0.2194 -0.0575
  144SAPE   H5Y15832   3.834   5.732  10.089  0.9747 -0.9849  2.1484
  144SAPE   C3615833   3.899   5.622   9.905 -0.3110 -0.6654  0.1074
  144SAPE   H6X15834   3.815   5.550   9.915 -1.7342  0.5136 -2.3119
  144SAPE   H6Y15835   3.991   5.567   9.878  0.5179  0.9675 -0.5362
  144SAPE   C3715836   3.860   5.718   9.802 -0.0613  0.0516  0.0861
  144SAPE   H7X15837   3.944   5.789   9.794  1.1451 -1.3365 -0.0407
  144SAPE   H7Y15838   3.771   5.775   9.837 -0.4486  0.0664 -0.8899
  144SAPE   C3815839   3.824   5.656   9.664  0.1838 -0.8318  0.0215
  144SAPE   H8X15840   3.755   5.572   9.686  0.1012 -0.9074 -0.5209
  144SAPE   H8Y15841   3.918   5.631   9.611 -0.4240  1.1581 -2.2064
  144SAPE   C3915842   3.744   5.756   9.581  0.1097 -0.2256 -0.1785
  144SAPE   H9X15843   3.795   5.853   9.561  2.1143 -0.4991  2.9277
  144SAPE   H9Y15844   3.656   5.776   9.645  0.3245  0.5523 -0.1180
  144SAPE  C31015845   3.704   5.702   9.445 -0.0198 -1.1292  0.5264
  144SAPE  H10X15846   3.594   5.695   9.427  0.2478  0.8395 -2.4997
  144SAPE  H10Y15847   3.743   5.598   9.440  1.2419 -0.6077 -1.4307
  144SAPE  C31115848   3.753   5.790   9.328 -0.7923 -0.2927  0.2317
  144SAPE  H11X15849   3.861   5.810   9.342 -0.9255  0.6035  0.0327
  144SAPE  H11Y15850   3.709   5.891   9.335 -0.1880  0.0666 -0.8906
  144SAPE  C31215851   3.724   5.731   9.189 -0.3036 -0.2370 -0.4012
  144SAPE  H12X15852   3.613   5.737   9.182 -0.5897 -2.0080  1.5542
  144SAPE  H12Y15853   3.764   5.628   9.196  1.2675  0.4495  2.2219
  144SAPE  C31315854   3.793   5.816   9.082  0.2174 -0.1300 -0.1510
  144SAPE  H13X15855   3.899   5.828   9.115  0.9327 -0.7531 -2.1097
  144SAPE  H13Y15856   3.753   5.919   9.090 -0.1631 -0.3095  0.3420
  144SAPE  C31415857   3.770   5.763   8.938  0.0022  0.1916 -0.0478
  144SAPE  H14X15858   3.841   5.682   8.912  2.7520  1.3267  3.1574
  144SAPE  H14Y15859   3.806   5.843   8.870  0.7748  0.4573  0.6600
  144SAPE  C31515860   3.626   5.734   8.909  0.3587  0.0967 -0.0447
  144SAPE  H15X15861   3.563   5.813   8.956  1.2920  0.8412 -0.0288
  144SAPE  H15Y15862   3.593   5.640   8.959 -0.5239  1.1777  1.4944
  144SAPE  C31615863   3.595   5.729   8.763 -0.2011  0.0422  0.1638
  144SAPE  H16X15864   3.674   5.679   8.703  0.8089  1.3211  0.3945
  144SAPE  H16Y15865   3.581   5.830   8.720 -0.7227 -0.5107 -0.9920
  144SAPE  C31715866   3.453   5.659   8.745  0.1082 -0.2081 -0.7512
  144SAPE  H17X15867   3.383   5.721   8.805  3.4824  2.7941  0.4701
  144SAPE  H17Y15868   3.465   5.554   8.779 -1.6285 -0.5353 -1.0622
  144SAPE  C31815869   3.407   5.664   8.602 -0.5311 -0.0417  0.0282
  144SAPE  H18X15870   3.315   5.605   8.581 -1.1367  1.2339 -1.0924
  144SAPE  H18Y15871   3.490   5.628   8.536  0.8326  0.9172  1.1710
  144SAPE  H18Z15872   3.385   5.766   8.563  2.2308 -0.5128 -3.2803
  145SAPE     N15873   1.534   0.294  11.434  0.2713 -0.2604  0.2080
  145SAPE   HN115874   1.579   0.314  11.342  3.3605  0.1354  1.6808
  145SAPE   HN215875   1.576   0.368  11.494  0.7204  2.5301 -3.2317
  145SAPE   HN315876   1.564   0.205  11.478 -0.8787 -0.8054 -0.0428
  145SAPE   C1215877   1.378   0.333  11.427 -0.1338 -0.6150  0.1644
  145SAPE  H12A15878   1.376   0.444  11.422  3.5164 -0.4655 -0.9362
  145SAPE  H12B15879   1.346   0.284  11.522  3.0670 -1.7585  0.7930
  145SAPE   C1115880   1.309   0.256  11.310 -0.3455  0.7758  0.1480
  145SAPE  H11A15881   1.359   0.284  11.214  2.3307  0.9718  1.4898
  145SAPE  H11B15882   1.204   0.290  11.304  0.0810  2.0624 -0.5177
  145SAPE     P15883   1.202   0.021  11.338  0.2063 -0.0253 -0.4343
  145SAPE   O1315884   1.255  -0.114  11.367 -0.5162  0.0506 -0.1825
  145SAPE   O1415885   1.089   0.064  11.423 -0.5063 -0.0915 -0.0614
  145SAPE   O1215886   1.320   0.122  11.350  0.0235 -0.0353  0.1029
  145SAPE   O1115887   1.160   0.033  11.187 -0.0670 -0.0109 -0.3774
  145SAPE    C115888   1.236  -0.059  11.101 -0.1955 -0.5438 -0.1908
  145SAPE    HA15889   1.341  -0.073  11.134 -0.1363  0.4950  0.1156
  145SAPE    HB15890   1.185  -0.157  11.095  2.1056 -2.0749  2.6889
  145SAPE    C215891   1.269   0.004  10.958  0.3941  0.4733 -0.3314
  145SAPE    HS15892   1.342   0.088  10.966 -1.4915  2.0583  1.4495
  145SAPE   O2115893   1.137   0.051  10.903  0.4521  0.3996 -0.1763
  145SAPE   C2115894   1.136   0.160  10.824 -0.5606 -0.1728  0.2592
  145SAPE   O2215895   1.234   0.225  10.792  0.0335  0.1533 -0.4264
  145SAPE   C2215896   0.998   0.176  10.767  0.1610 -0.1859 -0.9271
  145SAPE   H2R15897   0.950   0.084  10.728 -2.4600  0.4262  0.6284
  145SAPE   H2S15898   0.939   0.223  10.848  2.5193  2.2634 -0.4566
  145SAPE    C315899   1.334  -0.103  10.873 -0.0076  0.0075  0.0411
  145SAPE    HX15900   1.265  -0.190  10.874  0.2495 -0.2261 -0.9147
  145SAPE    HY15901   1.432  -0.127  10.919  1.3493  0.5556 -2.3876
  145SAPE   O3115902   1.351  -0.053  10.739 -0.2704 -0.3757  0.2020
  145SAPE   C3115903   1.473  -0.008  10.699 -0.0618  0.5055 -0.2668
  145SAPE   O3215904   1.574  -0.016  10.765 -0.1222  0.3266 -0.2395
  145SAPE   C3215905   1.470   0.040  10.552  0.3118  0.5891  0.5518
  145SAPE   H2X15906   1.368   0.075  10.524 -0.1251  0.7559  2.2404
  145SAPE   H2Y15907   1.496  -0.044  10.485 -0.1081  1.4804 -0.7591
  145SAPE   C2315908   0.993   0.291  10.665 -0.1798  0.3051  0.3624
  145SAPE   H3R15909   1.088   0.287  10.608  0.5980 -0.0818  1.6386
  145SAPE   H3S15910   0.981   0.391  10.713  0.7245  2.1976 -3.0253
  145SAPE   C2415911   0.873   0.287  10.564 -0.3592  0.7705 -0.2004
  145SAPE   H4R15912   0.781   0.276  10.626 -0.1496 -0.6617 -0.1195
  145SAPE   H4S15913   0.881   0.189  10.512 -0.6645  0.0928  0.9811
  145SAPE   C2515914   0.846   0.397  10.463 -0.5031  0.6342 -0.4184
  145SAPE   H5R15915   0.805   0.490  10.507 -1.9398 -1.6467  3.5321
  145SAPE   C2615916   0.877   0.396  10.328  0.0706  0.2442  0.3959
  145SAPE   H6R15917   0.860   0.485  10.265 -2.1997 -0.0503  0.4913
  145SAPE   C2715918   0.932   0.277  10.248  0.4998  0.5510 -0.8961
  145SAPE   H7R15919   0.844   0.237  10.193 -1.5228  0.6227  2.0205
  145SAPE   H7S15920   0.967   0.201  10.321  1.1722  0.1498 -1.6220
  145SAPE   C2815921   1.050   0.301  10.164  0.1541 -0.7000 -0.0785
  145SAPE   H8R15922   1.143   0.303  10.222  0.0326 -0.9225  0.1240
  145SAPE   C2915923   1.055   0.309  10.032  0.3788 -0.3533 -0.6192
  145SAPE   H9R15924   1.151   0.334   9.985  0.8439  1.9241  1.3800
  145SAPE  C21015925   0.946   0.300   9.929 -0.3633 -0.2098 -0.0651
  145SAPE  H10R15926   0.852   0.267   9.979 -1.1872 -0.5118 -1.7231
  145SAPE  H10S15927   0.975   0.224   9.853  0.4148  0.9923 -0.9925
  145SAPE  C21115928   0.947   0.438   9.870  0.4088 -0.2433  0.2822
  145SAPE  H11R15929   0.982   0.515   9.942 -0.5275 -0.4595  0.9898
  145SAPE  C21215930   0.926   0.479   9.741 -0.5510  0.2615 -0.5077
  145SAPE  H12R15931   0.940   0.586   9.717 -0.3735  1.2092  3.2795
  145SAPE  C21315932   0.876   0.396   9.616  0.2735 -0.1873 -0.7862
  145SAPE  H13R15933   0.837   0.467   9.540 -1.4822  0.4860  0.6481
  145SAPE  H13S15934   0.781   0.345   9.641  0.4923 -0.4754 -0.5302
  145SAPE  C21415935   0.964   0.296   9.553  0.2476 -0.2896 -0.1425
  145SAPE  H14R15936   1.063   0.290   9.602 -0.3706  0.2925  1.2290
  145SAPE  C21515937   0.925   0.217   9.458 -0.5973 -0.0096  0.6417
  145SAPE  H15R15938   0.990   0.136   9.422 -1.3046  0.4947 -1.9870
  145SAPE  C21615939   0.788   0.221   9.405  0.4104  0.4013  0.1174
  145SAPE  H16R15940   0.727   0.311   9.425 -1.0497 -0.1479 -1.5667
  145SAPE  H16S15941   0.735   0.135   9.453 -1.1949 -0.0824 -2.3373
  145SAPE  C21715942   0.780   0.198   9.253 -0.9088  0.3809 -0.2544
  145SAPE  H17R15943   0.802   0.288   9.191  1.4316 -0.1687 -0.3188
  145SAPE  H17S15944   0.672   0.180   9.233 -0.9598  1.0812 -0.6609
  145SAPE  C21815945   0.849   0.072   9.200 -0.0790  1.0137  0.5487
  145SAPE  H18R15946   0.823  -0.023   9.252  2.6039  0.7685  1.6284
  145SAPE  H18S15947   0.955   0.067   9.233 -0.5739 -1.9366  2.0356
  145SAPE  C21915948   0.850   0.053   9.048  0.0028  0.0594  0.0192
  145SAPE  H19R15949   0.910  -0.035   9.014 -0.6231 -1.0752  1.6835
  145SAPE  H19S15950   0.873   0.146   8.993 -0.5090 -0.7382 -1.5857
  145SAPE  C22015951   0.710   0.003   8.999  0.1379  0.1491  0.3992
  145SAPE  H20R15952   0.720  -0.025   8.892 -1.3160  2.2231 -0.3444
  145SAPE  H20S15953   0.640   0.089   9.000  1.9154  1.6499  1.0567
  145SAPE  H20T15954   0.666  -0.083   9.054 -0.5247 -0.4447 -1.0189
  145SAPE   C3315955   1.559   0.162  10.539  0.6784  0.4170 -0.3454
  145SAPE   H3X15956   1.670   0.150  10.543  0.4878 -1.0761  1.8556
  145SAPE   H3Y15957   1.544   0.233  10.623 -0.6929 -0.7298  0.4248
  145SAPE   C3415958   1.518   0.245  10.411 -0.6709 -0.1400  0.1886
  145SAPE   H4X15959   1.596   0.323  10.398 -0.8079 -0.3947 -2.8791
  145SAPE   H4Y15960   1.422   0.302  10.416 -0.9831 -0.5725 -0.6050
  145SAPE   C3515961   1.513   0.162  10.277 -0.0576  0.9540  0.8856
  145SAPE   H5X15962   1.434   0.084  10.282 -0.1475  0.6717 -2.3831
  145SAPE   H5Y15963   1.613   0.115  10.273  1.3771  3.1207  5.1055
  145SAPE   C3615964   1.493   0.252  10.149  0.1596  0.0182 -0.7133
  145SAPE   H6X15965   1.568   0.333  10.156  0.3490 -0.1664 -0.5547
  145SAPE   H6Y15966   1.394   0.300  10.163 -0.5857 -1.7903  0.6372
  145SAPE   C3715967   1.482   0.183  10.013 -0.5144  0.5447  0.0165
  145SAPE   H7X15968   1.393   0.116  10.019 -1.4565  1.8430  1.3028
  145SAPE   H7Y15969   1.580   0.136   9.992 -0.5799 -0.7449  2.2659
  145SAPE   C3815970   1.453   0.282   9.897 -0.4286 -0.4115  0.0100
  145SAPE   H8X15971   1.512   0.375   9.915  2.2151 -1.8439 -0.7798
  145SAPE   H8Y15972   1.349   0.317   9.914 -0.5521  0.1670 -1.8112
  145SAPE   C3915973   1.486   0.220   9.763  0.1035  0.2677 -0.6272
  145SAPE   H9X15974   1.562   0.140   9.757  2.4495  2.4528 -2.9614
  145SAPE   H9Y15975   1.534   0.307   9.712 -0.3110  0.5546 -0.5408
  145SAPE  C31015976   1.357   0.186   9.692  0.1305 -0.0861  0.3616
  145SAPE  H10X15977   1.281   0.261   9.723 -0.9948 -1.9157  2.3048
  145SAPE  H10Y15978   1.321   0.092   9.739  0.7777 -1.1186 -1.1414
  145SAPE  C31115979   1.374   0.185   9.544  0.2486 -0.1788  0.6744
  145SAPE  H11X15980   1.406   0.284   9.505 -1.8527  0.8802  1.4970
  145SAPE  H11Y15981   1.271   0.163   9.506  0.7342 -0.7176 -0.3834
  145SAPE  C31215982   1.471   0.092   9.469 -0.0844  0.0493 -0.1711
  145SAPE  H12X15983   1.432  -0.010   9.488 -0.1931  0.1417  0.1038
  145SAPE  H12Y15984   1.571   0.099   9.519 -1.6115  0.6357  3.0758
  145SAPE  C31315985   1.470   0.109   9.312  0.9978  0.8515 -0.9627
  145SAPE  H13X15986   1.526   0.030   9.257 -0.6113 -0.1723 -1.2019
  145SAPE  H13Y15987   1.510   0.210   9.288  0.3784  1.8158  1.6623
  145SAPE  C31415988   1.328   0.107   9.247 -0.2988  0.4427 -0.0636
  145SAPE  H14X15989   1.267   0.195   9.275 -1.5818 -0.3909 -0.1569
  145SAPE  H14Y15990   1.265   0.019   9.275  0.5599  0.2567  1.4171
  145SAPE  C31515991   1.336   0.113   9.090 -0.5995  0.1757 -0.2983
  145SAPE  H15X15992   1.383   0.019   9.054  0.5835  1.0807 -1.1684
  145SAPE  H15Y15993   1.409   0.195   9.074 -1.3283  1.0881  0.9481
  145SAPE  C31615994   1.200   0.129   9.020 -0.1052  0.3298  0.8884
  145SAPE  H16X15995   1.136   0.208   9.067  1.5827  3.0211 -1.0849
  145SAPE  H16Y15996   1.145   0.033   9.031 -0.7455  0.8654  3.0150
  145SAPE  C31715997   1.208   0.144   8.867  0.1238  0.8045  1.0921
  145SAPE  H17X15998   1.268   0.057   8.829 -0.5073  0.4731  0.8373
  145SAPE  H17Y15999   1.273   0.227   8.833 -1.8424  1.3312 -1.7026
  145SAPE  C31816000   1.072   0.147   8.797  0.0388 -0.3044 -0.6047
  145SAPE  H18X16001   1.089   0.152   8.688  1.2408  1.2253 -0.3844
  145SAPE  H18Y16002   1.014   0.233   8.837 -0.8265 -0.2507 -1.9309
  145SAPE  H18Z16003   1.013   0.054   8.810  2.4607 -1.7598  0.5399
  146SAPE     N16004   5.256   6.076  10.957  0.0349 -0.3386  0.4145
  146SAPE   HN116005   5.310   6.162  10.932  1.4632 -1.3931 -0.2976
  146SAPE   HN216006   5.263   6.014  10.875 -0.7726  1.2322 -0.9046
  146SAPE   HN316007   5.157   6.100  10.975  0.3405 -0.1663  2.0345
  146SAPE   C1216008   5.308   6.020  11.084  0.1686  0.6743 -0.0354
  146SAPE  H12A16009   5.234   5.943  11.114 -1.9346  1.8633 -1.8306
  146SAPE  H12B16010   5.299   6.103  11.157  2.2731  1.1445 -0.2466
  146SAPE   C1116011   5.453   5.971  11.063 -0.1549  0.4052 -0.6084
  146SAPE  H11A16012   5.491   5.938  11.162 -0.9056  0.9966 -0.1034
  146SAPE  H11B16013   5.512   6.059  11.028 -0.0417  0.0277 -1.3846
  146SAPE     P16014   5.553   5.856  10.846  0.5054 -0.0249 -0.1576
  146SAPE   O1316015   5.676   5.807  10.908  0.5429 -0.5065 -0.1362
  146SAPE   O1416016   5.494   5.769  10.742 -0.7510 -0.3455 -0.1156
  146SAPE   O1216017   5.455   5.861  10.971  0.3740 -0.1387 -0.1954
  146SAPE   O1116018   5.572   6.001  10.796  0.1443 -0.2841 -0.0123
  146SAPE    C116019   5.514   6.060  10.689  0.5874 -0.4462  0.7545
  146SAPE    HA16020   5.412   6.023  10.662  0.3121  1.2911 -0.7829
  146SAPE    HB16021   5.503   6.168  10.712  0.1458 -0.7114  1.8640
  146SAPE    C216022   5.590   6.040  10.561 -0.2049  0.3536  0.8347
  146SAPE    HS16023   5.609   5.930  10.556 -1.8785 -0.1287  3.1794
  146SAPE   O2116024   5.715   6.112  10.553  0.4427 -0.1284  0.4290
  146SAPE   C2116025   5.811   6.052  10.486  0.1998  0.9910  0.1394
  146SAPE   O2216026   5.816   5.928  10.463 -0.1888 -0.1894  1.2606
  146SAPE   C2216027   5.911   6.155  10.447  0.5278  0.5173 -0.8202
  146SAPE   H2R16028   5.845   6.230  10.399 -0.5822 -0.1337 -0.3439
  146SAPE   H2S16029   5.956   6.196  10.540 -0.5732  0.1134 -0.0933
  146SAPE    C316030   5.506   6.075  10.437  0.4111 -0.3823 -0.2231
  146SAPE    HX16031   5.517   6.185  10.430  1.0534 -0.2489  2.1851
  146SAPE    HY16032   5.396   6.071  10.455  0.7549 -0.0105  2.2769
  146SAPE   O3116033   5.551   6.009  10.316 -0.0087 -0.2754  0.2907
  146SAPE   C3116034   5.476   5.916  10.261 -0.4261  0.3640  0.2133
  146SAPE   O3216035   5.374   5.875  10.306 -0.0753  0.5332  0.3190
  146SAPE   C3216036   5.524   5.870  10.128  0.1572 -0.0026  0.2031
  146SAPE   H2X16037   5.602   5.791  10.135  1.1360  0.5005 -3.2493
  146SAPE   H2Y16038   5.558   5.960  10.071 -1.2402  0.5754  0.2492
  146SAPE   C2316039   6.027   6.114  10.350 -0.5285 -0.2428 -0.4978
  146SAPE   H3R16040   5.996   6.082  10.248 -0.9148 -0.8709 -0.1839
  146SAPE   H3S16041   6.082   6.032  10.400 -1.2630 -0.3425  0.1709
  146SAPE   C2416042   6.128   6.225  10.334 -0.2823 -0.1566  0.0908
  146SAPE   H4R16043   6.220   6.177  10.293  0.0548 -1.1388  1.9041
  146SAPE   H4S16044   6.158   6.258  10.436  2.4434 -1.5903 -0.1747
  146SAPE   C2516045   6.088   6.346  10.246  0.1627  0.2182 -0.4720
  146SAPE   H5R16046   6.007   6.411  10.283  0.0449  0.2535 -0.7869
  146SAPE   C2616047   6.153   6.387  10.132 -0.4227  0.6388 -0.1387
  146SAPE   H6R16048   6.109   6.473  10.079 -3.0128 -0.4928  0.0013
  146SAPE   C2716049   6.278   6.323  10.072  0.4817 -0.4404  0.4794
  146SAPE   H7R16050   6.335   6.250  10.134  0.2146  0.4582  1.8347
  146SAPE   H7S16051   6.346   6.404  10.038 -0.3705  0.5525  1.0570
  146SAPE   C2816052   6.228   6.255   9.943 -0.3204  0.6655 -0.5197
  146SAPE   H8R16053   6.143   6.187   9.953  0.4801 -0.3183 -0.2322
  146SAPE   C2916054   6.258   6.283   9.813  0.2361 -0.2156  0.0119
  146SAPE   H9R16055   6.214   6.220   9.735 -1.8415 -0.1543  1.0676
  146SAPE  C21016056   6.349   6.400   9.764 -0.4617  0.0293 -0.4626
  146SAPE  H10R16057   6.443   6.362   9.718  1.0096  0.9415  1.6373
  146SAPE  H10S16058   6.382   6.462   9.850 -0.1067 -0.6749 -0.0764
  146SAPE  C21116059   6.286   6.495   9.666  0.6363 -0.0092  0.4117
  146SAPE  H11R16060   6.179   6.480   9.643  0.6167  0.9575 -0.1691
  146SAPE  C21216061   6.345   6.599   9.605  0.1039  0.0074  0.0013
  146SAPE  H12R16062   6.289   6.648   9.523 -3.2973 -0.7654  1.6734
  146SAPE  C21316063   6.496   6.642   9.622 -0.0326 -0.1715  0.1171
  146SAPE  H13R16064   6.547   6.649   9.524 -1.2193  0.5470 -0.4673
  146SAPE  H13S16065   6.557   6.574   9.686 -2.6218 -0.4767  2.4254
  146SAPE  C21416066   6.505   6.773   9.707 -0.3046  0.7487  0.9942
  146SAPE  H14R16067   6.447   6.768   9.800  1.1272  3.0049  2.1147
  146SAPE  C21516068   6.575   6.888   9.673 -0.5779  0.5753  0.1718
  146SAPE  H15R16069   6.593   6.970   9.744 -0.6473  0.0999  0.7491
  146SAPE  C21616070   6.661   6.917   9.551 -0.2914  0.5432 -0.0039
  146SAPE  H16R16071   6.664   6.827   9.486 -1.5865  0.7348 -0.3555
  146SAPE  H16S16072   6.763   6.950   9.580  0.3303 -0.6845 -0.6868
  146SAPE  C21716073   6.601   7.021   9.450 -0.0976 -0.5883 -0.0741
  146SAPE  H17R16074   6.573   7.118   9.498 -1.5157 -0.5726 -0.8760
  146SAPE  H17S16075   6.504   6.977   9.419 -0.6298 -0.3076  1.1389
  146SAPE  C21816076   6.679   7.039   9.314 -0.0120  0.4302 -0.0463
  146SAPE  H18R16077   6.786   7.065   9.325 -0.2329  0.6392  2.1001
  146SAPE  H18S16078   6.637   7.122   9.252 -2.0664 -0.3441  0.2384
  146SAPE  C21916079   6.686   6.911   9.223 -0.1463 -0.6528 -0.7450
  146SAPE  H19R16080   6.745   6.836   9.280  1.5831  0.1480 -1.4053
  146SAPE  H19S16081   6.734   6.947   9.130 -2.0972  0.8094 -1.2575
  146SAPE  C22016082   6.562   6.841   9.179 -0.2947 -0.6918 -0.1131
  146SAPE  H20R16083   6.501   6.803   9.263  0.7758 -0.6442  0.7091
  146SAPE  H20S16084   6.583   6.761   9.104 -4.8120 -1.3621 -0.9089
  146SAPE  H20T16085   6.505   6.916   9.120  0.2988 -0.0645  0.0942
  146SAPE   C3316086   5.395   5.827  10.036 -0.0237  0.1824 -0.3149
  146SAPE   H3X16087   5.321   5.908  10.049  0.7786  0.6832  1.4430
  146SAPE   H3Y16088   5.355   5.731  10.076 -0.6871  1.4597  2.3110
  146SAPE   C3416089   5.445   5.810   9.899  0.6175 -0.2249  0.3470
  146SAPE   H4X16090   5.518   5.728   9.884  0.0093 -0.8840  0.9444
  146SAPE   H4Y16091   5.495   5.903   9.863  0.1524  0.2107  0.8105
  146SAPE   C3516092   5.334   5.796   9.795  1.2315 -0.2288  0.7694
  146SAPE   H5X16093   5.275   5.889   9.792 -1.1541 -1.6722  0.4968
  146SAPE   H5Y16094   5.268   5.711   9.823  0.6278  0.3231  1.0404
  146SAPE   C3616095   5.363   5.775   9.652 -0.3790  0.1963 -0.3563
  146SAPE   H6X16096   5.427   5.684   9.654  2.0108  1.8037 -0.4549
  146SAPE   H6Y16097   5.429   5.853   9.609 -1.3118  0.5087 -1.2729
  146SAPE   C3716098   5.246   5.768   9.551 -0.2016 -0.3450 -0.7782
  146SAPE   H7X16099   5.178   5.851   9.579  1.8478  1.0313  0.4444
  146SAPE   H7Y16100   5.189   5.674   9.565  0.0117 -0.2748  0.8316
  146SAPE   C3816101   5.301   5.783   9.410 -0.0849 -0.9776 -0.1131
  146SAPE   H8X16102   5.364   5.700   9.372 -1.1070 -1.5529 -0.5696
  146SAPE   H8Y16103   5.352   5.881   9.396  0.1199 -0.9989  0.4515
  146SAPE   C3916104   5.186   5.787   9.295  0.3442 -0.2952  0.2630
  146SAPE   H9X16105   5.129   5.880   9.316  0.5088 -0.3444  0.9601
  146SAPE   H9Y16106   5.119   5.700   9.308 -0.9006  0.9102  2.5305
  146SAPE  C31016107   5.240   5.799   9.158 -0.7366 -0.5820 -0.2770
  146SAPE  H10X16108   5.316   5.718   9.152  1.1852  1.0875  0.0173
  146SAPE  H10Y16109   5.299   5.893   9.151  0.3038 -1.2776 -1.4904
  146SAPE  C31116110   5.131   5.778   9.056  0.1948 -0.3893  0.2014
  146SAPE  H11X16111   5.052   5.852   9.083  0.5808  0.3367 -0.6129
  146SAPE  H11Y16112   5.085   5.677   9.060 -0.5337 -0.0940 -0.4585
  146SAPE  C31216113   5.170   5.817   8.909 -0.1137 -0.1767  0.0916
  146SAPE  H12X16114   5.276   5.786   8.897 -0.0021  0.6603 -1.2186
  146SAPE  H12Y16115   5.172   5.928   8.912  1.9501 -0.1792  0.7423
  146SAPE  C31316116   5.098   5.750   8.791  0.2386  0.2176  0.1010
  146SAPE  H13X16117   5.010   5.814   8.772 -1.4419 -1.5318  1.5827
  146SAPE  H13Y16118   5.078   5.644   8.817 -1.0718 -0.0909 -1.9102
  146SAPE  C31416119   5.186   5.741   8.668  0.0308 -0.1818 -0.4147
  146SAPE  H14X16120   5.281   5.691   8.699 -0.0655  0.1890  0.4922
  146SAPE  H14Y16121   5.215   5.842   8.631  1.4189 -0.5424 -0.3720
  146SAPE  C31516122   5.118   5.662   8.547  0.0873  1.0097 -0.3156
  146SAPE  H15X16123   5.036   5.729   8.511 -0.3123  1.7031  1.7412
  146SAPE  H15Y16124   5.071   5.566   8.578 -0.3811  1.1132 -0.7032
  146SAPE  C31616125   5.210   5.629   8.431  0.2261  0.4434  0.3273
  146SAPE  H16X16126   5.310   5.600   8.471  0.4268  1.9681  0.9880
  146SAPE  H16Y16127   5.232   5.729   8.387  2.8599  0.2672  1.0323
  146SAPE  C31716128   5.168   5.531   8.324  0.2278  0.2766  0.4042
  146SAPE  H17X16129   5.079   5.575   8.275  0.5589  0.0687 -0.4072
  146SAPE  H17Y16130   5.127   5.437   8.367 -1.2185  0.2199 -0.9913
  146SAPE  C31816131   5.284   5.488   8.223  0.5264 -0.2338  0.2253
  146SAPE  H18X16132   5.376   5.449   8.271 -0.3043 -0.6108  1.5956
  146SAPE  H18Y16133   5.320   5.584   8.180  0.2174 -0.3773 -0.3517
  146SAPE  H18Z16134   5.248   5.423   8.141 -2.3051 -0.7263  1.6894
  147SAPE     N16135   3.569   4.354   6.438  0.6449 -0.2939 -0.4743
  147SAPE   HN116136   3.620   4.433   6.483  0.7842 -0.7218  0.1421
  147SAPE   HN216137   3.643   4.290   6.401 -0.4134 -2.2451  0.6344
  147SAPE   HN316138   3.521   4.407   6.363  0.4672  1.2952  0.7076
  147SAPE   C1216139   3.468   4.273   6.509  0.4835  0.7753 -0.1470
  147SAPE  H12A16140   3.522   4.224   6.592 -1.2965 -0.6225  0.2342
  147SAPE  H12B16141   3.429   4.193   6.443 -1.9251  1.3205  0.5229
  147SAPE   C1116142   3.345   4.352   6.558 -0.0778 -0.4076  0.5212
  147SAPE  H11A16143   3.376   4.437   6.623  0.6484 -0.9911  0.9557
  147SAPE  H11B16144   3.290   4.281   6.623 -1.8356  0.9147  0.5666
  147SAPE     P16145   3.162   4.320   6.373 -0.2691  0.0879 -0.1390
  147SAPE   O1316146   3.070   4.408   6.297 -0.3387  0.1913 -0.3125
  147SAPE   O1416147   3.226   4.204   6.309  0.3932  0.2281  0.1787
  147SAPE   O1216148   3.271   4.412   6.451 -0.2779  0.1410 -0.0982
  147SAPE   O1116149   3.077   4.262   6.496  0.8328 -0.4187  0.0099
  147SAPE    C116150   2.980   4.322   6.583  0.4324 -0.9799 -0.0529
  147SAPE    HA16151   2.971   4.432   6.568 -0.7087 -0.8191  1.6370
  147SAPE    HB16152   2.876   4.289   6.567  0.9830 -2.3468 -0.9476
  147SAPE    C216153   3.023   4.313   6.736  0.6167 -0.0562 -0.5524
  147SAPE    HS16154   3.102   4.390   6.749 -0.4570  0.8549  0.8853
  147SAPE   O2116155   3.076   4.179   6.775 -0.2921 -0.1377  0.2654
  147SAPE   C2116156   3.184   4.172   6.847 -0.1561  0.1690  0.0146
  147SAPE   O2216157   3.243   4.266   6.890  0.6075 -0.5778  0.1256
  147SAPE   C2216158   3.234   4.030   6.855 -0.0232 -0.2692  0.8039
  147SAPE   H2R16159   3.153   3.962   6.889 -0.7464 -0.0248 -0.3614
  147SAPE   H2S16160   3.254   4.006   6.748  0.7364  1.9226  0.4013
  147SAPE    C316161   2.913   4.353   6.838 -0.4522  0.5064 -0.0667
  147SAPE    HX16162   2.834   4.275   6.828  2.1769 -2.5341  1.0795
  147SAPE    HY16163   2.857   4.446   6.813 -1.1858  0.6832  2.0368
  147SAPE   O3116164   2.961   4.355   6.975 -0.1479  0.2923  0.0449
  147SAPE   C3116165   3.006   4.470   7.011 -0.5435 -0.4297 -0.2826
  147SAPE   O3216166   3.025   4.568   6.939 -0.1496  0.4342  0.0452
  147SAPE   C3216167   3.050   4.464   7.155 -0.3669 -0.5984 -0.3855
  147SAPE   H2X16168   3.151   4.418   7.158 -0.7498 -1.4057  0.5034
  147SAPE   H2Y16169   2.985   4.393   7.210 -1.9781  1.3059  0.2877
  147SAPE   C2316170   3.362   4.011   6.939 -0.0014  0.1469  0.3836
  147SAPE   H3R16171   3.436   4.091   6.918  1.0592 -0.1809  2.5985
  147SAPE   H3S16172   3.405   3.915   6.903 -1.4460 -0.9739  1.5303
  147SAPE   C2416173   3.338   3.988   7.087  0.0817 -0.2603 -0.2331
  147SAPE   H4R16174   3.325   4.085   7.139 -2.0142 -0.1060 -0.9635
  147SAPE   H4S16175   3.436   3.949   7.123 -1.0876 -0.2316  3.3440
  147SAPE   C2516176   3.243   3.881   7.124 -0.2146  0.2892  0.3001
  147SAPE   H5R16177   3.280   3.779   7.107 -0.6026 -0.0956  1.6363
  147SAPE   C2616178   3.127   3.900   7.183 -0.1366 -0.3664 -0.7390
  147SAPE   H6R16179   3.057   3.817   7.199  1.9570 -1.8807  1.1935
  147SAPE   C2716180   3.065   4.035   7.201 -0.3582  0.0984 -0.5353
  147SAPE   H7R16181   3.091   4.094   7.111  0.9005  0.0132 -0.2394
  147SAPE   H7S16182   3.117   4.095   7.278 -0.1117  0.6175 -1.0945
  147SAPE   C2816183   2.911   4.036   7.226  0.0031  0.3323 -0.3530
  147SAPE   H8R16184   2.851   3.961   7.172  0.2321 -1.1197  1.3264
  147SAPE   C2916185   2.848   4.088   7.334 -0.0820 -0.1083  0.0061
  147SAPE   H9R16186   2.739   4.092   7.323 -0.0169  2.4422 -0.2578
  147SAPE  C21016187   2.906   4.159   7.449  0.1236 -0.3601  0.4228
  147SAPE  H10R16188   3.005   4.205   7.429 -0.0790  0.7808  1.8537
  147SAPE  H10S16189   2.928   4.091   7.534 -0.2068 -2.6806 -1.2520
  147SAPE  C21116190   2.818   4.270   7.499 -0.4534  0.1410  0.6268
  147SAPE  H11R16191   2.813   4.359   7.434  0.8924 -1.3212 -1.6026
  147SAPE  C21216192   2.738   4.274   7.605 -0.4372  0.9224 -0.2483
  147SAPE  H12R16193   2.694   4.372   7.627 -0.9479  0.7867 -0.6452
  147SAPE  C21316194   2.706   4.153   7.695  0.0585 -0.1202 -0.2771
  147SAPE  H13R16195   2.773   4.154   7.784  0.2779 -1.5057 -0.4040
  147SAPE  H13S16196   2.721   4.053   7.649  1.6270 -0.9565  1.8530
  147SAPE  C21416197   2.562   4.159   7.746  0.1844 -0.0539 -0.0703
  147SAPE  H14R16198   2.555   4.169   7.855  0.7336 -0.4774  0.0057
  147SAPE  C21516199   2.451   4.122   7.673 -0.5225 -0.0704  0.7354
  147SAPE  H15R16200   2.353   4.132   7.723 -1.6425 -4.7329  0.0179
  147SAPE  C21616201   2.459   4.088   7.525 -0.4869 -0.0414 -0.4547
  147SAPE  H16R16202   2.405   3.992   7.510 -1.4760  0.5858 -0.9600
  147SAPE  H16S16203   2.566   4.073   7.499 -0.4246  0.0320 -0.2447
  147SAPE  C21716204   2.405   4.205   7.442  0.0414 -0.3313  0.1490
  147SAPE  H17R16205   2.449   4.299   7.481 -1.5298 -0.4166  2.2568
  147SAPE  H17S16206   2.295   4.202   7.457 -0.0110 -1.9353 -0.3144
  147SAPE  C21816207   2.428   4.187   7.291  0.3703 -0.4310  0.1589
  147SAPE  H18R16208   2.534   4.197   7.261 -0.0832 -1.7922 -2.0955
  147SAPE  H18S16209   2.365   4.266   7.245  0.7783 -1.2763 -1.9395
  147SAPE  C21916210   2.382   4.048   7.244  0.7633 -0.3633 -0.5616
  147SAPE  H19R16211   2.274   4.035   7.266  1.1057 -2.0176  0.3272
  147SAPE  H19S16212   2.440   3.975   7.305 -0.7432 -0.0157  1.3977
  147SAPE  C22016213   2.390   4.029   7.086  0.5315  0.3715  0.2956
  147SAPE  H20R16214   2.410   3.923   7.059  0.7116  0.4319  0.1968
  147SAPE  H20S16215   2.481   4.081   7.051  0.0241  0.9325 -0.2194
  147SAPE  H20T16216   2.298   4.061   7.033  1.5639 -0.3755 -2.0467
  147SAPE   C3316217   3.051   4.605   7.219 -0.0851 -0.1767  0.3289
  147SAPE   H3X16218   2.956   4.663   7.220  0.7287  1.2071  0.2690
  147SAPE   H3Y16219   3.131   4.659   7.163 -0.7710  0.4326 -0.0862
  147SAPE   C3416220   3.095   4.601   7.369 -0.3346  0.3126  0.1196
  147SAPE   H4X16221   3.178   4.530   7.387  1.5574  2.6592  1.2108
  147SAPE   H4Y16222   2.999   4.575   7.420  0.2208 -0.7620  0.6480
  147SAPE   C3516223   3.147   4.736   7.409 -0.2698 -0.3892  0.4099
  147SAPE   H5X16224   3.062   4.805   7.392 -2.3038 -2.7381  0.4214
  147SAPE   H5Y16225   3.246   4.744   7.358 -0.5160  0.4301  0.0543
  147SAPE   C3616226   3.184   4.742   7.560  0.3102  0.3570  1.1088
  147SAPE   H6X16227   3.229   4.840   7.588  3.6147 -0.9643  0.9418
  147SAPE   H6Y16228   3.266   4.669   7.579  0.0026 -0.7824 -1.4485
  147SAPE   C3716229   3.084   4.687   7.664  0.5479  0.2981 -0.5806
  147SAPE   H7X16230   3.058   4.582   7.640  0.5882 -0.2107  1.3758
  147SAPE   H7Y16231   2.994   4.751   7.675  0.9804  0.5810  1.9033
  147SAPE   C3816232   3.154   4.660   7.798  0.6101  0.1452  0.1243
  147SAPE   H8X16233   3.218   4.748   7.822  1.5001 -0.0214 -1.4987
  147SAPE   H8Y16234   3.221   4.575   7.771 -1.0673 -0.8906 -0.9711
  147SAPE   C3916235   3.052   4.616   7.907  0.0522  0.3849  0.3811
  147SAPE   H9X16236   2.969   4.690   7.910  0.5601  0.9310  2.7365
  147SAPE   H9Y16237   3.102   4.630   8.005  3.7243  1.4139 -1.4903
  147SAPE  C31016238   3.001   4.468   7.891  0.3617  0.7806  0.5474
  147SAPE  H10X16239   3.068   4.403   7.830 -2.1316  0.8617 -2.5784
  147SAPE  H10Y16240   2.901   4.461   7.843  0.3142  0.5338  0.6780
  147SAPE  C31116241   2.983   4.392   8.021 -0.6592 -0.5922  0.2817
  147SAPE  H11X16242   3.072   4.391   8.087  0.3893  0.1804 -1.0591
  147SAPE  H11Y16243   2.971   4.285   7.992 -2.2327 -0.7020  1.2542
  147SAPE  C31216244   2.863   4.417   8.116 -0.0676 -0.3893  0.3480
  147SAPE  H12X16245   2.827   4.522   8.108  0.8260  0.1478  2.4628
  147SAPE  H12Y16246   2.891   4.400   8.223 -0.9315  0.3486  0.7069
  147SAPE  C31316247   2.752   4.320   8.078  0.5738 -0.6048  0.0892
  147SAPE  H13X16248   2.792   4.217   8.065  1.3242 -0.2830 -0.2033
  147SAPE  H13Y16249   2.714   4.359   7.981 -0.5560  1.3560  1.2593
  147SAPE  C31416250   2.639   4.312   8.180  0.8369  0.3529  0.9083
  147SAPE  H14X16251   2.624   4.412   8.226  2.3547  0.2029  1.8007
  147SAPE  H14Y16252   2.670   4.242   8.260  0.4417 -0.4696  0.3608
  147SAPE  C31516253   2.503   4.276   8.125 -0.1837 -0.1137 -0.2989
  147SAPE  H15X16254   2.512   4.166   8.113  2.0697  0.0729 -0.6583
  147SAPE  H15Y16255   2.490   4.325   8.026 -0.0752  3.2456  1.2042
  147SAPE  C31616256   2.386   4.302   8.217  0.3677 -0.5008  0.3414
  147SAPE  H16X16257   2.376   4.406   8.257 -2.9165 -1.3024  1.9806
  147SAPE  H16Y16258   2.395   4.247   8.312 -2.7725  0.3573  1.2636
  147SAPE  C31716259   2.252   4.269   8.154 -0.0615 -0.0531  0.7877
  147SAPE  H17X16260   2.177   4.268   8.236  0.7889 -1.2514  1.5708
  147SAPE  H17Y16261   2.253   4.165   8.117 -1.4744  0.6674 -1.5029
  147SAPE  C31816262   2.226   4.372   8.036  0.0700  0.1976  0.0900
  147SAPE  H18X16263   2.286   4.350   7.946 -1.8707 -1.6592 -0.8347
  147SAPE  H18Y16264   2.243   4.475   8.075 -0.3241  0.2015  0.2620
  147SAPE  H18Z16265   2.116   4.370   8.016 -0.0813 -0.2960  0.9069
  148SAPE     N16266   2.626   1.927   6.703 -0.3218 -0.1428 -0.4840
  148SAPE   HN116267   2.595   1.975   6.617  4.4621  1.7556 -1.4517
  148SAPE   HN216268   2.701   1.977   6.754 -2.4587  0.9955  1.7808
  148SAPE   HN316269   2.659   1.837   6.661  0.0294 -1.1030  1.6836
  148SAPE   C1216270   2.503   1.904   6.793  0.3571  0.3308  0.5624
  148SAPE  H12A16271   2.531   1.853   6.888  1.1048  1.4587  0.9732
  148SAPE  H12B16272   2.433   1.833   6.745 -0.0034  2.0956 -1.6933
  148SAPE   C1116273   2.438   2.039   6.833  0.3616  0.1876 -0.0135
  148SAPE  H11A16274   2.506   2.103   6.893  1.9840 -0.7096 -0.8429
  148SAPE  H11B16275   2.356   2.015   6.904  0.2552 -0.2686 -0.2882
  148SAPE     P16276   2.229   2.103   6.683 -0.2987  0.2484 -0.0751
  148SAPE   O1316277   2.214   2.152   6.547 -0.5618 -0.0480  0.3755
  148SAPE   O1416278   2.178   1.970   6.719 -0.7964 -0.8366  0.1176
  148SAPE   O1216279   2.385   2.105   6.721  0.1409  0.6159  0.2520
  148SAPE   O1116280   2.155   2.206   6.769  0.1423 -0.1292 -0.4049
  148SAPE    C116281   2.198   2.342   6.762  0.0093 -0.8088 -0.3878
  148SAPE    HA16282   2.308   2.347   6.751  0.0160  0.0605  0.0531
  148SAPE    HB16283   2.156   2.402   6.678  2.4461  3.0901  0.9320
  148SAPE    C216284   2.161   2.426   6.898  0.3799  0.5072  0.1754
  148SAPE    HS16285   2.225   2.517   6.896  3.8552 -1.7314 -0.3580
  148SAPE   O2116286   2.179   2.336   7.012 -0.3707  0.2276  1.0202
  148SAPE   C2116287   2.307   2.320   7.043  0.2209 -0.9309  0.0823
  148SAPE   O2216288   2.400   2.381   6.987 -0.5140 -0.0226 -0.2936
  148SAPE   C2216289   2.323   2.228   7.165  0.2695  0.0853  0.2884
  148SAPE   H2R16290   2.231   2.233   7.229 -1.0288 -1.5877 -1.3239
  148SAPE   H2S16291   2.328   2.122   7.134 -0.3917 -0.5577  2.2312
  148SAPE    C316292   2.015   2.467   6.897  0.2502  1.2623 -0.1859
  148SAPE    HX16293   1.949   2.378   6.894  2.3760 -0.4110  0.2132
  148SAPE    HY16294   2.003   2.526   6.804 -0.9248 -1.2977 -1.7791
  148SAPE   O3116295   1.991   2.552   7.011  0.3040 -0.1513  0.7829
  148SAPE   C3116296   1.920   2.519   7.110  0.3047 -0.4853 -0.1739
  148SAPE   O3216297   1.861   2.411   7.119 -0.3529 -0.2159 -0.0495
  148SAPE   C3216298   1.921   2.624   7.217  0.0182  0.0716 -0.3544
  148SAPE   H2X16299   1.826   2.681   7.217 -0.5953 -0.8578  1.3731
  148SAPE   H2Y16300   2.006   2.694   7.202  1.6981 -1.7612  0.2255
  148SAPE   C2316301   2.444   2.266   7.252 -0.6678 -0.3214 -0.4878
  148SAPE   H3R16302   2.407   2.343   7.322 -0.9642 -2.0432  1.3528
  148SAPE   H3S16303   2.526   2.318   7.199 -0.2681 -0.3907  0.0543
  148SAPE   C2416304   2.500   2.152   7.335 -0.6665  0.0012 -0.3698
  148SAPE   H4R16305   2.575   2.209   7.394 -0.5715 -0.0715 -0.4210
  148SAPE   H4S16306   2.561   2.092   7.264 -0.7655  0.5005 -0.8910
  148SAPE   C2516307   2.417   2.074   7.431 -0.5118 -0.0983 -0.0395
  148SAPE   H5R16308   2.356   2.002   7.374  1.8029 -1.4305 -0.9892
  148SAPE   C2616309   2.411   2.082   7.562  0.3175  0.2554 -0.3962
  148SAPE   H6R16310   2.352   2.010   7.620  1.0060  1.0562  1.3671
  148SAPE   C2716311   2.488   2.177   7.650  0.5412  0.6877  0.1624
  148SAPE   H7R16312   2.595   2.159   7.627  0.3375  1.9654 -2.0512
  148SAPE   H7S16313   2.468   2.147   7.756  1.2953 -1.1779 -0.1818
  148SAPE   C2816314   2.448   2.321   7.628  0.8713 -0.4427 -1.0011
  148SAPE   H8R16315   2.417   2.350   7.527  0.6751 -2.5085 -1.5801
  148SAPE   C2916316   2.468   2.424   7.716  0.0471  0.4375  0.0995
  148SAPE   H9R16317   2.424   2.521   7.686 -3.9095 -1.0086  0.6773
  148SAPE  C21016318   2.521   2.409   7.858  1.0412  0.0914 -0.4539
  148SAPE  H10R16319   2.594   2.492   7.870 -0.2662  0.9456  2.1709
  148SAPE  H10S16320   2.580   2.316   7.876 -2.6595 -2.3986 -0.0354
  148SAPE  C21116321   2.403   2.414   7.959  0.4771  0.7015 -0.7097
  148SAPE  H11R16322   2.304   2.448   7.927 -0.2251  0.4307  1.0577
  148SAPE  C21216323   2.408   2.359   8.083 -0.3217  0.0693  0.0103
  148SAPE  H12R16324   2.317   2.343   8.143 -2.2966  1.0869 -2.5050
  148SAPE  C21316325   2.535   2.318   8.154 -0.0588  0.1295  1.0527
  148SAPE  H13R16326   2.544   2.361   8.256  1.2661 -0.4288  1.1919
  148SAPE  H13S16327   2.630   2.357   8.112  0.3982 -0.7998  1.1855
  148SAPE  C21416328   2.554   2.165   8.153  0.7889 -0.0441  0.0605
  148SAPE  H14R16329   2.508   2.117   8.066  1.4346 -0.0685 -0.2774
  148SAPE  C21516330   2.632   2.095   8.232 -0.1190 -0.6007  0.2722
  148SAPE  H15R16331   2.633   1.986   8.218  0.7074 -0.8014  1.6803
  148SAPE  C21616332   2.713   2.151   8.344 -0.0523 -0.3305  0.6909
  148SAPE  H16R16333   2.746   2.251   8.309  0.2942 -0.5530  0.3699
  148SAPE  H16S16334   2.809   2.093   8.344  0.7273  0.9024 -0.6120
  148SAPE  C21716335   2.635   2.149   8.480  0.3302 -0.0207  0.1610
  148SAPE  H17R16336   2.551   2.220   8.469  1.6014  2.1552  3.0676
  148SAPE  H17S16337   2.694   2.188   8.566 -0.3328 -0.2219  0.7113
  148SAPE  C21816338   2.579   2.010   8.517  0.4920 -0.0370 -0.3844
  148SAPE  H18R16339   2.660   1.934   8.511  1.2109  0.7991 -1.9854
  148SAPE  H18S16340   2.503   1.971   8.446  1.6881 -0.9752 -1.1915
  148SAPE  C21916341   2.532   2.011   8.657  0.1738 -0.0101 -0.5969
  148SAPE  H19R16342   2.435   1.956   8.665  0.9191 -1.5749 -1.8273
  148SAPE  H19S16343   2.510   2.115   8.690  3.3238  1.0515 -1.4935
  148SAPE  C22016344   2.645   1.966   8.755 -0.0529 -0.0383  0.2944
  148SAPE  H20R16345   2.593   1.967   8.854  0.5618  0.7430  0.6141
  148SAPE  H20S16346   2.732   2.034   8.754  1.0948 -1.4731  0.1089
  148SAPE  H20T16347   2.690   1.867   8.732  0.9087  0.4614 -0.0081
  148SAPE   C3316348   1.950   2.571   7.358 -0.1097  0.3462  0.1773
  148SAPE   H3X16349   2.058   2.548   7.367 -0.2552  0.2358  2.0267
  148SAPE   H3Y16350   1.883   2.484   7.378 -4.6468  3.0449 -1.7791
  148SAPE   C3416351   1.912   2.665   7.473  0.8962  0.3755  0.1266
  148SAPE   H4X16352   1.801   2.674   7.470  0.7908 -0.7333 -3.0239
  148SAPE   H4Y16353   1.963   2.762   7.453  0.8830  0.2561 -0.5118
  148SAPE   C3516354   1.945   2.608   7.609 -0.2575  0.2761 -0.0924
  148SAPE   H5X16355   2.051   2.576   7.612 -0.4196 -0.3341 -0.6726
  148SAPE   H5Y16356   1.882   2.519   7.628 -0.9611  0.7434 -0.1543
  148SAPE   C3616357   1.924   2.714   7.717 -0.2440  0.1205  0.1734
  148SAPE   H6X16358   1.819   2.750   7.718 -0.2703  0.1274  2.2754
  148SAPE   H6Y16359   1.993   2.794   7.684  0.0226 -0.4683 -0.7286
  148SAPE   C3716360   1.969   2.655   7.858  0.3242 -0.4552 -0.0524
  148SAPE   H7X16361   2.073   2.616   7.852  0.6531  0.2137  1.0306
  148SAPE   H7Y16362   1.904   2.568   7.882  0.6492 -0.5031  0.6731
  148SAPE   C3816363   1.959   2.758   7.973  0.1976 -0.1724 -0.2837
  148SAPE   H8X16364   1.856   2.789   8.001  0.2843 -0.7656  0.7176
  148SAPE   H8Y16365   2.009   2.845   7.926 -1.3806  0.2881 -1.1934
  148SAPE   C3916366   2.037   2.717   8.103 -0.4098 -0.1519  0.1634
  148SAPE   H9X16367   2.142   2.682   8.086 -0.0789  0.9795 -0.2614
  148SAPE   H9Y16368   1.977   2.632   8.141 -1.9269  0.2794 -1.1346
  148SAPE  C31016369   2.043   2.824   8.209  0.1678 -0.4743  0.1534
  148SAPE  H10X16370   1.944   2.874   8.220 -0.3861 -0.9634 -1.9712
  148SAPE  H10Y16371   2.111   2.905   8.177  0.9822 -0.4617  1.8589
  148SAPE  C31116372   2.095   2.761   8.335  0.0741 -0.3616 -0.0141
  148SAPE  H11X16373   2.185   2.701   8.312  1.1276 -0.3368  3.4574
  148SAPE  H11Y16374   2.017   2.689   8.370 -1.0187  1.1122  0.6757
  148SAPE  C31216375   2.118   2.875   8.436 -0.2362  0.3225  0.0711
  148SAPE  H12X16376   2.028   2.938   8.452  0.9113  1.6475  1.6202
  148SAPE  H12Y16377   2.202   2.930   8.389 -1.3048  1.8908 -0.0656
  148SAPE  C31316378   2.171   2.826   8.578  0.1317  0.1690 -0.5232
  148SAPE  H13X16379   2.221   2.727   8.567  1.2771  0.7959 -1.1338
  148SAPE  H13Y16380   2.086   2.807   8.647 -1.4028 -3.7369 -3.1047
  148SAPE  C31416381   2.269   2.924   8.640  0.3986 -0.2033  0.4643
  148SAPE  H14X16382   2.210   3.018   8.650 -1.4480 -0.9756 -2.1309
  148SAPE  H14Y16383   2.365   2.935   8.585  0.1082  1.7123  0.2534
  148SAPE  C31516384   2.311   2.875   8.776 -0.2464  0.3087  0.2859
  148SAPE  H15X16385   2.395   2.804   8.756 -1.3441 -1.1733  0.7379
  148SAPE  H15Y16386   2.218   2.835   8.820 -0.3084 -1.4609 -1.3255
  148SAPE  C31616387   2.368   2.981   8.869  0.2021 -0.8689 -0.6259
  148SAPE  H16X16388   2.369   2.951   8.976 -1.8029  1.4075  0.1144
  148SAPE  H16Y16389   2.301   3.070   8.870  2.1458  0.6729 -0.9750
  148SAPE  C31716390   2.509   3.034   8.829 -1.2307  0.0357 -0.1900
  148SAPE  H17X16391   2.532   3.137   8.865  2.8416 -0.0391 -2.0157
  148SAPE  H17Y16392   2.517   3.034   8.718  1.4304 -1.3970 -0.0730
  148SAPE  C31816393   2.631   2.946   8.869 -0.1718 -0.1621 -0.2119
  148SAPE  H18X16394   2.618   2.842   8.833  1.1495 -0.6789  0.7281
  148SAPE  H18Y16395   2.650   2.941   8.978 -1.4841 -1.5850 -0.0209
  148SAPE  H18Z16396   2.720   2.979   8.811 -0.8796  1.4426 -0.4314
  149SAPE     N16397   1.759   3.250   6.247 -0.0069  0.0109  0.8109
  149SAPE   HN116398   1.842   3.275   6.189 -1.7162  1.4004 -1.1798
  149SAPE   HN216399   1.708   3.169   6.206  0.8389  0.8062 -2.0243
  149SAPE   HN316400   1.691   3.328   6.239 -0.0669  0.0645  1.6970
  149SAPE   C1216401   1.795   3.239   6.391 -0.3548  0.3904 -0.2818
  149SAPE  H12A16402   1.848   3.331   6.425  1.2408 -0.1432 -1.1921
  149SAPE  H12B16403   1.860   3.150   6.403 -0.2319  0.6015  0.7605
  149SAPE   C1116404   1.662   3.213   6.475 -0.4608 -0.3444 -0.1527
  149SAPE  H11A16405   1.612   3.312   6.469  1.1465  0.4475 -0.8652
  149SAPE  H11B16406   1.683   3.186   6.581 -0.8441 -0.3445 -0.0728
  149SAPE     P16407   1.596   2.960   6.437  0.0331 -0.1435  0.1053
  149SAPE   O1316408   1.513   2.883   6.341  0.1095 -0.1198  0.0720
  149SAPE   O1416409   1.742   2.951   6.424  0.0614  0.5083  0.9074
  149SAPE   O1216410   1.576   3.115   6.411  0.7021  0.3332  0.1117
  149SAPE   O1116411   1.558   2.932   6.583  0.3412  0.4115  0.4545
  149SAPE    C116412   1.615   2.831   6.666 -0.3122  0.6703  0.4287
  149SAPE    HA16413   1.542   2.748   6.678 -0.0829  0.4262  0.1772
  149SAPE    HB16414   1.707   2.781   6.628  1.7092  2.0320  3.2417
  149SAPE    C216415   1.649   2.888   6.810 -0.1055  0.4608 -0.3864
  149SAPE    HS16416   1.571   2.951   6.857  1.0263  2.0522 -0.5366
  149SAPE   O2116417   1.764   2.963   6.790  0.3745 -0.3694  0.5334
  149SAPE   C2116418   1.784   3.079   6.845  0.9116  0.4157 -0.3593
  149SAPE   O2216419   1.704   3.142   6.915 -0.0114  0.8330  0.0090
  149SAPE   C2216420   1.917   3.129   6.803  0.3478 -0.0611 -0.1912
  149SAPE   H2R16421   1.912   3.117   6.692 -2.0340 -1.7962  0.0309
  149SAPE   H2S16422   1.927   3.239   6.817  1.3690 -0.1586 -0.0267
  149SAPE    C316423   1.690   2.777   6.918  0.3116  0.3215  0.4531
  149SAPE    HX16424   1.778   2.724   6.874 -0.1680  1.4216 -2.0241
  149SAPE    HY16425   1.605   2.705   6.915 -0.1743  0.8706  0.8947
  149SAPE   O3116426   1.710   2.825   7.051 -0.1340  0.6052 -0.1060
  149SAPE   C3116427   1.597   2.839   7.123  0.5023  0.1053 -0.8399
  149SAPE   O3216428   1.484   2.821   7.087 -0.4927  0.1237  0.2585
  149SAPE   C3216429   1.632   2.891   7.259  0.6128 -0.4841 -0.3557
  149SAPE   H2X16430   1.593   2.993   7.281 -2.4260 -1.5802 -0.2092
  149SAPE   H2Y16431   1.743   2.903   7.264  0.4564  0.8391  0.4455
  149SAPE   C2316432   2.031   3.045   6.876  0.4278 -0.6205  0.4827
  149SAPE   H3R16433   2.124   3.093   6.837 -2.4257  2.2023 -3.6582
  149SAPE   H3S16434   2.035   2.937   6.850 -3.0061 -0.5313 -0.9500
  149SAPE   C2416435   2.020   3.059   7.029 -0.2030  0.3721  0.3720
  149SAPE   H4R16436   1.955   2.969   7.039  0.5919 -0.5863 -2.3665
  149SAPE   H4S16437   1.961   3.149   7.055 -0.3892  0.8790 -1.6327
  149SAPE   C2516438   2.143   3.050   7.112 -1.1172  0.3699 -0.3292
  149SAPE   H5R16439   2.238   3.055   7.058 -0.0522 -2.4568  1.0652
  149SAPE   C2616440   2.149   3.052   7.250 -0.0500  1.1964  0.5099
  149SAPE   H6R16441   2.242   3.054   7.308  0.9741  0.8218 -1.0615
  149SAPE   C2716442   2.019   3.073   7.334  0.6698  0.2301  0.0372
  149SAPE   H7R16443   2.022   2.993   7.411  2.7773  0.4080  0.2058
  149SAPE   H7S16444   1.926   3.069   7.273  0.2508 -0.1651  0.6895
  149SAPE   C2816445   2.028   3.202   7.406  0.3248  0.1877  0.5389
  149SAPE   H8R16446   2.059   3.287   7.343  0.1960  0.7400  1.2129
  149SAPE   C2916447   2.005   3.232   7.536 -0.4626  0.6463 -0.3653
  149SAPE   H9R16448   2.008   3.335   7.573  1.1533  0.0831  1.2049
  149SAPE  C21016449   1.958   3.130   7.635  0.1752 -0.4469  0.6094
  149SAPE  H10R16450   2.001   3.030   7.613  0.0133 -0.9041  2.2161
  149SAPE  H10S16451   1.848   3.138   7.630  0.1835  1.1088  1.9855
  149SAPE  C21116452   1.995   3.160   7.781  0.6753  0.2419 -0.8355
  149SAPE  H11R16453   2.078   3.103   7.826  1.1991  1.3169 -0.4039
  149SAPE  C21216454   1.930   3.253   7.864 -0.1630  0.1027  0.5974
  149SAPE  H12R16455   1.970   3.271   7.965 -0.8818 -0.8111  1.0661
  149SAPE  C21316456   1.816   3.336   7.838  0.8633 -0.3009 -0.1911
  149SAPE  H13R16457   1.742   3.264   7.798  0.3395  0.2120 -0.1626
  149SAPE  H13S16458   1.846   3.402   7.753 -1.1053  0.0288 -0.6985
  149SAPE  C21416459   1.738   3.403   7.946 -0.2199 -0.2232  0.3776
  149SAPE  H14R16460   1.640   3.362   7.976  0.2026 -0.6446  1.2015
  149SAPE  C21516461   1.772   3.524   8.000 -0.7268 -0.1597  0.5465
  149SAPE  H15R16462   1.700   3.558   8.076 -1.8321  0.6868 -0.8279
  149SAPE  C21616463   1.891   3.609   7.973  0.1090 -0.9067  0.2109
  149SAPE  H16R16464   1.864   3.708   7.931  1.4739 -1.3429 -1.8694
  149SAPE  H16S16465   1.956   3.567   7.893  0.1352  0.2972 -0.4230
  149SAPE  C21716466   1.974   3.635   8.100 -0.0408  0.6921 -0.3673
  149SAPE  H17R16467   2.081   3.649   8.074 -0.1625 -0.5069 -1.5975
  149SAPE  H17S16468   1.965   3.543   8.162 -0.1271  1.3494  0.6155
  149SAPE  C21816469   1.921   3.760   8.169  0.1875 -0.5069  0.2673
  149SAPE  H18R16470   1.815   3.755   8.204  0.1152 -0.8254  0.0113
  149SAPE  H18S16471   1.917   3.843   8.096  0.1819 -0.5546  0.2137
  149SAPE  C21916472   2.003   3.793   8.288  0.2345  0.8267 -0.5001
  149SAPE  H19R16473   2.103   3.761   8.251 -0.8651  0.1267 -3.0628
  149SAPE  H19S16474   1.973   3.726   8.372  0.6230  1.6609  0.3200
  149SAPE  C22016475   2.013   3.938   8.330 -0.4505  0.2359 -0.1457
  149SAPE  H20R16476   2.056   4.009   8.257  0.7745  1.2863  1.4996
  149SAPE  H20S16477   2.077   3.942   8.422 -0.6182  1.9244 -0.0856
  149SAPE  H20T16478   1.910   3.963   8.362 -0.1187  0.2985  0.9181
  149SAPE   C3316479   1.581   2.815   7.381 -0.5434  0.1940  0.2713
  149SAPE   H3X16480   1.608   2.707   7.387  0.1686  0.3466 -0.1270
  149SAPE   H3Y16481   1.470   2.823   7.376 -0.8137 -1.9395  1.5198
  149SAPE   C3416482   1.601   2.889   7.512  0.1938 -0.0138 -0.3637
  149SAPE   H4X16483   1.546   2.986   7.508  0.7083  0.2373 -1.4968
  149SAPE   H4Y16484   1.709   2.914   7.510  0.4873 -1.2646 -1.5621
  149SAPE   C3516485   1.554   2.803   7.631  0.2459 -0.2270  0.0766
  149SAPE   H5X16486   1.595   2.700   7.623 -1.5170 -0.9286 -0.5021
  149SAPE   H5Y16487   1.445   2.784   7.615  0.5811 -2.9207  0.5328
  149SAPE   C3616488   1.579   2.874   7.762  0.3274  0.7497 -0.8073
  149SAPE   H6X16489   1.499   2.949   7.780 -1.3216 -0.9766 -0.7268
  149SAPE   H6Y16490   1.682   2.916   7.767  0.5896  0.0467 -0.2256
  149SAPE   C3716491   1.564   2.770   7.875 -0.6740 -0.5568 -0.4835
  149SAPE   H7X16492   1.659   2.715   7.891 -1.4088 -1.9274 -0.6883
  149SAPE   H7Y16493   1.490   2.690   7.851 -2.8368  1.0636  0.3451
  149SAPE   C3816494   1.511   2.831   8.006  0.2725 -0.3970 -0.0922
  149SAPE   H8X16495   1.498   2.750   8.082 -3.6491  0.9852  0.9284
  149SAPE   H8Y16496   1.408   2.866   7.983  0.3442  0.0170  0.2055
  149SAPE   C3916497   1.590   2.954   8.059 -0.2646 -0.1082  0.1463
  149SAPE   H9X16498   1.616   3.020   7.974 -1.5012 -0.8052 -0.7932
  149SAPE   H9Y16499   1.689   2.911   8.087  0.3076  0.6964 -0.6094
  149SAPE  C31016500   1.527   3.013   8.190  0.2174  0.1429  0.1090
  149SAPE  H10X16501   1.513   2.928   8.260 -1.6976 -0.4546 -0.9142
  149SAPE  H10Y16502   1.432   3.068   8.172 -0.2399  0.3883  2.9362
  149SAPE  C31116503   1.616   3.126   8.255 -0.2676 -0.7667 -0.3712
  149SAPE  H11X16504   1.575   3.160   8.352  0.0873  1.4037 -0.9265
  149SAPE  H11Y16505   1.613   3.212   8.184  1.1116 -1.8148 -1.7534
  149SAPE  C31216506   1.765   3.100   8.278  0.3397 -0.0766  0.0054
  149SAPE  H12X16507   1.830   3.099   8.187  0.7745 -2.6952  0.2595
  149SAPE  H12Y16508   1.767   2.994   8.312 -1.0778 -1.1962 -2.9895
  149SAPE  C31316509   1.818   3.190   8.386 -0.1272 -0.0371  0.0460
  149SAPE  H13X16510   1.926   3.170   8.405  0.1150  0.8284 -0.3645
  149SAPE  H13Y16511   1.769   3.171   8.484 -2.4843 -1.4878 -1.3214
  149SAPE  C31416512   1.812   3.340   8.343 -0.2637  0.2858 -0.6118
  149SAPE  H14X16513   1.802   3.338   8.232 -1.7958  1.9273 -0.5393
  149SAPE  H14Y16514   1.905   3.387   8.383 -0.6591 -0.5789  1.4299
  149SAPE  C31516515   1.701   3.414   8.415  0.6821 -0.4041  0.2821
  149SAPE  H15X16516   1.692   3.393   8.524  0.2111 -1.7955 -0.0116
  149SAPE  H15Y16517   1.603   3.396   8.366  0.4242  1.4597  0.0369
  149SAPE  C31616518   1.710   3.569   8.390  0.0303 -0.6439 -0.1474
  149SAPE  H16X16519   1.709   3.590   8.281  0.5984  0.6750  0.0918
  149SAPE  H16Y16520   1.808   3.601   8.431  0.5475 -2.0948 -0.1781
  149SAPE  C31716521   1.601   3.638   8.475 -0.4004  0.4789  0.6393
  149SAPE  H17X16522   1.621   3.615   8.582 -1.9513  1.7679  1.2689
  149SAPE  H17Y16523   1.501   3.600   8.446  1.8908 -6.6774  0.2884
  149SAPE  C31816524   1.610   3.796   8.455  0.3920 -0.2581  0.0302
  149SAPE  H18X16525   1.541   3.851   8.523  0.6965 -0.4298  0.4875
  149SAPE  H18Y16526   1.593   3.829   8.351 -2.3062 -0.6254  0.2906
  149SAPE  H18Z16527   1.712   3.828   8.484  0.4301 -0.1903 -0.1790
  150SAPE     N16528   0.538   4.620   6.167  0.2751  0.0237  0.5907
  150SAPE   HN116529   0.477   4.632   6.083 -0.3515 -0.8743  0.8986
  150SAPE   HN216530   0.629   4.586   6.131 -0.6856 -0.4020 -1.5444
  150SAPE   HN316531   0.498   4.535   6.212  0.5382 -0.9340 -0.9227
  150SAPE   C1216532   0.566   4.732   6.254 -0.0223  0.5822 -0.2707
  150SAPE  H12A16533   0.494   4.728   6.338  2.0457 -0.6857  1.5552
  150SAPE  H12B16534   0.554   4.823   6.192  0.8138 -0.7878 -2.5438
  150SAPE   C1116535   0.707   4.728   6.320 -0.3939  0.3722 -0.6879
  150SAPE  H11A16536   0.698   4.791   6.411  0.6431  1.0283 -1.0318
  150SAPE  H11B16537   0.789   4.779   6.265  1.3637  1.9428  3.0827
  150SAPE     P16538   0.876   4.548   6.431  0.8118 -0.4706 -0.2678
  150SAPE   O1316539   0.876   4.399   6.432 -0.0449  0.1421 -0.2086
  150SAPE   O1416540   0.976   4.618   6.353  0.1839  0.7373  0.1286
  150SAPE   O1216541   0.738   4.591   6.360 -0.1553  0.4288 -0.6491
  150SAPE   O1116542   0.855   4.609   6.576 -0.2906  0.1202 -1.2797
  150SAPE    C116543   0.730   4.591   6.647  0.1100  0.0088  0.1012
  150SAPE    HA16544   0.674   4.686   6.635  1.3769  0.8984  1.0221
  150SAPE    HB16545   0.674   4.502   6.611 -0.9083  0.2078  1.1401
  150SAPE    C216546   0.750   4.561   6.792 -0.6027 -1.2443  0.5513
  150SAPE    HS16547   0.652   4.531   6.837 -2.6624  1.3772 -1.8211
  150SAPE   O2116548   0.797   4.683   6.860 -0.2485  0.1284 -0.5749
  150SAPE   C2116549   0.693   4.756   6.907  0.0387 -0.1536 -1.0554
  150SAPE   O2216550   0.578   4.729   6.894  0.1840 -0.0009  0.1220
  150SAPE   C2216551   0.740   4.882   6.972  0.2302  0.2721 -0.1012
  150SAPE   H2R16552   0.830   4.863   7.035 -0.3186 -0.7699  0.4065
  150SAPE   H2S16553   0.772   4.951   6.891  0.7970 -0.9771 -0.9726
  150SAPE    C316554   0.861   4.449   6.812  0.8548  0.5680 -0.0016
  150SAPE    HX16555   0.945   4.492   6.754 -0.3815  1.5107 -1.1479
  150SAPE    HY16556   0.831   4.350   6.772 -0.1210 -0.5152  3.1061
  150SAPE   O3116557   0.888   4.431   6.952  0.2479  0.7182  0.2127
  150SAPE   C3116558   1.001   4.365   6.975 -0.1720  0.1063 -0.6217
  150SAPE   O3216559   1.076   4.313   6.896 -0.1522 -0.2453  0.0615
  150SAPE   C3216560   1.044   4.380   7.121  1.1537  0.4454 -0.5054
  150SAPE   H2X16561   1.042   4.490   7.133 -1.3257  0.4683 -0.6854
  150SAPE   H2Y16562   1.140   4.329   7.147  1.0767  0.7874  0.4678
  150SAPE   C2316563   0.639   4.954   7.067  0.7870 -0.5098  0.8325
  150SAPE   H3R16564   0.595   4.875   7.132  0.3962  0.2359  1.4993
  150SAPE   H3S16565   0.551   4.980   7.004 -1.7563 -0.8926  3.9755
  150SAPE   C2416566   0.699   5.061   7.157 -0.4580 -0.1617  0.5703
  150SAPE   H4R16567   0.754   5.136   7.096 -0.1371 -0.8266  0.0264
  150SAPE   H4S16568   0.770   5.011   7.226 -2.3219 -2.1791  1.1788
  150SAPE   C2516569   0.587   5.135   7.236  0.2532  0.5739 -0.5651
  150SAPE   H5R16570   0.554   5.230   7.191  0.8633  1.3859  0.6409
  150SAPE   C2616571   0.517   5.082   7.336 -0.3737 -0.8522 -0.1623
  150SAPE   H6R16572   0.452   5.157   7.385 -1.9248 -0.7811 -2.1733
  150SAPE   C2716573   0.534   4.953   7.408  0.1744 -0.5699 -0.3194
  150SAPE   H7R16574   0.552   4.874   7.332  1.4018 -0.4082 -0.2097
  150SAPE   H7S16575   0.431   4.929   7.444  0.6977 -0.1669  1.5401
  150SAPE   C2816576   0.646   4.950   7.509 -0.0466 -0.2151 -0.3955
  150SAPE   H8R16577   0.730   4.887   7.478  0.0588 -0.6656  0.7476
  150SAPE   C2916578   0.657   5.010   7.630 -0.5376  0.2221 -0.2095
  150SAPE   H9R16579   0.756   5.003   7.677 -0.7127 -2.3298 -0.0815
  150SAPE  C21016580   0.556   5.091   7.697 -1.3588 -0.4893 -1.1238
  150SAPE  H10R16581   0.471   5.101   7.627  0.5694  0.2594 -3.4908
  150SAPE  H10S16582   0.589   5.195   7.716 -0.1011 -0.7852 -1.5998
  150SAPE  C21116583   0.494   5.019   7.815  0.0393  0.0373  0.1726
  150SAPE  H11R16584   0.431   4.932   7.791  1.4279 -0.5757 -1.4421
  150SAPE  C21216585   0.536   5.019   7.943 -0.0222  0.3767  0.4545
  150SAPE  H12R16586   0.497   4.947   8.016  1.1125 -2.1576 -1.2852
  150SAPE  C21316587   0.630   5.116   8.004  0.3579  0.4370  0.0200
  150SAPE  H13R16588   0.587   5.173   8.089 -2.1708 -1.9900  0.5207
  150SAPE  H13S16589   0.668   5.197   7.938  1.9682 -0.6697 -0.4554
  150SAPE  C21416590   0.749   5.044   8.062  0.1148 -0.3386  0.1842
  150SAPE  H14R16591   0.839   5.040   7.999 -0.3468 -1.9188 -0.4439
  150SAPE  C21516592   0.772   5.005   8.188  0.1616  0.1919  0.8422
  150SAPE  H15R16593   0.869   4.959   8.211 -0.1899 -0.2925  1.3731
  150SAPE  C21616594   0.676   5.026   8.299 -0.7185 -0.7308  0.4260
  150SAPE  H16R16595   0.571   5.003   8.268 -0.5741  0.8171 -1.3514
  150SAPE  H16S16596   0.680   5.135   8.319  1.1254 -0.3369 -1.6818
  150SAPE  C21716597   0.692   4.932   8.424 -0.3793  0.2708  0.2491
  150SAPE  H17R16598   0.798   4.922   8.456  0.2319  1.6214 -1.2250
  150SAPE  H17S16599   0.659   4.834   8.384 -1.5051  1.2889 -1.4269
  150SAPE  C21816600   0.605   4.974   8.547 -0.6493 -0.0357 -0.7055
  150SAPE  H18R16601   0.635   5.072   8.590  0.0129 -0.4670 -0.1698
  150SAPE  H18S16602   0.624   4.906   8.633  1.1246  1.9297  0.5493
  150SAPE  C21916603   0.452   4.966   8.523 -0.2640  0.1884  0.0680
  150SAPE  H19R16604   0.410   4.870   8.486 -1.1663  0.3613  0.6338
  150SAPE  H19S16605   0.446   5.043   8.443 -1.4555  0.2552  0.2029
  150SAPE  C22016606   0.369   5.010   8.642 -0.3997  0.3805 -0.2836
  150SAPE  H20R16607   0.404   5.103   8.693 -2.0840 -0.8296  3.5026
  150SAPE  H20S16608   0.369   4.931   8.720  0.0693  0.2224 -0.4396
  150SAPE  H20T16609   0.261   5.022   8.620 -0.5229  0.2205  0.2182
  150SAPE   C3316610   0.933   4.322   7.206 -0.6022  0.3266 -0.4324
  150SAPE   H3X16611   0.913   4.215   7.181 -4.0924  1.1670 -1.7695
  150SAPE   H3Y16612   0.834   4.364   7.177 -1.3436 -1.4920 -0.6886
  150SAPE   C3416613   0.965   4.357   7.353 -0.2475  0.0043 -0.0776
  150SAPE   H4X16614   0.921   4.459   7.360 -3.7316 -1.3386 -0.2980
  150SAPE   H4Y16615   1.074   4.348   7.368 -0.1618  0.3259 -0.4885
  150SAPE   C3516616   0.904   4.259   7.455  0.1222 -0.8560  0.4623
  150SAPE   H5X16617   0.925   4.162   7.406  2.1378 -0.2641  0.0473
  150SAPE   H5Y16618   0.794   4.275   7.462  0.1324 -0.5231 -0.0889
  150SAPE   C3616619   0.961   4.257   7.602 -0.0938 -0.6000  0.6994
  150SAPE   H6X16620   0.946   4.362   7.633 -0.1388 -0.2378 -0.5005
  150SAPE   H6Y16621   1.068   4.229   7.596  0.1542  0.4627 -0.0537
  150SAPE   C3716622   0.881   4.168   7.696 -0.2238  0.1109  0.2457
  150SAPE   H7X16623   0.909   4.061   7.689  3.1845  0.8860  0.2535
  150SAPE   H7Y16624   0.773   4.175   7.671  0.1603 -0.1727 -1.6734
  150SAPE   C3816625   0.920   4.207   7.843 -0.4517 -0.9376  0.8285
  150SAPE   H8X16626   0.907   4.315   7.865  0.9694  0.1290 -2.7658
  150SAPE   H8Y16627   1.030   4.190   7.842 -0.0484  0.7887 -3.1753
  150SAPE   C3916628   0.866   4.128   7.959 -0.1941 -0.3281 -0.2329
  150SAPE   H9X16629   0.884   4.019   7.948 -0.3207 -0.6031  1.9130
  150SAPE   H9Y16630   0.755   4.138   7.961 -0.4117 -2.4092  0.3980
  150SAPE  C31016631   0.913   4.181   8.094  0.4020 -0.5388 -0.8584
  150SAPE  H10X16632   0.898   4.291   8.107  1.9774 -0.5113  1.3884
  150SAPE  H10Y16633   1.022   4.161   8.104  0.5919  0.6290 -0.4495
  150SAPE  C31116634   0.852   4.102   8.214 -0.7320 -0.7415 -0.7182
  150SAPE  H11X16635   0.754   4.151   8.230 -2.0909 -3.0437 -1.4553
  150SAPE  H11Y16636   0.898   4.121   8.314 -1.5896 -2.2752  0.0166
  150SAPE  C31216637   0.837   3.955   8.192  0.2618 -0.2039  1.1672
  150SAPE  H12X16638   0.933   3.903   8.174 -0.8654 -2.4753  1.2889
  150SAPE  H12Y16639   0.769   3.944   8.104  0.7732  0.0424  0.7358
  150SAPE  C31316640   0.780   3.873   8.312  0.1205  0.5819 -0.2753
  150SAPE  H13X16641   0.687   3.922   8.348 -1.7447 -1.6955 -1.6801
  150SAPE  H13Y16642   0.848   3.903   8.394 -1.7730 -0.3851  1.7262
  150SAPE  C31416643   0.746   3.726   8.296  0.1678 -0.4758 -0.5252
  150SAPE  H14X16644   0.674   3.702   8.377 -0.5931  0.3799 -0.9340
  150SAPE  H14Y16645   0.835   3.663   8.319  1.2993  0.1786 -2.7711
  150SAPE  C31516646   0.678   3.691   8.162  0.0448  0.2110  0.3447
  150SAPE  H15X16647   0.733   3.732   8.075 -2.7353  0.9015 -1.2369
  150SAPE  H15Y16648   0.581   3.746   8.164 -0.3213 -0.4353  1.3229
  150SAPE  C31616649   0.646   3.541   8.143  0.3094  0.2644 -0.0685
  150SAPE  H16X16650   0.575   3.535   8.058  0.2304 -0.4885  0.0412
  150SAPE  H16Y16651   0.601   3.502   8.238  2.8923  2.3585  2.1746
  150SAPE  C31716652   0.760   3.455   8.119 -0.1834  0.1710 -0.2620
  150SAPE  H17X16653   0.819   3.450   8.213  0.5458  1.4461 -0.6268
  150SAPE  H17Y16654   0.826   3.482   8.033  0.6312  0.0663  0.3156
  150SAPE  C31816655   0.716   3.312   8.093 -0.2133 -0.2433 -0.2660
  150SAPE  H18X16656   0.655   3.320   8.001  1.3304  1.0865 -1.2273
  150SAPE  H18Y16657   0.648   3.289   8.178  0.4691 -2.1533 -0.1883
  150SAPE  H18Z16658   0.797   3.239   8.071  1.0870  1.5628 -1.8022
  151SAPE     N16659   3.060   1.340   6.510  0.6268  0.7129 -0.6181
  151SAPE   HN116660   3.024   1.438   6.511  2.2530  1.3718  1.4389
  151SAPE   HN216661   3.114   1.329   6.422 -1.0659  0.7336 -1.7049
  151SAPE   HN316662   2.982   1.273   6.526 -0.0557  1.8696  1.2372
  151SAPE   C1216663   3.165   1.329   6.612 -0.0074  0.1844 -0.5912
  151SAPE  H12A16664   3.207   1.226   6.606  0.2687  0.3787 -3.4933
  151SAPE  H12B16665   3.115   1.345   6.709 -3.9589  0.8659 -2.5452
  151SAPE   C1116666   3.276   1.442   6.599  0.7716 -0.1351 -0.1214
  151SAPE  H11A16667   3.337   1.436   6.692 -0.8646  0.6140  1.0316
  151SAPE  H11B16668   3.223   1.539   6.592  1.6186  0.2809 -1.0983
  151SAPE     P16669   3.321   1.482   6.347  0.2348 -0.2373  0.1604
  151SAPE   O1316670   3.450   1.458   6.271  0.0267  0.6023  0.6197
  151SAPE   O1416671   3.200   1.422   6.290  0.1785  0.0630  0.4737
  151SAPE   O1216672   3.346   1.411   6.484 -0.2841  0.2216 -0.8458
  151SAPE   O1116673   3.298   1.633   6.374  0.4290  0.4270 -0.7387
  151SAPE    C116674   3.397   1.739   6.360  0.4397  0.0051 -0.1039
  151SAPE    HA16675   3.426   1.759   6.255  1.1638 -2.2894 -0.3931
  151SAPE    HB16676   3.349   1.835   6.388  1.8896  1.2336 -1.5928
  151SAPE    C216677   3.522   1.724   6.444 -0.8237  0.2102 -0.1498
  151SAPE    HS16678   3.574   1.629   6.417  0.1533  0.9478 -0.9639
  151SAPE   O2116679   3.478   1.720   6.581  0.0161 -0.3513  0.5894
  151SAPE   C2116680   3.570   1.690   6.668 -1.2277 -0.4384  0.4588
  151SAPE   O2216681   3.680   1.643   6.637 -0.2062 -0.2434 -0.2227
  151SAPE   C2216682   3.509   1.703   6.815 -0.2221 -0.2753  0.6734
  151SAPE   H2R16683   3.485   1.810   6.831 -0.1598 -0.2156  0.3680
  151SAPE   H2S16684   3.411   1.650   6.819  0.3711 -1.3360  3.2993
  151SAPE    C316685   3.628   1.836   6.411 -0.3512 -0.2019 -0.3285
  151SAPE    HX16686   3.637   1.828   6.301  1.1087  2.7620 -0.5356
  151SAPE    HY16687   3.731   1.825   6.452  0.7188  1.5005 -2.3452
  151SAPE   O3116688   3.582   1.972   6.448 -0.4697 -0.0447  0.6119
  151SAPE   C3116689   3.602   2.005   6.577  0.7214  0.3616  0.5690
  151SAPE   O3216690   3.679   1.947   6.654 -0.1128 -0.4373 -0.0816
  151SAPE   C3216691   3.519   2.132   6.609  0.8375  0.2608 -0.8802
  151SAPE   H2X16692   3.480   2.179   6.516  1.0740  0.1216 -1.0502
  151SAPE   H2Y16693   3.590   2.204   6.657  2.2034 -0.3502 -1.9189
  151SAPE   C2316694   3.604   1.654   6.925 -0.7080 -0.0225 -0.1492
  151SAPE   H3R16695   3.709   1.690   6.921 -0.3437 -0.8801  1.0818
  151SAPE   H3S16696   3.614   1.544   6.929 -0.3453 -0.1892 -3.1913
  151SAPE   C2416697   3.565   1.707   7.068  0.0233  0.3995  0.2455
  151SAPE   H4R16698   3.547   1.817   7.068 -0.8512  0.3003  2.3026
  151SAPE   H4S16699   3.652   1.675   7.128 -0.7698  0.5860  1.5260
  151SAPE   C2516700   3.440   1.642   7.123  0.4173 -0.3874 -0.1268
  151SAPE   H5R16701   3.345   1.680   7.082  0.6792 -0.5254 -0.8726
  151SAPE   C2616702   3.431   1.555   7.221  0.2207  0.2403 -0.4585
  151SAPE   H6R16703   3.331   1.517   7.247  0.5953 -0.0498  0.6158
  151SAPE   C2716704   3.545   1.517   7.309 -0.0543  0.8094  0.2869
  151SAPE   H7R16705   3.604   1.605   7.342  0.9081 -0.0999  1.0381
  151SAPE   H7S16706   3.617   1.461   7.247 -0.1452  0.8425  0.1513
  151SAPE   C2816707   3.509   1.436   7.434  0.0847 -0.5221  0.1954
  151SAPE   H8R16708   3.539   1.331   7.425  0.5423 -0.4976  1.2388
  151SAPE   C2916709   3.456   1.475   7.554  0.1262  0.1066  0.2465
  151SAPE   H9R16710   3.439   1.397   7.630  2.2737 -1.9264 -1.2162
  151SAPE  C21016711   3.419   1.622   7.591 -0.2076  0.7385 -0.1993
  151SAPE  H10R16712   3.309   1.631   7.601 -0.1499  0.0038  1.4596
  151SAPE  H10S16713   3.452   1.691   7.511  1.2825 -1.4674 -1.6072
  151SAPE  C21116714   3.481   1.656   7.722 -0.0883  0.6702 -0.0425
  151SAPE  H11R16715   3.591   1.658   7.726 -0.0786 -0.7538  1.4611
  151SAPE  C21216716   3.438   1.704   7.839  0.7332  0.6430 -0.8032
  151SAPE  H12R16717   3.508   1.740   7.916  0.5548  2.2872 -1.3810
  151SAPE  C21316718   3.295   1.722   7.876 -0.5696  0.0625  0.3384
  151SAPE  H13R16719   3.225   1.672   7.805 -0.6877  0.6423  0.0401
  151SAPE  H13S16720   3.261   1.828   7.881 -0.7916 -0.0528  1.4564
  151SAPE  C21416721   3.257   1.661   8.009  0.4627  0.1960  0.2199
  151SAPE  H14R16722   3.239   1.553   8.003  1.5200  0.0467 -0.6264
  151SAPE  C21516723   3.226   1.729   8.114  0.2277 -0.3328 -0.3261
  151SAPE  H15R16724   3.200   1.673   8.205 -0.2011  2.2632  1.2701
  151SAPE  C21616725   3.223   1.880   8.136 -0.0529  0.2622  0.5268
  151SAPE  H16R16726   3.120   1.905   8.170 -0.2158  0.5671 -0.1860
  151SAPE  H16S16727   3.248   1.929   8.040 -4.1949 -0.5997 -1.2313
  151SAPE  C21716728   3.315   1.914   8.257  0.7409  0.0177 -0.4503
  151SAPE  H17R16729   3.421   1.915   8.224  0.8897 -1.6226 -0.1122
  151SAPE  H17S16730   3.312   1.832   8.333  0.0770 -0.0928 -0.5878
  151SAPE  C21816731   3.280   2.042   8.328 -0.0515  0.5123 -0.1956
  151SAPE  H18R16732   3.248   2.132   8.271 -0.4765  0.4857  0.0006
  151SAPE  H18S16733   3.369   2.072   8.388 -0.1574  6.5486 -2.2788
  151SAPE  C21916734   3.149   2.040   8.422 -1.1002 -0.7825  0.2701
  151SAPE  H19R16735   3.074   1.970   8.381 -3.4482  0.8354  1.5784
  151SAPE  H19S16736   3.111   2.144   8.427  3.1151  0.9696  0.8110
  151SAPE  C22016737   3.197   1.990   8.557  0.4647  0.7257 -0.3752
  151SAPE  H20R16738   3.298   2.029   8.583  1.0145  0.0136 -1.4088
  151SAPE  H20S16739   3.128   2.014   8.642 -0.4772 -0.2995 -0.8308
  151SAPE  H20T16740   3.218   1.881   8.553  0.4990  0.7190 -0.0757
  151SAPE   C3316741   3.398   2.102   6.706 -0.4496  0.1373 -0.3815
  151SAPE   H3X16742   3.339   2.015   6.671 -1.7672  1.6229 -1.9981
  151SAPE   H3Y16743   3.319   2.179   6.700 -1.7130 -1.0899  0.0570
  151SAPE   C3416744   3.439   2.096   6.859 -0.5923 -0.2527  0.1142
  151SAPE   H4X16745   3.474   2.197   6.890 -0.5993  0.2024 -1.2848
  151SAPE   H4Y16746   3.518   2.019   6.864 -0.5177 -0.1647  0.3243
  151SAPE   C3516747   3.316   2.059   6.941  0.2509 -0.3704  0.6058
  151SAPE   H5X16748   3.283   1.957   6.911 -0.5622  1.0153 -3.9574
  151SAPE   H5Y16749   3.233   2.127   6.913 -1.1501 -1.9631  0.7151
  151SAPE   C3616750   3.345   2.067   7.093  0.4899 -0.1712 -0.4542
  151SAPE   H6X16751   3.374   2.169   7.127 -0.4701  1.3100 -3.6842
  151SAPE   H6Y16752   3.420   1.988   7.119 -1.7457 -1.9226  1.0710
  151SAPE   C3716753   3.225   2.016   7.174  0.4553  0.3563 -0.2779
  151SAPE   H7X16754   3.201   1.915   7.136  0.8434  0.6697 -1.3899
  151SAPE   H7Y16755   3.149   2.094   7.152 -0.6844 -1.2896 -2.4842
  151SAPE   C3816756   3.255   1.979   7.321  0.5983  0.6486  0.5821
  151SAPE   H8X16757   3.342   1.911   7.313  0.4312  0.6959 -2.8822
  151SAPE   H8Y16758   3.165   1.929   7.363 -0.5614  1.2152 -1.1308
  151SAPE   C3916759   3.299   2.094   7.410  0.0225 -0.2604  0.3394
  151SAPE   H9X16760   3.216   2.167   7.405 -0.5299 -0.8768  0.2840
  151SAPE   H9Y16761   3.386   2.151   7.371 -0.7461  1.0075  0.4418
  151SAPE  C31016762   3.323   2.046   7.553 -0.1871  0.7366 -0.2407
  151SAPE  H10X16763   3.400   1.966   7.561 -1.4373 -0.6426 -1.5601
  151SAPE  H10Y16764   3.229   1.995   7.583  0.2626  0.8578  1.5452
  151SAPE  C31116765   3.353   2.153   7.659  0.4433 -1.1842  0.7459
  151SAPE  H11X16766   3.269   2.225   7.672  1.6693  0.2117  1.2006
  151SAPE  H11Y16767   3.447   2.203   7.626  2.0571 -2.2415  3.4089
  151SAPE  C31216768   3.388   2.115   7.805  0.1781 -0.4097 -0.0877
  151SAPE  H12X16769   3.458   2.028   7.804  1.5306  0.6490 -0.3583
  151SAPE  H12Y16770   3.301   2.070   7.856  0.0734 -0.9100 -0.6882
  151SAPE  C31316771   3.446   2.219   7.894 -0.0631  0.2052 -0.2897
  151SAPE  H13X16772   3.376   2.305   7.905  1.7297  1.9919 -1.8692
  151SAPE  H13Y16773   3.541   2.250   7.844 -0.5826 -0.6815 -1.8948
  151SAPE  C31416774   3.472   2.158   8.031  0.0813  0.0100 -0.4728
  151SAPE  H14X16775   3.548   2.078   8.018 -1.8996 -1.9856 -0.3725
  151SAPE  H14Y16776   3.377   2.110   8.062  0.6661 -0.3997  0.7332
  151SAPE  C31516777   3.525   2.252   8.139 -0.2511 -0.7201 -0.1601
  151SAPE  H15X16778   3.490   2.218   8.239  1.3829 -0.0480  0.6790
  151SAPE  H15Y16779   3.486   2.355   8.126  0.3908 -0.4133  0.3230
  151SAPE  C31616780   3.679   2.257   8.160 -0.1572 -0.0764  0.1447
  151SAPE  H16X16781   3.711   2.152   8.147  1.4437  0.5323 -1.0911
  151SAPE  H16Y16782   3.703   2.304   8.258 -0.9523 -0.9860  0.7982
  151SAPE  C31716783   3.761   2.333   8.056  0.2916  0.5784  0.3171
  151SAPE  H17X16784   3.714   2.433   8.040  0.0339  0.4079 -0.0106
  151SAPE  H17Y16785   3.779   2.266   7.969  2.4244 -1.1543  1.9806
  151SAPE  C31816786   3.905   2.364   8.116 -0.4414 -0.4040 -0.8383
  151SAPE  H18X16787   3.969   2.397   8.032  0.4914  0.5521  0.2053
  151SAPE  H18Y16788   3.961   2.276   8.155 -1.1702 -0.2560  0.6378
  151SAPE  H18Z16789   3.895   2.454   8.180  0.2485 -0.2418 -0.9624
  152SAPE     N16790   0.598   5.499   5.909 -0.3499 -0.5430 -0.1709
  152SAPE   HN116791   0.637   5.533   5.819 -3.1961 -0.4897 -1.5129
  152SAPE   HN216792   0.508   5.550   5.924  0.0322  1.0029 -2.5781
  152SAPE   HN316793   0.663   5.516   5.988  0.0813  0.3651 -0.7092
  152SAPE   C1216794   0.583   5.351   5.918 -0.3985  0.0493 -0.0406
  152SAPE  H12A16795   0.570   5.314   5.814  0.0264  0.3748 -0.2100
  152SAPE  H12B16796   0.496   5.329   5.984  0.0684 -0.8608  0.2918
  152SAPE   C1116797   0.716   5.301   5.983 -0.0447  0.1931 -0.4835
  152SAPE  H11A16798   0.806   5.349   5.942  0.6345  0.2932  1.0531
  152SAPE  H11B16799   0.717   5.190   5.971 -1.8503  0.1915 -0.9890
  152SAPE     P16800   0.788   5.434   6.205  0.1331  0.0692  0.0394
  152SAPE   O1316801   0.915   5.379   6.249 -0.0603 -0.3077 -0.3413
  152SAPE   O1416802   0.792   5.562   6.127  0.6599  0.2844 -0.0478
  152SAPE   O1216803   0.716   5.315   6.122  0.2898 -1.0546 -0.3335
  152SAPE   O1116804   0.688   5.456   6.324 -0.3730  0.1196  0.1353
  152SAPE    C116805   0.600   5.350   6.375 -0.6919  0.0218  0.3039
  152SAPE    HA16806   0.533   5.309   6.296  0.7486 -0.7424 -0.5615
  152SAPE    HB16807   0.675   5.280   6.418 -0.5497  0.8713  1.4749
  152SAPE    C216808   0.507   5.395   6.493  0.1678 -0.0988 -0.0250
  152SAPE    HS16809   0.434   5.472   6.458 -0.2542 -0.0098  1.0052
  152SAPE   O2116810   0.585   5.427   6.613  0.2016 -0.3178  0.0623
  152SAPE   C2116811   0.533   5.512   6.697 -0.5207  0.4494 -0.6987
  152SAPE   O2216812   0.430   5.577   6.679  0.2485  0.0446 -0.3262
  152SAPE   C2216813   0.621   5.534   6.816 -0.0593  0.0979  0.1200
  152SAPE   H2R16814   0.670   5.438   6.843 -0.5762 -0.6474 -1.4314
  152SAPE   H2S16815   0.700   5.603   6.780 -2.2666  1.7569 -1.8438
  152SAPE    C316816   0.411   5.276   6.524  0.3692  0.6501 -0.2812
  152SAPE    HX16817   0.484   5.193   6.539 -1.7117 -1.0909  0.7678
  152SAPE    HY16818   0.357   5.253   6.430 -0.0859  1.4336 -0.2253
  152SAPE   O3116819   0.322   5.297   6.635 -0.0799 -0.3299 -0.1251
  152SAPE   C3116820   0.362   5.243   6.745  0.3024 -0.8283 -0.4067
  152SAPE   O3216821   0.459   5.174   6.766  0.0403  0.5552 -0.7017
  152SAPE   C3216822   0.265   5.290   6.854 -0.4196 -0.7965  0.4914
  152SAPE   H2X16823   0.179   5.221   6.868 -0.9873  0.1692  1.9463
  152SAPE   H2Y16824   0.227   5.392   6.833  2.9089  0.4637 -0.0862
  152SAPE   C2316825   0.549   5.611   6.929 -0.4900 -0.1879 -0.2255
  152SAPE   H3R16826   0.452   5.564   6.958  0.0516 -1.0850  0.1863
  152SAPE   H3S16827   0.529   5.713   6.890 -0.6924 -0.6360 -1.3336
  152SAPE   C2416828   0.645   5.631   7.049  0.1537 -0.1208 -0.9132
  152SAPE   H4R16829   0.593   5.698   7.120 -0.7142 -1.7463  0.0486
  152SAPE   H4S16830   0.732   5.683   7.005 -0.0198  2.1414  1.2190
  152SAPE   C2516831   0.678   5.503   7.110 -0.6232  0.0991  0.3350
  152SAPE   H5R16832   0.712   5.429   7.037 -0.8303 -1.9162  2.1769
  152SAPE   C2616833   0.676   5.482   7.247 -0.6835 -0.1238  0.0692
  152SAPE   H6R16834   0.719   5.383   7.270 -0.5471  0.0699  0.6552
  152SAPE   C2716835   0.656   5.591   7.358  0.4842 -0.2537  0.9217
  152SAPE   H7R16836   0.701   5.683   7.316 -2.8089  0.3682 -1.6566
  152SAPE   H7S16837   0.718   5.567   7.447 -0.9334  0.9072  2.2722
  152SAPE   C2816838   0.517   5.602   7.406 -0.0684 -0.5319  0.1635
  152SAPE   H8R16839   0.444   5.571   7.330  1.4184  0.7473 -1.8801
  152SAPE   C2916840   0.470   5.636   7.528  0.1381 -0.0231 -0.5326
  152SAPE   H9R16841   0.369   5.600   7.551 -1.1671  2.9146 -1.2565
  152SAPE  C21016842   0.559   5.670   7.645 -0.7700 -0.3675  0.7717
  152SAPE  H10R16843   0.527   5.759   7.702  0.1591 -1.4459  3.1020
  152SAPE  H10S16844   0.658   5.706   7.608  0.8178 -3.0499  2.0880
  152SAPE  C21116845   0.594   5.553   7.736  0.2337 -0.1279  0.0060
  152SAPE  H11R16846   0.640   5.461   7.696  0.9243  0.5006 -0.6920
  152SAPE  C21216847   0.567   5.560   7.872 -0.5317  0.7598  0.0952
  152SAPE  H12R16848   0.573   5.466   7.927 -0.3589  0.8250  0.1898
  152SAPE  C21316849   0.495   5.669   7.938  0.6312 -0.1416  0.3158
  152SAPE  H13R16850   0.443   5.622   8.024 -0.1252 -0.0851 -0.1045
  152SAPE  H13S16851   0.405   5.694   7.878 -1.8761  0.5833  4.0257
  152SAPE  C21416852   0.583   5.788   7.977 -0.0208  0.0094  0.0715
  152SAPE  H14R16853   0.632   5.841   7.894  1.0430 -0.6752  0.2466
  152SAPE  C21516854   0.609   5.832   8.098 -0.1355 -0.0267 -0.3099
  152SAPE  H15R16855   0.665   5.925   8.114 -2.2309  0.6866  4.7878
  152SAPE  C21616856   0.541   5.784   8.223 -0.6027 -0.3396 -0.2182
  152SAPE  H16R16857   0.596   5.697   8.265 -1.3522  0.4896  2.6595
  152SAPE  H16S16858   0.437   5.752   8.198 -0.8344 -1.1221  1.5747
  152SAPE  C21716859   0.529   5.893   8.327  0.4635 -0.0070  0.1939
  152SAPE  H17R16860   0.628   5.934   8.360 -0.0035  1.5646 -0.2817
  152SAPE  H17S16861   0.485   5.844   8.417 -1.4010  0.2979 -0.5121
  152SAPE  C21816862   0.444   6.021   8.282 -0.4234  0.2889 -0.2567
  152SAPE  H18R16863   0.342   5.990   8.250 -0.6874 -0.0309  0.8545
  152SAPE  H18S16864   0.494   6.068   8.195 -1.1105  1.5064 -0.0181
  152SAPE  C21916865   0.430   6.114   8.397  0.2326 -0.1760  0.0331
  152SAPE  H19R16866   0.436   6.060   8.494  0.0777  0.3714  0.3536
  152SAPE  H19S16867   0.329   6.161   8.396 -0.2320 -1.1246  0.5758
  152SAPE  C22016868   0.538   6.220   8.404  0.0954  0.9958 -0.5725
  152SAPE  H20R16869   0.548   6.258   8.300  1.3913 -0.5253 -1.0470
  152SAPE  H20S16870   0.632   6.176   8.444 -0.5632 -0.1231 -0.2352
  152SAPE  H20T16871   0.507   6.303   8.470  1.2772  1.2030 -0.2489
  152SAPE   C3316872   0.322   5.294   7.003 -0.2184 -0.1940  0.3760
  152SAPE   H3X16873   0.393   5.379   7.006 -0.9656  0.6300 -2.0569
  152SAPE   H3Y16874   0.373   5.197   7.022 -1.9241 -1.2389 -0.0975
  152SAPE   C3416875   0.213   5.323   7.111  0.1861  0.1308 -0.3626
  152SAPE   H4X16876   0.124   5.260   7.091 -0.2358  1.1058 -1.7274
  152SAPE   H4Y16877   0.191   5.431   7.097 -1.3297 -0.2312 -0.9405
  152SAPE   C3516878   0.271   5.300   7.250  0.4932 -0.1671 -0.0774
  152SAPE   H5X16879   0.366   5.357   7.249 -0.9209  2.5115 -3.3474
  152SAPE   H5Y16880   0.277   5.190   7.257 -1.2496 -0.2322  0.9999
  152SAPE   C3616881   0.177   5.353   7.361 -0.3149 -0.3021  0.0690
  152SAPE   H6X16882   0.078   5.302   7.349 -0.2030 -0.4094 -0.4045
  152SAPE   H6Y16883   0.170   5.461   7.340  0.1639 -0.2424  0.2185
  152SAPE   C3716884   0.244   5.323   7.494  0.3620  0.4111 -0.8300
  152SAPE   H7X16885   0.351   5.343   7.514  0.3756 -0.9844  0.7277
  152SAPE   H7Y16886   0.239   5.212   7.501 -0.5089  0.5378  1.3559
  152SAPE   C3816887   0.171   5.376   7.619  0.0719 -0.4087 -0.1977
  152SAPE   H8X16888   0.063   5.355   7.626  0.1020 -0.1897  1.2351
  152SAPE   H8Y16889   0.200   5.483   7.624  1.1531 -0.7158  0.4074
  152SAPE   C3916890   0.244   5.322   7.749  0.8618 -0.4538 -0.1158
  152SAPE   H9X16891   0.352   5.344   7.739  1.0042 -1.6241 -1.6664
  152SAPE   H9Y16892   0.226   5.213   7.754  0.0532 -0.3487 -0.4808
  152SAPE  C31016893   0.191   5.392   7.875  0.2318 -0.2932  0.2335
  152SAPE  H10X16894   0.082   5.371   7.875  0.1832 -0.1283  1.3614
  152SAPE  H10Y16895   0.197   5.502   7.857  2.7244  0.1616  2.9568
  152SAPE  C31116896   0.257   5.353   8.005 -0.3276 -0.0433  0.0124
  152SAPE  H11X16897   0.259   5.447   8.065 -1.3113 -0.4813  0.7675
  152SAPE  H11Y16898   0.358   5.312   7.983 -1.4943 -2.2991 -1.5350
  152SAPE  C31216899   0.184   5.243   8.073 -0.2045 -0.7573 -0.7217
  152SAPE  H12X16900   0.174   5.157   8.003  0.1833 -2.1826  0.9158
  152SAPE  H12Y16901   0.082   5.253   8.115  0.5152  0.8183  0.7502
  152SAPE  C31316902   0.274   5.190   8.190 -0.4394  0.6098  0.5065
  152SAPE  H13X16903   0.364   5.154   8.135  0.1681  0.6837  1.4296
  152SAPE  H13Y16904   0.230   5.098   8.234 -0.5965  0.7704  0.6899
  152SAPE  C31416905   0.324   5.292   8.295  0.2233  0.0181 -0.2747
  152SAPE  H14X16906   0.366   5.383   8.245  0.2112  0.3617  0.3291
  152SAPE  H14Y16907   0.406   5.252   8.358  1.8829  4.0367  0.4421
  152SAPE  C31516908   0.224   5.332   8.410 -0.3349  0.6844  0.8428
  152SAPE  H15X16909   0.220   5.245   8.480  1.8286 -0.3063 -0.1728
  152SAPE  H15Y16910   0.121   5.353   8.373  0.2159  2.6575  0.3406
  152SAPE  C31616911   0.250   5.444   8.501 -0.1198 -0.2715  0.1942
  152SAPE  H16X16912   0.212   5.536   8.453 -1.1759  0.2535  1.9194
  152SAPE  H16Y16913   0.360   5.456   8.509 -0.0252 -1.5492  1.2903
  152SAPE  C31716914   0.176   5.439   8.638  0.1164  0.6954  0.6281
  152SAPE  H17X16915   0.185   5.338   8.683 -0.9464  0.8557  1.2200
  152SAPE  H17Y16916   0.071   5.461   8.612  0.1630  0.4393  0.2160
  152SAPE  C31816917   0.234   5.550   8.732 -0.5963 -0.0895  0.2645
  152SAPE  H18X16918   0.297   5.622   8.674 -1.8263  0.9504  0.1705
  152SAPE  H18Y16919   0.313   5.519   8.803 -0.3528 -0.3789 -0.1250
  152SAPE  H18Z16920   0.157   5.602   8.793 -0.5494 -2.2377  2.2678
  153SAPE     N16921   4.110   5.344   6.289  0.0975 -0.0900 -0.0016
  153SAPE   HN116922   4.140   5.378   6.196  0.2538  1.0809  0.4621
  153SAPE   HN216923   4.162   5.403   6.357  0.0460 -2.3862  2.2058
  153SAPE   HN316924   4.154   5.250   6.298 -0.7784 -0.5159 -0.1139
  153SAPE   C1216925   3.962   5.350   6.314  0.6427  0.3195 -0.3674
  153SAPE  H12A16926   3.946   5.357   6.424 -0.2207  1.9548 -0.5640
  153SAPE  H12B16927   3.917   5.257   6.273  1.1609  0.5301 -1.4618
  153SAPE   C1116928   3.911   5.466   6.228  0.2207 -0.0045 -0.8080
  153SAPE  H11A16929   3.805   5.474   6.261  1.1165 -0.2424  2.4527
  153SAPE  H11B16930   3.915   5.452   6.118 -0.3382  0.8052 -0.9456
  153SAPE     P16931   3.959   5.663   6.392 -0.1493  0.0188  0.0578
  153SAPE   O1316932   4.047   5.590   6.493  0.7448  0.6489  0.5716
  153SAPE   O1416933   3.985   5.812   6.374 -0.3858  0.1082  0.3227
  153SAPE   O1216934   3.975   5.590   6.253  0.3749 -0.3847 -0.1078
  153SAPE   O1116935   3.802   5.646   6.415 -0.0190  0.2306 -0.6638
  153SAPE    C116936   3.722   5.759   6.461 -0.1544  0.2302 -0.6218
  153SAPE    HA16937   3.763   5.857   6.430 -0.5760  0.8548  0.7199
  153SAPE    HB16938   3.618   5.754   6.420 -1.1314  1.1979  1.5761
  153SAPE    C216939   3.704   5.769   6.620  0.1856  0.0904 -0.2725
  153SAPE    HS16940   3.633   5.855   6.622 -0.6286 -0.5422 -0.9270
  153SAPE   O2116941   3.829   5.799   6.682  0.1427 -0.0220  0.5697
  153SAPE   C2116942   3.864   5.925   6.680  0.0487 -0.2130  0.2708
  153SAPE   O2216943   3.808   6.016   6.626  0.5500 -0.4290 -0.1011
  153SAPE   C2216944   4.003   5.940   6.747  1.2640  0.0898 -0.2573
  153SAPE   H2R16945   3.995   5.900   6.851 -0.3952  0.1457 -0.3297
  153SAPE   H2S16946   4.066   5.869   6.690  0.0424 -0.2854 -1.1911
  153SAPE    C316947   3.631   5.638   6.684  0.3221  0.3096  0.5820
  153SAPE    HX16948   3.715   5.565   6.685  0.7192  0.7635  0.9471
  153SAPE    HY16949   3.547   5.604   6.620  1.9795 -0.8842 -1.0811
  153SAPE   O3116950   3.591   5.661   6.823 -0.0343  0.1104  0.3565
  153SAPE   C3116951   3.484   5.745   6.827  0.0215  0.8039  0.1959
  153SAPE   O3216952   3.434   5.790   6.727 -0.0320  0.1162  0.1592
  153SAPE   C3216953   3.446   5.787   6.965  0.8269 -0.1900  0.6910
  153SAPE   H2X16954   3.447   5.699   7.031  2.1856 -1.3413 -0.7723
  153SAPE   H2Y16955   3.343   5.828   6.970  1.2244  0.9335  0.1405
  153SAPE   C2316956   4.048   6.088   6.740  0.1617 -0.5588 -0.2182
  153SAPE   H3R16957   3.979   6.165   6.783 -0.3570 -1.8942  1.4570
  153SAPE   H3S16958   4.086   6.122   6.642 -0.2450 -1.0945 -0.5698
  153SAPE   C2416959   4.172   6.103   6.829  0.3711 -0.1175  1.0603
  153SAPE   H4R16960   4.135   6.064   6.927  0.5877  0.4229  1.3597
  153SAPE   H4S16961   4.195   6.209   6.849 -0.0700  0.0989  0.4668
  153SAPE   C2516962   4.290   6.029   6.779  0.6829  0.0216  0.1123
  153SAPE   H5R16963   4.301   6.032   6.669 -0.0333  0.9128  0.0548
  153SAPE   C2616964   4.375   5.959   6.859 -0.1224  0.0750  0.2852
  153SAPE   H6R16965   4.453   5.898   6.811 -1.5385 -0.5294 -1.3687
  153SAPE   C2716966   4.359   5.958   7.008 -0.2664  0.5688  0.3747
  153SAPE   H7R16967   4.421   5.871   7.038  3.2614  2.1398 -1.7365
  153SAPE   H7S16968   4.260   5.915   7.036  0.1588  0.2847  1.5200
  153SAPE   C2816969   4.378   6.086   7.087  0.6973 -0.1502  0.2779
  153SAPE   H8R16970   4.436   6.165   7.037 -0.5186  0.2732 -0.4993
  153SAPE   C2916971   4.344   6.096   7.215  0.6941  0.2978 -0.2063
  153SAPE   H9R16972   4.358   6.190   7.270 -2.4897  0.5388  0.4042
  153SAPE  C21016973   4.278   5.993   7.300  0.2600 -0.2092 -0.0733
  153SAPE  H10R16974   4.350   5.958   7.378 -0.0429  0.1581  0.3736
  153SAPE  H10S16975   4.258   5.897   7.248 -0.1574 -0.1008 -0.1172
  153SAPE  C21116976   4.142   6.027   7.362 -0.6827 -0.1089  0.2102
  153SAPE  H11R16977   4.055   6.027   7.296 -0.7426  3.4828  0.0816
  153SAPE  C21216978   4.118   6.051   7.495  0.3635 -0.8369  0.1697
  153SAPE  H12R16979   4.021   6.098   7.512  0.1335 -0.3995 -2.0212
  153SAPE  C21316980   4.216   6.053   7.610 -0.5515 -0.5542 -0.1498
  153SAPE  H13R16981   4.173   6.105   7.698  0.4827 -1.7759  1.1133
  153SAPE  H13S16982   4.295   6.115   7.563 -1.0857  0.5158  0.3304
  153SAPE  C21416983   4.273   5.926   7.659 -0.5956 -0.1026 -0.2372
  153SAPE  H14R16984   4.279   5.847   7.583 -0.8763  0.3430 -0.7289
  153SAPE  C21516985   4.295   5.888   7.788  0.8472  0.2645 -0.5460
  153SAPE  H15R16986   4.321   5.786   7.820 -0.7949  0.6971  2.5274
  153SAPE  C21616987   4.287   5.986   7.904  0.4258 -0.8988  0.2367
  153SAPE  H16R16988   4.243   6.085   7.876  2.3441 -0.3646 -1.1161
  153SAPE  H16S16989   4.388   6.012   7.942  0.2227  2.0226 -0.9149
  153SAPE  C21716990   4.204   5.935   8.025  0.2579  0.9343 -0.2705
  153SAPE  H17R16991   4.107   5.890   7.993  0.1930  1.4005 -0.7342
  153SAPE  H17S16992   4.190   6.020   8.096 -2.0839  0.1666  0.2951
  153SAPE  C21816993   4.282   5.826   8.107  0.2164 -0.3579 -0.0486
  153SAPE  H18R16994   4.391   5.849   8.098  0.1015  0.8244  1.2995
  153SAPE  H18S16995   4.257   5.725   8.067 -0.6536  0.4931 -1.7752
  153SAPE  C21916996   4.249   5.818   8.257  0.0006 -0.0997  0.0478
  153SAPE  H19R16997   4.167   5.743   8.265  0.3156 -0.5022 -0.3733
  153SAPE  H19S16998   4.210   5.910   8.305 -3.5705 -1.2879 -0.2362
  153SAPE  C22016999   4.365   5.761   8.341 -0.1759 -0.2718 -0.1020
  153SAPE  H20R17000   4.323   5.755   8.443  1.3917  0.0611  0.5823
  153SAPE  H20S17001   4.457   5.823   8.342 -0.3218 -0.0496  1.6666
  153SAPE  H20T17002   4.393   5.660   8.304 -1.6630 -0.4552 -0.8250
  153SAPE   C3317003   3.550   5.888   7.027  0.3383  0.1980 -0.9524
  153SAPE   H3X17004   3.503   5.942   7.112  2.2993 -1.1178  1.0699
  153SAPE   H3Y17005   3.568   5.961   6.945  0.4577  0.6027 -0.5702
  153SAPE   C3417006   3.694   5.833   7.047 -0.3241 -0.0029  0.3792
  153SAPE   H4X17007   3.725   5.790   6.949 -2.0779  1.0217 -0.6862
  153SAPE   H4Y17008   3.697   5.774   7.141  0.2986  0.7875  0.8709
  153SAPE   C3517009   3.810   5.937   7.058  0.7593 -0.9766 -0.2581
  153SAPE   H5X17010   3.817   5.994   6.963  3.0651 -0.0034  0.4138
  153SAPE   H5Y17011   3.903   5.878   7.070  1.2652 -0.4837 -1.5750
  153SAPE   C3617012   3.787   6.046   7.162 -0.5597  0.2112 -0.2010
  153SAPE   H6X17013   3.705   6.115   7.133 -1.0658  0.6202  2.0257
  153SAPE   H6Y17014   3.879   6.109   7.169 -0.6440  0.4376 -1.0253
  153SAPE   C3717015   3.761   5.989   7.306 -0.6366  0.2615  0.0851
  153SAPE   H7X17016   3.848   5.929   7.340 -0.6618  0.5291  0.6358
  153SAPE   H7Y17017   3.670   5.926   7.300 -0.7520  0.4812 -0.4959
  153SAPE   C3817018   3.747   6.096   7.419  0.1736 -0.4362 -0.0320
  153SAPE   H8X17019   3.654   6.152   7.393 -0.8194 -1.6537  0.7606
  153SAPE   H8Y17020   3.837   6.160   7.408 -0.5621  0.4660 -0.9917
  153SAPE   C3917021   3.734   6.048   7.567  0.0775  0.4175 -0.0041
  153SAPE   H9X17022   3.783   5.949   7.574 -1.0014 -0.1255 -0.0096
  153SAPE   H9Y17023   3.626   6.035   7.586  0.1562 -0.3295 -0.0705
  153SAPE  C31017024   3.782   6.148   7.676  0.3921 -0.0476 -0.2045
  153SAPE  H10X17025   3.749   6.251   7.648 -0.1106  0.1664  1.0733
  153SAPE  H10Y17026   3.892   6.142   7.663  0.2018 -3.4892 -1.1362
  153SAPE  C31117027   3.743   6.110   7.820 -0.2663 -0.2215 -0.3912
  153SAPE  H11X17028   3.636   6.132   7.842 -0.5364 -2.2893  0.6394
  153SAPE  H11Y17029   3.805   6.175   7.886  0.0550 -0.6619 -0.2547
  153SAPE  C31217030   3.750   5.968   7.863 -0.4885  0.1195  0.2575
  153SAPE  H12X17031   3.851   5.924   7.849  0.2245  2.0575 -1.2247
  153SAPE  H12Y17032   3.669   5.912   7.813  0.0846  1.0182 -1.7716
  153SAPE  C31317033   3.716   5.951   8.016  0.1896  0.1197 -0.9597
  153SAPE  H13X17034   3.612   5.987   8.030 -0.5270 -1.4148 -2.1055
  153SAPE  H13Y17035   3.778   6.026   8.070  0.5990 -0.4788 -0.5972
  153SAPE  C31417036   3.722   5.804   8.073 -1.0051 -0.4482 -0.2824
  153SAPE  H14X17037   3.826   5.766   8.077 -1.3615 -1.3388  1.7494
  153SAPE  H14Y17038   3.660   5.737   8.010 -1.5933  0.2928 -0.5119
  153SAPE  C31517039   3.648   5.801   8.211  0.1983 -0.5612  0.3116
  153SAPE  H15X17040   3.540   5.821   8.195  0.6010 -0.2777 -2.6735
  153SAPE  H15Y17041   3.689   5.887   8.268  0.3723 -1.2171  1.1937
  153SAPE  C31617042   3.669   5.670   8.286 -0.0775  0.9721  0.6531
  153SAPE  H16X17043   3.697   5.591   8.212  1.9043  0.1037  2.2323
  153SAPE  H16Y17044   3.575   5.632   8.332  0.1504 -0.1619  0.2243
  153SAPE  C31717045   3.772   5.675   8.399  0.1869 -0.0067  0.7664
  153SAPE  H17X17046   3.755   5.759   8.469  0.2581  0.4858  0.1955
  153SAPE  H17Y17047   3.858   5.704   8.335 -1.5093  3.4972 -0.1950
  153SAPE  C31817048   3.780   5.550   8.488 -0.6619 -1.0126  0.2256
  153SAPE  H18X17049   3.689   5.525   8.545  0.0354  2.4720  3.2649
  153SAPE  H18Y17050   3.849   5.569   8.573 -2.1688 -1.7455  1.6560
  153SAPE  H18Z17051   3.811   5.463   8.426  0.6863 -1.1815  1.1006
  154SAPE     N17052   2.374   4.667   6.296 -0.6037 -0.5458 -0.4714
  154SAPE   HN117053   2.356   4.760   6.253 -1.5106 -1.1794 -1.5375
  154SAPE   HN217054   2.320   4.642   6.381  2.5161 -1.7862  1.3195
  154SAPE   HN317055   2.471   4.674   6.333 -0.8596  1.9039 -0.1199
  154SAPE   C1217056   2.363   4.553   6.201 -0.2288 -0.0839  0.2170
  154SAPE  H12A17057   2.384   4.463   6.263  0.5582  0.5970  0.9536
  154SAPE  H12B17058   2.426   4.583   6.115 -0.1941  1.4349  0.7440
  154SAPE   C1117059   2.215   4.542   6.176 -0.0087  0.0709 -0.1935
  154SAPE  H11A17060   2.156   4.521   6.268 -1.2211 -0.5566 -1.0851
  154SAPE  H11B17061   2.202   4.455   6.108  0.3000 -0.4944  0.4598
  154SAPE     P17062   2.024   4.719   6.132 -0.0836  0.4038 -0.1302
  154SAPE   O1317063   2.012   4.840   6.054 -0.5821  0.0824 -0.2062
  154SAPE   O1417064   1.919   4.623   6.106  0.9395 -0.5073  0.0006
  154SAPE   O1217065   2.159   4.650   6.105  0.0108  0.0593 -0.2041
  154SAPE   O1117066   2.041   4.755   6.288 -0.2207 -0.2969 -0.3189
  154SAPE    C117067   1.974   4.879   6.329 -0.2432  0.5861 -0.6826
  154SAPE    HA17068   2.048   4.961   6.331  0.7047 -0.2341 -1.1830
  154SAPE    HB17069   1.882   4.899   6.270 -2.0034 -2.8382  0.5981
  154SAPE    C217070   1.919   4.863   6.470 -0.5222 -0.4559 -0.4770
  154SAPE    HS17071   1.859   4.953   6.493  0.8910  0.3013  0.3756
  154SAPE   O2117072   2.016   4.845   6.578  0.3079  0.3779  0.0603
  154SAPE   C2117073   2.080   4.947   6.616  0.0289 -0.3319 -0.3988
  154SAPE   O2217074   2.052   5.061   6.580 -0.7129 -0.6855 -0.9916
  154SAPE   C2217075   2.197   4.910   6.704 -0.1865 -0.5574 -0.0516
  154SAPE   H2R17076   2.180   4.807   6.744  0.0710 -1.5086 -2.2406
  154SAPE   H2S17077   2.290   4.917   6.645  0.5700  4.0978  1.2994
  154SAPE    C317078   1.813   4.746   6.461 -0.3671 -0.5187 -0.2414
  154SAPE    HX17079   1.869   4.650   6.459  0.0762 -0.2627 -1.7405
  154SAPE    HY17080   1.763   4.755   6.362 -0.4073 -0.4395 -0.2140
  154SAPE   O3117081   1.722   4.756   6.576 -0.0807  0.0521  0.0602
  154SAPE   C3117082   1.588   4.751   6.554 -0.2624  0.8315 -0.5070
  154SAPE   O3217083   1.533   4.720   6.451  0.5061 -0.2611 -0.1248
  154SAPE   C3217084   1.530   4.774   6.696  0.1631 -0.8296  0.0250
  154SAPE   H2X17085   1.549   4.881   6.717  2.9445 -1.3420  0.4456
  154SAPE   H2Y17086   1.597   4.731   6.773  0.5389  0.9444  0.7482
  154SAPE   C2317087   2.210   5.015   6.826 -0.2510  0.6093 -0.1825
  154SAPE   H3R17088   2.188   5.118   6.790 -0.7939  0.1026 -1.3744
  154SAPE   H3S17089   2.316   5.002   6.860  0.4361 -0.3627 -2.4837
  154SAPE   C2417090   2.119   4.983   6.941  0.0220  0.4371  0.6229
  154SAPE   H4R17091   2.142   4.884   6.985  2.2080  0.9131  0.6820
  154SAPE   H4S17092   2.014   4.979   6.904  0.5050  0.0780 -0.7518
  154SAPE   C2517093   2.147   5.091   7.041 -0.0143  0.5361 -0.0653
  154SAPE   H5R17094   2.125   5.193   7.005 -0.0513  1.3498  2.1049
  154SAPE   C2617095   2.185   5.082   7.169 -0.5344  0.3912 -0.6272
  154SAPE   H6R17096   2.214   5.172   7.225  1.2606 -2.1592  2.9448
  154SAPE   C2717097   2.216   4.955   7.251 -0.0719  0.4584 -0.3906
  154SAPE   H7R17098   2.293   4.977   7.328 -0.8764  0.8866  0.3101
  154SAPE   H7S17099   2.259   4.877   7.184 -0.9637  0.5521 -1.0960
  154SAPE   C2817100   2.094   4.891   7.315  0.6255  0.1738 -0.2141
  154SAPE   H8R17101   2.026   4.836   7.248  0.5255 -0.1446  0.1437
  154SAPE   C2917102   2.063   4.887   7.448  0.0108  0.4600 -1.0483
  154SAPE   H9R17103   1.972   4.832   7.477  1.1497 -0.3807  1.2094
  154SAPE  C21017104   2.144   4.946   7.565  0.0614  0.1393  0.9262
  154SAPE  H10R17105   2.250   4.935   7.533 -0.1082 -0.6845  0.6152
  154SAPE  H10S17106   2.120   4.883   7.653 -0.5427  0.9831  1.3853
  154SAPE  C21117107   2.114   5.089   7.597 -0.4771 -0.0689  0.1729
  154SAPE  H11R17108   2.080   5.150   7.512 -2.1673 -0.3340  0.6209
  154SAPE  C21217109   2.129   5.154   7.708 -0.3417 -0.4748 -0.0275
  154SAPE  H12R17110   2.086   5.255   7.714 -0.4348 -0.3372 -2.1438
  154SAPE  C21317111   2.174   5.095   7.839 -0.4380 -0.5292 -0.0803
  154SAPE  H13R17112   2.228   5.176   7.892 -1.3720 -0.3827  0.6652
  154SAPE  H13S17113   2.237   5.005   7.823 -1.3186 -1.0248 -0.9230
  154SAPE  C21417114   2.052   5.052   7.913  0.7517 -0.4972 -0.1706
  154SAPE  H14R17115   1.963   5.014   7.860 -0.3488  0.8376  0.6604
  154SAPE  C21517116   2.039   5.061   8.046 -0.0047 -0.2026 -0.3560
  154SAPE  H15R17117   1.947   5.040   8.102  0.6123  0.7203  1.0769
  154SAPE  C21617118   2.141   5.112   8.143  0.4529  0.6466  0.6466
  154SAPE  H16R17119   2.242   5.131   8.101 -0.2900  0.9544 -1.1001
  154SAPE  H16S17120   2.149   5.039   8.226 -0.1753  1.3968  1.3833
  154SAPE  C21717121   2.088   5.240   8.224 -0.5312 -0.3655  0.1107
  154SAPE  H17R17122   2.148   5.256   8.316  0.8430  0.6920 -0.9453
  154SAPE  H17S17123   1.980   5.228   8.251 -0.0573 -0.3845  2.1810
  154SAPE  C21817124   2.092   5.373   8.146 -0.1331  0.3703  0.1351
  154SAPE  H18R17125   2.008   5.357   8.076 -2.5093  1.6080  2.5109
  154SAPE  H18S17126   2.189   5.376   8.092 -0.5913  0.7302 -0.6825
  154SAPE  C21917127   2.049   5.488   8.237  0.2907  0.0000  0.3704
  154SAPE  H19R17128   2.108   5.493   8.331 -1.7728 -0.4485  1.7588
  154SAPE  H19S17129   1.948   5.471   8.279  1.1901 -0.9180  2.2997
  154SAPE  C22017130   2.075   5.628   8.186 -0.3381 -0.2949  0.7303
  154SAPE  H20R17131   2.029   5.657   8.089  3.2554  2.6238 -0.3180
  154SAPE  H20S17132   2.183   5.642   8.165 -1.0174  0.5358 -2.8525
  154SAPE  H20T17133   2.035   5.698   8.262  1.0168 -2.4717  3.6615
  154SAPE   C3317134   1.381   4.732   6.716  0.5662  0.2696 -0.5637
  154SAPE   H3X17135   1.372   4.623   6.699  0.6952  0.3038 -0.8544
  154SAPE   H3Y17136   1.317   4.776   6.637 -1.2271  0.4195  0.8833
  154SAPE   C3417137   1.336   4.775   6.856 -0.2947 -0.4038  0.5339
  154SAPE   H4X17138   1.320   4.884   6.868 -1.9856 -0.7325  1.5383
  154SAPE   H4Y17139   1.406   4.743   6.936 -0.6451  1.9731  1.8899
  154SAPE   C3517140   1.205   4.707   6.883  0.2607 -0.2479 -0.4093
  154SAPE   H5X17141   1.216   4.600   6.911  2.6536 -0.3108 -1.4247
  154SAPE   H5Y17142   1.141   4.705   6.792 -0.0037 -0.4609 -0.2241
  154SAPE   C3617143   1.121   4.761   7.004  0.0220  0.4260  0.2905
  154SAPE   H6X17144   1.028   4.701   7.016 -0.2929  1.2665  2.5454
  154SAPE   H6Y17145   1.084   4.861   6.973  0.6387  0.2299 -1.1435
  154SAPE   C3717146   1.203   4.758   7.133  0.1437 -0.2670  0.4760
  154SAPE   H7X17147   1.281   4.837   7.124 -0.5388  0.1960 -2.7638
  154SAPE   H7Y17148   1.254   4.661   7.148  1.6215  0.4594  0.3215
  154SAPE   C3817149   1.112   4.789   7.256 -0.1181  0.8039 -0.0976
  154SAPE   H8X17150   1.039   4.706   7.267 -0.3898  1.2046  1.4031
  154SAPE   H8Y17151   1.054   4.880   7.230 -1.3725 -0.1142 -0.5884
  154SAPE   C3917152   1.187   4.802   7.386 -0.1799  0.3130 -0.1150
  154SAPE   H9X17153   1.254   4.890   7.380  0.0323  0.1350 -0.4239
  154SAPE   H9Y17154   1.247   4.709   7.397 -0.3727  0.0221 -1.3181
  154SAPE  C31017155   1.087   4.807   7.501 -0.4828 -0.4690  0.2224
  154SAPE  H10X17156   1.055   4.701   7.512 -0.6071 -0.3378  1.2367
  154SAPE  H10Y17157   0.997   4.865   7.471  0.6687  0.7236 -1.1255
  154SAPE  C31117158   1.151   4.853   7.631  0.4585  0.5241 -0.1239
  154SAPE  H11X17159   1.158   4.964   7.637 -0.4888  0.5293  1.6637
  154SAPE  H11Y17160   1.243   4.796   7.655  0.6968  0.9784  0.0617
  154SAPE  C31217161   1.066   4.820   7.748 -0.8132  0.2282 -0.5414
  154SAPE  H12X17162   1.009   4.726   7.733  0.2283 -0.2341 -1.8752
  154SAPE  H12Y17163   0.986   4.895   7.767 -0.0742  0.3620  2.4854
  154SAPE  C31317164   1.142   4.801   7.878 -0.3292  0.7320 -0.1806
  154SAPE  H13X17165   1.217   4.881   7.895 -0.2215  0.9460 -1.6178
  154SAPE  H13Y17166   1.208   4.713   7.862  0.7228  1.6686 -1.1200
  154SAPE  C31417167   1.057   4.775   8.003 -0.6339 -0.4669  0.6116
  154SAPE  H14X17168   0.969   4.709   7.983 -0.9078  0.5012 -1.6976
  154SAPE  H14Y17169   1.001   4.868   8.026 -2.7678 -1.2375 -0.9778
  154SAPE  C31517170   1.146   4.725   8.114  0.2880  0.7351  0.0988
  154SAPE  H15X17171   1.214   4.808   8.141  0.6251 -0.1239  2.0588
  154SAPE  H15Y17172   1.202   4.632   8.088 -0.1205  0.9286 -1.5672
  154SAPE  C31617173   1.074   4.672   8.239 -0.2456  0.3476  0.3192
  154SAPE  H16X17174   0.993   4.741   8.274 -0.1705  0.3749  0.4411
  154SAPE  H16Y17175   1.150   4.659   8.319  0.2662  0.1636 -0.1952
  154SAPE  C31717176   0.994   4.543   8.217 -0.2955  0.6710  0.0980
  154SAPE  H17X17177   1.056   4.452   8.204 -0.3720  0.8127 -1.4686
  154SAPE  H17Y17178   0.919   4.547   8.135 -0.4569 -1.2507  0.1130
  154SAPE  C31817179   0.909   4.505   8.336 -1.0946 -0.3806 -0.7832
  154SAPE  H18X17180   0.848   4.592   8.368  0.1328  0.8773 -1.7072
  154SAPE  H18Y17181   0.971   4.476   8.423 -2.8352 -0.7741  0.3498
  154SAPE  H18Z17182   0.847   4.415   8.317  1.0325 -2.1429  0.1657
  155SAPE     N17183   1.674   5.652   6.347 -0.3433 -0.1924 -0.3950
  155SAPE   HN117184   1.692   5.551   6.334 -0.3167 -0.1370 -0.8156
  155SAPE   HN217185   1.573   5.672   6.330 -0.6523  2.7960  3.5664
  155SAPE   HN317186   1.726   5.703   6.273  0.2256  0.2151  0.2716
  155SAPE   C1217187   1.709   5.711   6.475  0.6056 -0.4584 -0.2736
  155SAPE  H12A17188   1.652   5.663   6.557 -0.7952  1.8733  0.1804
  155SAPE  H12B17189   1.685   5.819   6.469  1.0155 -0.3503 -0.0235
  155SAPE   C1117190   1.860   5.700   6.512  0.7363  0.2693  0.5208
  155SAPE  H11A17191   1.872   5.590   6.501 -0.7032  0.0543  0.8162
  155SAPE  H11B17192   1.872   5.719   6.621  2.3844 -1.1917  0.6274
  155SAPE     P17193   1.951   5.936   6.463  0.1322 -0.4711 -0.3747
  155SAPE   O1317194   2.063   5.997   6.390  0.0230 -0.2811 -0.1219
  155SAPE   O1417195   1.821   6.009   6.445 -0.3614  0.7542  0.1037
  155SAPE   O1217196   1.939   5.782   6.422  0.6142 -0.1551  0.1624
  155SAPE   O1117197   1.986   5.926   6.616 -0.0039  0.2575  0.0274
  155SAPE    C117198   2.111   5.959   6.663 -0.0409  0.0421  0.2930
  155SAPE    HA17199   2.187   5.881   6.641  0.5344  0.5722  0.3853
  155SAPE    HB17200   2.151   6.057   6.630  0.5785 -0.5118 -0.6198
  155SAPE    C217201   2.112   5.962   6.820  0.1067 -0.2885 -0.3608
  155SAPE    HS17202   2.220   5.946   6.841  0.1422 -0.4825 -0.6912
  155SAPE   O2117203   2.040   5.855   6.866 -0.0603 -0.2611  0.0124
  155SAPE   C2117204   2.085   5.733   6.845 -0.0103  0.1588 -0.3907
  155SAPE   O2217205   2.195   5.696   6.807  0.4333  0.8944  0.4145
  155SAPE   C2217206   1.970   5.635   6.898 -0.2037 -0.7486  0.4026
  155SAPE   H2R17207   1.937   5.679   6.995  0.6926 -0.5286  0.6244
  155SAPE   H2S17208   1.888   5.636   6.824 -0.4453  1.6844  0.6266
  155SAPE    C317209   2.052   6.095   6.880  0.9833  0.8467 -0.2038
  155SAPE    HX17210   1.953   6.114   6.833  1.7766  1.0480 -1.8746
  155SAPE    HY17211   2.118   6.175   6.839  1.4180  0.1263 -0.9301
  155SAPE   O3117212   2.055   6.094   7.018 -0.2273  0.3499 -0.3855
  155SAPE   C3117213   1.943   6.059   7.084  0.3534 -0.5668  0.2006
  155SAPE   O3217214   1.833   6.040   7.037  0.0914  0.1214 -0.0600
  155SAPE   C3217215   1.981   6.049   7.233 -0.2854 -0.0648 -0.4609
  155SAPE   H2X17216   2.038   6.142   7.255 -0.8309  0.2174 -0.2437
  155SAPE   H2Y17217   2.050   5.962   7.227 -0.6968 -0.5693  1.4694
  155SAPE   C2317218   2.019   5.486   6.920 -0.2349 -0.1954 -0.3808
  155SAPE   H3R17219   2.072   5.460   6.826 -0.5042  1.0324 -0.8921
  155SAPE   H3S17220   1.941   5.408   6.933 -0.4360  0.4291  3.0778
  155SAPE   C2417221   2.116   5.470   7.041  0.9356  1.2257 -0.4504
  155SAPE   H4R17222   2.170   5.564   7.066  1.6321  1.0164 -1.1466
  155SAPE   H4S17223   2.192   5.402   6.998 -1.1648 -1.4088 -0.3051
  155SAPE   C2517224   2.039   5.421   7.165 -0.5736 -0.0913 -0.0253
  155SAPE   H5R17225   2.006   5.316   7.162  3.4858 -1.5535  0.4631
  155SAPE   C2617226   2.015   5.493   7.273  0.6120  0.4767 -0.1788
  155SAPE   H6R17227   1.946   5.452   7.348 -0.8445 -0.2504 -1.8357
  155SAPE   C2717228   2.035   5.641   7.294 -0.3749 -0.0518 -0.1445
  155SAPE   H7R17229   1.959   5.685   7.362  0.1167  1.0633 -0.2922
  155SAPE   H7S17230   2.020   5.689   7.195 -0.3636  1.2020  0.4377
  155SAPE   C2817231   2.174   5.671   7.357 -0.0021 -0.6412 -0.0956
  155SAPE   H8R17232   2.249   5.682   7.277 -0.0630  1.8881  0.1323
  155SAPE   C2917233   2.217   5.682   7.484 -0.9499  1.2435 -0.4652
  155SAPE   H9R17234   2.325   5.694   7.500 -0.9462 -0.6862  1.4411
  155SAPE  C21017235   2.129   5.680   7.606  0.0636  0.2973 -0.3113
  155SAPE  H10R17236   2.022   5.657   7.589 -0.9571 -0.1912  5.1130
  155SAPE  H10S17237   2.131   5.785   7.643 -2.7711 -0.1934  1.5112
  155SAPE  C21117238   2.176   5.568   7.702  0.0352  0.1485  0.0299
  155SAPE  H11R17239   2.156   5.463   7.675  1.2007 -0.7682  2.4724
  155SAPE  C21217240   2.240   5.588   7.819 -0.4246 -0.2004  0.4831
  155SAPE  H12R17241   2.275   5.496   7.869  0.5877  0.2975  0.7103
  155SAPE  C21317242   2.290   5.728   7.851 -0.7360  0.1107 -0.5085
  155SAPE  H13R17243   2.212   5.762   7.923 -0.9776 -0.4431 -0.5009
  155SAPE  H13S17244   2.291   5.803   7.769 -1.3448  0.6062 -0.0744
  155SAPE  C21417245   2.426   5.731   7.908 -0.3323 -0.0827  0.2208
  155SAPE  H14R17246   2.505   5.661   7.879  1.4943  0.8661  2.6028
  155SAPE  C21517247   2.472   5.829   7.990 -0.1017  0.2697 -0.1970
  155SAPE  H15R17248   2.581   5.827   8.005 -0.0773  0.8967 -0.2751
  155SAPE  C21617249   2.407   5.951   8.053 -0.4953 -0.3327  0.0442
  155SAPE  H16R17250   2.321   5.976   7.986 -0.7046  1.3039  0.8681
  155SAPE  H16S17251   2.472   6.040   8.036 -1.3801  0.2933 -0.1772
  155SAPE  C21717252   2.375   5.943   8.202 -0.4620  0.1949 -0.2605
  155SAPE  H17R17253   2.461   5.899   8.256  0.2976  0.4586 -1.2190
  155SAPE  H17S17254   2.300   5.863   8.223 -0.4882  0.1209 -0.6323
  155SAPE  C21817255   2.338   6.081   8.256 -0.5317  0.0835  0.2905
  155SAPE  H18R17256   2.258   6.120   8.190 -2.0955 -1.2528  1.3044
  155SAPE  H18S17257   2.422   6.153   8.254 -2.3431  2.3427 -2.3409
  155SAPE  C21917258   2.268   6.090   8.393 -0.1544  0.0447  0.0778
  155SAPE  H19R17259   2.171   6.041   8.371  0.8209 -1.2881 -1.5215
  155SAPE  H19S17260   2.239   6.192   8.427 -0.2527 -0.7589  2.6437
  155SAPE  C22017261   2.326   6.016   8.506  0.1175  0.4042 -0.3987
  155SAPE  H20R17262   2.429   6.050   8.532 -0.3028 -0.0447  2.1200
  155SAPE  H20S17263   2.350   5.912   8.474  1.1320  0.4277  0.2315
  155SAPE  H20T17264   2.261   6.015   8.595 -0.3611  0.6444 -0.7433
  155SAPE   C3317265   1.862   6.023   7.335 -0.3227 -0.1264  0.4064
  155SAPE   H3X17266   1.808   5.928   7.313 -0.1461 -0.1689  0.1573
  155SAPE   H3Y17267   1.803   6.116   7.320  0.2888  0.5287  1.8492
  155SAPE   C3417268   1.897   6.022   7.480 -0.0879 -0.2229  0.5009
  155SAPE   H4X17269   1.970   5.939   7.496  0.1850 -0.4816 -1.7071
  155SAPE   H4Y17270   1.809   5.995   7.542  0.3317 -0.0539  1.1820
  155SAPE   C3517271   1.945   6.155   7.533  0.0377 -0.3809  0.6371
  155SAPE   H5X17272   1.876   6.235   7.500  0.1031 -0.0890  1.1981
  155SAPE   H5Y17273   2.045   6.178   7.491 -0.3425  0.1314 -0.0060
  155SAPE   C3617274   1.949   6.155   7.684 -0.0597  0.4368 -0.6029
  155SAPE   H6X17275   1.854   6.151   7.742  0.9975 -1.1868  1.1289
  155SAPE   H6Y17276   2.005   6.245   7.718  2.2217 -0.8902 -0.6462
  155SAPE   C3717277   2.036   6.043   7.750 -0.4052  0.5369  0.7583
  155SAPE   H7X17278   2.135   6.034   7.701 -1.5064 -0.1175 -1.5087
  155SAPE   H7Y17279   1.980   5.950   7.725 -0.7701  0.4363  1.9042
  155SAPE   C3817280   2.045   6.046   7.903 -0.0311  0.1993  0.4043
  155SAPE   H8X17281   2.103   6.135   7.938 -0.6719 -0.3278  2.9923
  155SAPE   H8Y17282   2.105   5.956   7.928 -0.8028 -0.0282  1.4677
  155SAPE   C3917283   1.921   6.028   7.985  0.0026  0.3350  0.0389
  155SAPE   H9X17284   1.866   5.938   7.950  1.2439  0.1595 -1.6182
  155SAPE   H9Y17285   1.862   6.122   7.981  0.2934  0.5244  0.1282
  155SAPE  C31017286   1.949   6.012   8.127 -0.5284 -0.3044 -0.4290
  155SAPE  H10X17287   2.013   6.100   8.153 -1.0934  0.4394 -1.4882
  155SAPE  H10Y17288   2.007   5.917   8.138  1.8571  1.2314  1.3908
  155SAPE  C31117289   1.822   6.011   8.211  0.1461 -0.4225  0.9133
  155SAPE  H11X17290   1.765   5.916   8.199  0.3465 -0.5225  0.7316
  155SAPE  H11Y17291   1.764   6.101   8.183 -0.8741 -1.3538 -0.0848
  155SAPE  C31217292   1.848   6.030   8.362 -0.6191  0.4909  0.5712
  155SAPE  H12X17293   1.752   6.041   8.418 -1.5095  0.8510 -0.9662
  155SAPE  H12Y17294   1.903   6.125   8.376  1.4436 -0.6194  0.4454
  155SAPE  C31317295   1.924   5.903   8.419 -0.2234  0.1218 -0.0959
  155SAPE  H13X17296   2.022   5.881   8.370 -0.2067 -2.1253  0.8688
  155SAPE  H13Y17297   1.855   5.817   8.408  2.5721 -2.1577 -1.0798
  155SAPE  C31417298   1.942   5.917   8.567 -0.3755 -0.2143  0.1067
  155SAPE  H14X17299   1.862   5.974   8.617  0.9109 -0.3477  2.4532
  155SAPE  H14Y17300   2.034   5.976   8.584  0.9515 -2.5694  1.7472
  155SAPE  C31517301   1.971   5.787   8.641 -0.0805  0.1971 -0.4645
  155SAPE  H15X17302   1.879   5.725   8.642 -0.4338  0.7068  0.5918
  155SAPE  H15Y17303   2.000   5.801   8.747 -1.2868 -0.5621 -0.0066
  155SAPE  C31617304   2.087   5.712   8.577  0.3475  0.0550 -0.1120
  155SAPE  H16X17305   2.179   5.769   8.553 -0.1190  0.2965 -1.3834
  155SAPE  H16Y17306   2.051   5.689   8.475 -0.6584  0.3746  0.1612
  155SAPE  C31717307   2.134   5.586   8.649 -1.0365  0.5420 -0.4345
  155SAPE  H17X17308   2.189   5.607   8.743 -4.6320 -0.7104  2.1711
  155SAPE  H17Y17309   2.206   5.554   8.571 -0.0764  2.5037 -0.4237
  155SAPE  C31817310   2.037   5.476   8.688 -0.1289  0.1545 -0.4224
  155SAPE  H18X17311   2.082   5.376   8.706 -1.8033 -0.8213 -1.3935
  155SAPE  H18Y17312   1.963   5.458   8.607 -1.9488  0.3065  1.1144
  155SAPE  H18Z17313   1.981   5.500   8.781  0.7010 -1.7419  0.6376
  156SAPE     N17314   6.644   0.181   6.118  0.6521  0.5747  0.3025
  156SAPE   HN117315   6.622   0.274   6.159  2.3995  0.6752  1.1155
  156SAPE   HN217316   6.743   0.152   6.132  0.8458  1.8492  1.9637
  156SAPE   HN317317   6.615   0.183   6.018  0.9031  0.9469  0.2354
  156SAPE   C1217318   6.552   0.076   6.179  0.0716  0.2747 -1.5596
  156SAPE  H12A17319   6.583  -0.026   6.147  0.8085  1.0551 -3.4990
  156SAPE  H12B17320   6.450   0.099   6.142 -0.1372  0.0964 -1.1008
  156SAPE   C1117321   6.553   0.088   6.336 -0.1121 -0.0949  0.4662
  156SAPE  H11A17322   6.481   0.020   6.387 -1.4826  1.8191  1.2361
  156SAPE  H11B17323   6.518   0.188   6.369 -1.7673 -0.8988  1.3012
  156SAPE     P17324   6.745  -0.064   6.420  0.8321 -0.2585 -0.0219
  156SAPE   O1317325   6.786  -0.123   6.294 -0.5175  0.5446 -0.3500
  156SAPE   O1417326   6.845  -0.040   6.523  0.3318 -0.0164 -0.1979
  156SAPE   O1217327   6.684   0.077   6.394  0.0105  0.3655 -0.4202
  156SAPE   O1117328   6.628  -0.153   6.477 -0.1669 -0.0834  0.1833
  156SAPE    C117329   6.563  -0.113   6.604 -0.8773 -1.1053  0.3929
  156SAPE    HA17330   6.552  -0.004   6.623 -2.2524 -1.0104 -0.7256
  156SAPE    HB17331   6.459  -0.143   6.580 -0.5202 -0.1719 -2.8145
  156SAPE    C217332   6.606  -0.199   6.726  0.3723 -0.4699 -0.0762
  156SAPE    HS17333   6.525  -0.209   6.802  1.4038  1.4466  1.3889
  156SAPE   O2117334   6.720  -0.147   6.795 -0.3733  0.6262 -0.4684
  156SAPE   C2117335   6.699  -0.038   6.868 -0.0760  0.5317 -0.2051
  156SAPE   O2217336   6.597   0.016   6.892 -0.3531 -0.3182 -0.2766
  156SAPE   C2217337   6.836   0.006   6.923 -0.4682 -0.6322  0.5853
  156SAPE   H2R17338   6.912   0.016   6.842 -2.2395  0.7163 -1.0127
  156SAPE   H2S17339   6.805   0.109   6.951 -0.9899 -0.9143  1.0419
  156SAPE    C317340   6.645  -0.341   6.680 -0.3896  0.4473 -0.2125
  156SAPE    HX17341   6.734  -0.327   6.615 -0.2868  1.2543  0.0840
  156SAPE    HY17342   6.558  -0.373   6.620 -0.0134  2.3059 -1.8458
  156SAPE   O3117343   6.655  -0.421   6.796  0.6268  0.1510  0.4192
  156SAPE   C3117344   6.751  -0.511   6.797 -0.2968 -0.1013 -0.2117
  156SAPE   O3217345   6.850  -0.515   6.728  0.1220  0.0510  0.0236
  156SAPE   C3217346   6.710  -0.616   6.902 -0.0305 -0.0604 -0.5473
  156SAPE   H2X17347   6.785  -0.697   6.910  0.9562  0.9368  0.6928
  156SAPE   H2Y17348   6.619  -0.671   6.870 -0.4294  0.9393 -1.1854
  156SAPE   C2317349   6.883  -0.075   7.050 -0.1489 -0.3673  0.3341
  156SAPE   H3R17350   6.982  -0.043   7.089 -1.6958  2.1689  2.5047
  156SAPE   H3S17351   6.889  -0.182   7.021 -1.0507 -0.4179  0.3107
  156SAPE   C2417352   6.787  -0.079   7.171  0.3238  0.6465 -0.4287
  156SAPE   H4R17353   6.836  -0.148   7.244 -0.6872 -0.3976 -0.7138
  156SAPE   H4S17354   6.695  -0.133   7.140 -1.0649  2.2894  0.6662
  156SAPE   C2517355   6.741   0.065   7.223 -1.1637  0.0655 -0.3670
  156SAPE   H5R17356   6.691   0.138   7.157  0.5528  0.3533 -1.4225
  156SAPE   C2617357   6.759   0.108   7.347  0.2930 -0.2576 -0.5143
  156SAPE   H6R17358   6.730   0.212   7.368  0.2876 -0.4264  0.3638
  156SAPE   C2717359   6.826   0.033   7.463 -0.0718  0.2750  0.6023
  156SAPE   H7R17360   6.889  -0.044   7.413 -0.5632  1.4727 -2.0412
  156SAPE   H7S17361   6.749  -0.036   7.502  0.1826 -0.3233  0.0582
  156SAPE   C2817362   6.907   0.105   7.566 -0.2106 -0.1015 -0.8929
  156SAPE   H8R17363   6.978   0.183   7.536  1.0142 -0.6528  0.4714
  156SAPE   C2917364   6.918   0.070   7.697  0.2385 -0.1166  0.5660
  156SAPE   H9R17365   6.984   0.134   7.758 -0.3378  0.3190  0.7513
  156SAPE  C21017366   6.843  -0.039   7.769 -0.6402  0.2274 -0.4010
  156SAPE  H10R17367   6.793  -0.112   7.702  1.8347 -0.0499 -2.0831
  156SAPE  H10S17368   6.759   0.017   7.815 -0.6608 -0.3411  0.2724
  156SAPE  C21117369   6.932  -0.110   7.873  0.4646 -0.6607 -0.3533
  156SAPE  H11R17370   7.020  -0.163   7.834  2.4051  0.6012  2.0337
  156SAPE  C21217371   6.917  -0.108   8.007 -0.0168 -0.0198 -0.2095
  156SAPE  H12R17372   6.980  -0.185   8.054  0.6409 -1.6768 -3.4825
  156SAPE  C21317373   6.812  -0.030   8.082 -0.0104  0.0964 -0.5333
  156SAPE  H13R17374   6.810   0.078   8.056 -1.3664 -0.1381 -1.5342
  156SAPE  H13S17375   6.839  -0.034   8.189 -1.6460  0.1471 -0.0874
  156SAPE  C21417376   6.669  -0.068   8.060 -0.5844 -0.2171  0.0046
  156SAPE  H14R17377   6.653  -0.125   7.967  0.9625 -0.2844 -0.2447
  156SAPE  C21517378   6.553  -0.026   8.127  0.3115  0.3856 -0.2303
  156SAPE  H15R17379   6.455  -0.050   8.084  1.1281 -2.2677 -0.7915
  156SAPE  C21617380   6.545   0.068   8.240  0.6433  0.2946 -0.2764
  156SAPE  H16R17381   6.449   0.125   8.234  1.8457  2.3238 -1.7337
  156SAPE  H16S17382   6.634   0.133   8.254 -1.0215  2.3615  1.5326
  156SAPE  C21717383   6.549  -0.008   8.371 -0.4297  0.1571 -0.1417
  156SAPE  H17R17384   6.538   0.070   8.449  1.1179  1.1289 -0.8371
  156SAPE  H17S17385   6.645  -0.055   8.402  0.1932  1.5363  0.1054
  156SAPE  C21817386   6.446  -0.115   8.389 -1.1788 -0.7501 -0.7955
  156SAPE  H18R17387   6.448  -0.164   8.489  1.2615 -0.4683 -0.6394
  156SAPE  H18S17388   6.487  -0.193   8.322  0.5415 -1.1063  0.5966
  156SAPE  C21917389   6.298  -0.085   8.355 -0.1377 -0.2205  0.1190
  156SAPE  H19R17390   6.287  -0.135   8.257  0.9305  0.9326 -0.6341
  156SAPE  H19S17391   6.298   0.025   8.339  0.2404 -0.4120 -1.3028
  156SAPE  C22017392   6.191  -0.140   8.447 -0.2623  0.4775 -0.1606
  156SAPE  H20R17393   6.091  -0.111   8.407  0.4170 -0.8017 -3.0136
  156SAPE  H20S17394   6.194  -0.104   8.552  1.3546 -0.2731  0.0822
  156SAPE  H20T17395   6.200  -0.250   8.460 -0.0447  0.5856  0.6375
  156SAPE   C3317396   6.672  -0.562   7.042 -0.0392  0.1800 -0.2357
  156SAPE   H3X17397   6.622  -0.647   7.093 -0.2274 -0.4755 -1.4723
  156SAPE   H3Y17398   6.608  -0.472   7.031  0.8065  0.6473 -1.5156
  156SAPE   C3417399   6.788  -0.525   7.139  0.3475 -0.0972 -0.4573
  156SAPE   H4X17400   6.842  -0.432   7.109 -0.0276 -0.0708 -1.0665
  156SAPE   H4Y17401   6.866  -0.604   7.146 -0.3110 -0.8418 -1.3326
  156SAPE   C3517402   6.737  -0.506   7.286 -0.1505  0.0693  0.2004
  156SAPE   H5X17403   6.695  -0.606   7.310  2.7503 -1.6345 -1.3354
  156SAPE   H5Y17404   6.657  -0.428   7.283 -0.0953  0.1164 -0.0092
  156SAPE   C3617405   6.845  -0.451   7.384  0.1688 -0.0490  0.3335
  156SAPE   H6X17406   6.902  -0.377   7.324 -1.2478  0.7255 -0.1040
  156SAPE   H6Y17407   6.910  -0.540   7.401  1.6165  0.3508 -2.4824
  156SAPE   C3717408   6.786  -0.389   7.514 -0.5524  0.0444  0.7453
  156SAPE   H7X17409   6.685  -0.433   7.524 -0.0130 -0.9396  2.2837
  156SAPE   H7Y17410   6.768  -0.283   7.487 -1.2851 -0.6432 -1.7052
  156SAPE   C3817411   6.863  -0.414   7.643 -0.3122 -0.3230 -0.0612
  156SAPE   H8X17412   6.955  -0.353   7.655  0.6769 -1.6696 -0.4812
  156SAPE   H8Y17413   6.902  -0.518   7.652  1.4259  0.4481  2.4191
  156SAPE   C3917414   6.787  -0.388   7.768 -0.5626 -0.5803 -1.0367
  156SAPE   H9X17415   6.729  -0.293   7.773 -1.0899 -0.8734 -1.4318
  156SAPE   H9Y17416   6.856  -0.389   7.854 -0.7988  0.3090 -0.8237
  156SAPE  C31017417   6.691  -0.495   7.822 -0.2566  0.1457  0.1820
  156SAPE  H10X17418   6.743  -0.592   7.835  0.3754  0.6480  1.5491
  156SAPE  H10Y17419   6.613  -0.519   7.746 -1.3908  2.1178  0.6584
  156SAPE  C31117420   6.619  -0.461   7.955 -0.4400 -0.4750  0.9122
  156SAPE  H11X17421   6.553  -0.381   7.917 -2.5444 -3.5229 -2.5198
  156SAPE  H11Y17422   6.689  -0.427   8.034  0.6513 -3.5575  1.4055
  156SAPE  C31217423   6.538  -0.579   8.000 -0.1336  0.4804 -0.6590
  156SAPE  H12X17424   6.593  -0.637   8.077 -1.6850 -0.0517  0.0902
  156SAPE  H12Y17425   6.495  -0.645   7.922 -0.8514  2.7101 -2.2457
  156SAPE  C31317426   6.421  -0.539   8.094  0.2038  0.1615  0.1588
  156SAPE  H13X17427   6.359  -0.456   8.056 -0.6572  0.0954  1.3725
  156SAPE  H13Y17428   6.474  -0.499   8.184 -2.1676  0.0486  1.6939
  156SAPE  C31417429   6.323  -0.645   8.135 -0.3570 -0.0057 -0.2576
  156SAPE  H14X17430   6.264  -0.676   8.046  0.2401 -0.5468 -0.4725
  156SAPE  H14Y17431   6.246  -0.604   8.204  0.3535  2.3520 -0.7587
  156SAPE  C31517432   6.384  -0.779   8.185 -0.0189 -0.1062  0.2765
  156SAPE  H15X17433   6.456  -0.774   8.269  0.6786 -0.8452 -0.2672
  156SAPE  H15Y17434   6.443  -0.825   8.103  2.7556 -1.9629  3.0674
  156SAPE  C31617435   6.274  -0.883   8.208 -0.0722  0.1955 -0.3916
  156SAPE  H16X17436   6.204  -0.896   8.122  0.8247  1.8144 -1.4091
  156SAPE  H16Y17437   6.218  -0.847   8.296 -1.1649 -2.2370 -0.0009
  156SAPE  C31717438   6.321  -1.020   8.252  0.3351 -0.1248  0.4633
  156SAPE  H17X17439   6.411  -1.023   8.317  0.7137  1.2439  0.0391
  156SAPE  H17Y17440   6.340  -1.088   8.166  1.3331  2.1689 -1.2081
  156SAPE  C31817441   6.208  -1.088   8.323 -0.2701 -0.5127  0.8608
  156SAPE  H18X17442   6.183  -1.039   8.419 -3.0174 -0.3191  0.1292
  156SAPE  H18Y17443   6.235  -1.194   8.345  1.4237 -0.3628 -0.2946
  156SAPE  H18Z17444   6.117  -1.085   8.259  0.3324  0.1897  0.0203
  157SAPE     N17445   3.640   1.247   6.247  0.0611 -0.0785  0.4555
  157SAPE   HN117446   3.708   1.214   6.175 -0.7752  1.3861 -1.1047
  157SAPE   HN217447   3.566   1.174   6.259 -1.3114  0.8160 -1.8298
  157SAPE   HN317448   3.592   1.330   6.206  0.7305  0.8100  1.4477
  157SAPE   C1217449   3.719   1.296   6.368  0.2157 -0.3540  0.1555
  157SAPE  H12A17450   3.793   1.217   6.392 -0.5403 -1.3545 -0.7046
  157SAPE  H12B17451   3.645   1.299   6.451  1.5563 -0.6446  1.3995
  157SAPE   C1117452   3.794   1.423   6.338  0.4452 -0.3799  0.2032
  157SAPE  H11A17453   3.846   1.475   6.421 -1.3844  3.3127 -0.7388
  157SAPE  H11B17454   3.724   1.500   6.298 -1.2046 -1.8074  0.2303
  157SAPE     P17455   4.041   1.366   6.256 -0.2271 -0.1586  0.2036
  157SAPE   O1317456   4.058   1.221   6.253  0.6063  0.2194  0.2655
  157SAPE   O1417457   4.114   1.450   6.161  0.9284  0.0406  0.3168
  157SAPE   O1217458   3.894   1.393   6.238 -0.0740  0.1725 -0.3656
  157SAPE   O1117459   4.073   1.407   6.409  0.3777 -0.0249  0.5008
  157SAPE    C117460   4.184   1.478   6.447  0.4170 -0.3882 -0.0353
  157SAPE    HA17461   4.274   1.415   6.432  0.3907 -0.3189 -0.4718
  157SAPE    HB17462   4.181   1.574   6.393 -0.9099  0.7907  1.9847
  157SAPE    C217463   4.179   1.513   6.607  0.0462  0.3152 -0.0750
  157SAPE    HS17464   4.270   1.573   6.629 -1.0400  2.2592 -0.6631
  157SAPE   O2117465   4.184   1.390   6.688  0.1471  0.2514  0.1274
  157SAPE   C2117466   4.294   1.320   6.696 -0.9910  0.3236  1.1399
  157SAPE   O2217467   4.398   1.342   6.631  0.7252  0.4939 -0.2904
  157SAPE   C2217468   4.284   1.226   6.815  0.8252 -0.3950  0.9233
  157SAPE   H2R17469   4.177   1.204   6.836  0.4744  0.4592  0.0654
  157SAPE   H2S17470   4.344   1.138   6.782  0.6216 -0.9605  1.9998
  157SAPE    C317471   4.050   1.596   6.650 -0.5593 -0.0015  0.3714
  157SAPE    HX17472   3.973   1.523   6.614  2.1578 -1.5289 -2.9624
  157SAPE    HY17473   4.044   1.685   6.584  2.9395 -0.0117 -0.1345
  157SAPE   O3117474   4.045   1.622   6.790  0.3056 -0.6005 -0.1478
  157SAPE   C3117475   4.122   1.722   6.834  0.7412  0.2038 -0.9246
  157SAPE   O3217476   4.196   1.793   6.773  0.0375  0.3552 -0.0040
  157SAPE   C3217477   4.097   1.744   6.988 -0.0139 -0.1254  0.3494
  157SAPE   H2X17478   4.015   1.819   6.977  2.0322  1.9013 -2.3208
  157SAPE   H2Y17479   4.187   1.799   7.024  0.1007 -1.3324  2.0387
  157SAPE   C2317480   4.377   1.277   6.936  0.4176  0.0758  0.5310
  157SAPE   H3R17481   4.336   1.376   6.966 -2.8161 -1.0242  0.0676
  157SAPE   H3S17482   4.480   1.288   6.896 -0.3803  3.0085 -0.9509
  157SAPE   C2417483   4.380   1.178   7.054 -0.2800  1.1733  0.4516
  157SAPE   H4R17484   4.476   1.184   7.110 -0.1365  1.2804  0.1958
  157SAPE   H4S17485   4.382   1.079   7.004 -0.6210  2.2302 -1.7884
  157SAPE   C2517486   4.260   1.192   7.139  0.3483 -0.8131  0.2928
  157SAPE   H5R17487   4.179   1.253   7.095  1.0941 -2.3425 -3.6042
  157SAPE   C2617488   4.251   1.158   7.271 -0.2786 -0.0502  0.0573
  157SAPE   H6R17489   4.153   1.156   7.322  0.0704  1.1794  0.8357
  157SAPE   C2717490   4.357   1.095   7.359 -0.8531 -0.5073 -0.3431
  157SAPE   H7R17491   4.437   1.167   7.388  0.2826 -2.6189  2.1941
  157SAPE   H7S17492   4.404   1.016   7.295 -0.1242  0.5217 -1.1212
  157SAPE   C2817493   4.309   1.024   7.485 -0.1859  0.3314  0.7832
  157SAPE   H8R17494   4.280   0.919   7.473  1.7336 -0.2600  1.0645
  157SAPE   C2917495   4.281   1.085   7.602  0.0635  1.1544 -0.0428
  157SAPE   H9R17496   4.246   1.016   7.680 -0.2613 -0.7015 -1.7357
  157SAPE  C21017497   4.290   1.231   7.636  0.7671 -0.2003  0.5595
  157SAPE  H10R17498   4.183   1.260   7.647  0.9374  0.3996  0.6552
  157SAPE  H10S17499   4.334   1.292   7.554  1.7380 -0.8444  0.5828
  157SAPE  C21117500   4.368   1.256   7.761  0.3881 -0.2751  0.8506
  157SAPE  H11R17501   4.450   1.328   7.747  1.8118 -1.4982  2.4792
  157SAPE  C21217502   4.344   1.230   7.890  0.0288 -0.0371  0.0284
  157SAPE  H12R17503   4.408   1.276   7.966 -1.8489  1.2347  0.9303
  157SAPE  C21317504   4.226   1.145   7.940 -0.4586  0.3705 -0.2416
  157SAPE  H13R17505   4.206   1.062   7.868 -1.1865  0.4935 -0.1876
  157SAPE  H13S17506   4.134   1.207   7.936 -1.5497 -1.2035 -0.4657
  157SAPE  C21417507   4.243   1.082   8.079  0.1641  0.2025 -0.0455
  157SAPE  H14R17508   4.312   0.998   8.093 -1.3636 -1.2634 -0.9521
  157SAPE  C21517509   4.172   1.113   8.183 -0.8040 -0.8455 -0.8813
  157SAPE  H15R17510   4.201   1.056   8.272 -1.6472  0.2020  0.0980
  157SAPE  C21617511   4.069   1.223   8.198  0.1090  0.4548  0.2952
  157SAPE  H16R17512   4.030   1.264   8.102 -0.2420 -0.8651 -0.1429
  157SAPE  H16S17513   4.101   1.315   8.252 -2.3209  1.9006 -0.5467
  157SAPE  C21717514   3.949   1.169   8.282  0.0367  0.4026  0.4509
  157SAPE  H17R17515   3.922   1.069   8.242  0.2313  0.2043  0.8117
  157SAPE  H17S17516   3.861   1.235   8.263 -0.1447  0.0021 -0.1421
  157SAPE  C21817517   3.986   1.163   8.429  0.0537 -0.4843  0.3767
  157SAPE  H18R17518   4.025   1.263   8.456  0.6920 -0.5500 -0.2832
  157SAPE  H18S17519   4.060   1.082   8.446  1.4035  0.6548  0.0961
  157SAPE  C21917520   3.858   1.136   8.517 -0.1921  0.3453  0.4775
  157SAPE  H19R17521   3.829   1.029   8.516 -2.0325  0.7864 -0.8422
  157SAPE  H19S17522   3.772   1.181   8.461  1.2733 -0.5686 -2.7326
  157SAPE  C22017523   3.870   1.193   8.657 -0.0118 -0.1575 -0.5622
  157SAPE  H20R17524   3.966   1.163   8.705  0.3747  1.1117 -0.5205
  157SAPE  H20S17525   3.788   1.155   8.721 -1.2134  1.8218 -0.8586
  157SAPE  H20T17526   3.863   1.303   8.650  1.8304 -0.0249 -0.7334
  157SAPE   C3317527   4.071   1.630   7.079  0.7519  0.3614 -0.5165
  157SAPE   H3X17528   4.160   1.563   7.082 -0.0383 -0.7366 -0.9030
  157SAPE   H3Y17529   3.988   1.568   7.038  0.3241  0.4803  0.1649
  157SAPE   C3417530   4.034   1.687   7.218 -0.6506  0.5341  0.7140
  157SAPE   H4X17531   3.947   1.755   7.208 -0.4934  0.9425  1.9658
  157SAPE   H4Y17532   4.114   1.756   7.253 -1.0080  0.7560  1.1024
  157SAPE   C3517533   4.006   1.562   7.308 -0.5098 -0.7042  0.0930
  157SAPE   H5X17534   4.096   1.499   7.327 -0.9716 -1.5419 -0.4687
  157SAPE   H5Y17535   3.932   1.498   7.255 -0.3026 -0.5536 -0.3771
  157SAPE   C3617536   3.953   1.602   7.446 -0.8428  0.1403 -0.4756
  157SAPE   H6X17537   3.856   1.656   7.439 -1.3288 -0.6724 -0.1992
  157SAPE   H6Y17538   4.034   1.662   7.492 -2.0219  0.4052  1.3841
  157SAPE   C3717539   3.937   1.475   7.536  0.3691 -0.4064  0.0406
  157SAPE   H7X17540   4.026   1.409   7.544 -0.3149 -1.2892  0.5281
  157SAPE   H7Y17541   3.850   1.416   7.499 -0.8661 -0.3592  2.6414
  157SAPE   C3817542   3.906   1.523   7.677  0.3951  0.0566  0.4959
  157SAPE   H8X17543   3.820   1.593   7.673 -0.9453 -1.3565  2.2573
  157SAPE   H8Y17544   3.992   1.574   7.725 -0.6549 -0.7053  3.4608
  157SAPE   C3917545   3.875   1.413   7.778  0.2592 -0.5171  0.4509
  157SAPE   H9X17546   3.961   1.349   7.808 -0.4412 -1.7821 -0.1558
  157SAPE   H9Y17547   3.811   1.334   7.734  1.9977 -1.3655 -0.6929
  157SAPE  C31017548   3.799   1.468   7.897 -0.4881 -0.0578 -0.0021
  157SAPE  H10X17549   3.744   1.560   7.868  2.7088  1.9382 -0.2500
  157SAPE  H10Y17550   3.879   1.508   7.963  0.9668 -0.1927 -1.6209
  157SAPE  C31117551   3.707   1.370   7.972 -0.4101 -0.4566 -0.3045
  157SAPE  H11X17552   3.774   1.286   8.001 -2.1159 -1.1347  2.0419
  157SAPE  H11Y17553   3.614   1.340   7.919 -0.0244  0.2441 -1.4109
  157SAPE  C31217554   3.655   1.432   8.100  0.5378  0.3976  0.2001
  157SAPE  H12X17555   3.579   1.508   8.070 -0.5447 -0.2225  1.2561
  157SAPE  H12Y17556   3.743   1.480   8.147  1.7690  0.9829 -2.5160
  157SAPE  C31317557   3.588   1.334   8.196 -0.3213  0.5348 -0.0178
  157SAPE  H13X17558   3.629   1.231   8.190 -0.9543  0.3090 -0.6500
  157SAPE  H13Y17559   3.484   1.327   8.157 -0.6370  3.1783  0.2077
  157SAPE  C31417560   3.583   1.388   8.343 -1.1557  0.5727 -0.4506
  157SAPE  H14X17561   3.689   1.406   8.372 -1.7948  1.2289  1.6534
  157SAPE  H14Y17562   3.541   1.320   8.419  0.8081  1.1334  1.2195
  157SAPE  C31517563   3.506   1.517   8.366  0.5405 -0.6718 -0.4368
  157SAPE  H15X17564   3.401   1.498   8.334  0.6310  0.9506 -1.8547
  157SAPE  H15Y17565   3.532   1.606   8.305  0.9701 -0.0195  0.6833
  157SAPE  C31617566   3.510   1.552   8.516  0.4485  0.6684 -0.2065
  157SAPE  H16X17567   3.617   1.551   8.546  0.4835 -1.5014 -0.2802
  157SAPE  H16Y17568   3.467   1.465   8.569  1.1615  0.3237 -0.1782
  157SAPE  C31717569   3.440   1.680   8.549  0.5918 -0.4700 -0.0855
  157SAPE  H17X17570   3.342   1.687   8.497 -0.0292 -2.3571  0.7413
  157SAPE  H17Y17571   3.500   1.765   8.509 -1.1905  0.8274 -0.1282
  157SAPE  C31817572   3.423   1.698   8.698 -0.6500  0.3455  0.0214
  157SAPE  H18X17573   3.368   1.614   8.744  0.7851 -0.7903 -0.2836
  157SAPE  H18Y17574   3.354   1.782   8.720  0.0946  0.7183  0.9678
  157SAPE  H18Z17575   3.515   1.713   8.758 -0.2976  1.1862 -0.7029
  158SAPE     N17576   6.578   5.587   6.271  0.2299 -0.7810  0.2905
  158SAPE   HN117577   6.635   5.512   6.314 -0.2090 -1.1770  0.1872
  158SAPE   HN217578   6.526   5.552   6.188 -0.8227  1.7045 -0.1989
  158SAPE   HN317579   6.648   5.659   6.242 -0.6367 -0.3819 -0.9129
  158SAPE   C1217580   6.471   5.625   6.367 -1.0311  0.6676 -0.4040
  158SAPE  H12A17581   6.525   5.682   6.446  1.4820 -1.5171 -0.3998
  158SAPE  H12B17582   6.448   5.526   6.412  1.1832  0.3279  0.1074
  158SAPE   C1117583   6.359   5.712   6.304  0.1381  0.0776 -0.2318
  158SAPE  H11A17584   6.282   5.734   6.380  0.0638 -0.8991 -0.0144
  158SAPE  H11B17585   6.311   5.632   6.245 -0.8730  0.4786  0.0371
  158SAPE     P17586   6.461   5.959   6.296 -0.4149  0.1131 -0.4528
  158SAPE   O1317587   6.595   5.948   6.355 -0.3179 -0.2732 -0.1390
  158SAPE   O1417588   6.435   6.075   6.208 -0.1954 -0.5133 -0.1347
  158SAPE   O1217589   6.407   5.826   6.221 -0.2109  0.5235  0.3343
  158SAPE   O1117590   6.361   5.967   6.415 -0.5322 -0.0393 -0.1933
  158SAPE    C117591   6.235   6.024   6.403  0.1576  0.3315  0.0457
  158SAPE    HA17592   6.219   6.077   6.306  1.9847  0.6076 -0.1325
  158SAPE    HB17593   6.150   5.954   6.420  0.1624  0.8253  2.3257
  158SAPE    C217594   6.223   6.150   6.497  0.7962 -0.0136  0.1936
  158SAPE    HS17595   6.314   6.212   6.481 -0.7249  2.1683 -0.4201
  158SAPE   O2117596   6.203   6.107   6.634 -0.1912  0.3886  1.0951
  158SAPE   C2117597   6.303   6.127   6.714  0.1698 -0.1621 -0.2988
  158SAPE   O2217598   6.413   6.169   6.689  0.0346 -0.3226 -0.4730
  158SAPE   C2217599   6.249   6.098   6.854  0.5463  0.5720  0.4402
  158SAPE   H2R17600   6.170   6.173   6.874 -0.5339 -0.8904  1.8678
  158SAPE   H2S17601   6.201   5.998   6.848  4.6700 -1.6615  0.8848
  158SAPE    C317602   6.098   6.235   6.449  0.0440  0.0805  0.1246
  158SAPE    HX17603   6.003   6.180   6.462  0.8462 -1.9142 -1.9128
  158SAPE    HY17604   6.103   6.261   6.341  0.4918 -0.3852  0.0306
  158SAPE   O3117605   6.076   6.348   6.536  0.6364  0.0165  0.3535
  158SAPE   C3117606   6.136   6.460   6.499 -0.3687 -0.2338 -0.1488
  158SAPE   O3217607   6.216   6.468   6.408 -0.4146  0.1370 -0.3825
  158SAPE   C3217608   6.091   6.577   6.592  0.0517  1.2550 -0.2471
  158SAPE   H2X17609   5.991   6.615   6.563 -0.1136  0.6405 -0.4985
  158SAPE   H2Y17610   6.161   6.660   6.568  1.7109  0.0836  0.2726
  158SAPE   C2317611   6.351   6.096   6.971 -0.2026  0.3090 -0.2683
  158SAPE   H3R17612   6.400   6.196   6.981  0.0214  0.1084  0.7184
  158SAPE   H3S17613   6.430   6.021   6.951 -1.5418 -2.5462  3.9279
  158SAPE   C2417614   6.294   6.060   7.105  0.2249  0.8828 -0.2992
  158SAPE   H4R17615   6.236   5.966   7.091  2.8218 -0.9133  0.1980
  158SAPE   H4S17616   6.224   6.139   7.142 -0.6782  0.5283 -1.1912
  158SAPE   C2517617   6.404   6.028   7.203 -0.2184  0.1304 -0.2091
  158SAPE   H5R17618   6.485   5.966   7.161  0.3042 -0.4395  1.5548
  158SAPE   C2617619   6.411   6.067   7.332 -0.8698  0.4185 -0.3206
  158SAPE   H6R17620   6.486   6.023   7.399 -1.1930 -0.4978 -0.5463
  158SAPE   C2717621   6.312   6.157   7.396 -0.1873 -0.7015 -0.4201
  158SAPE   H7R17622   6.231   6.087   7.427 -1.8545  0.6723 -1.4822
  158SAPE   H7S17623   6.269   6.225   7.319 -0.1404 -0.0331  0.1425
  158SAPE   C2817624   6.380   6.247   7.504  0.2798  0.5553 -0.1540
  158SAPE   H8R17625   6.449   6.323   7.464 -0.3668  0.9603 -0.5150
  158SAPE   C2917626   6.345   6.242   7.640 -0.0977  0.2438  0.3852
  158SAPE   H9R17627   6.414   6.297   7.706  0.5401  1.1862 -1.0192
  158SAPE  C21017628   6.246   6.167   7.726  0.0761 -0.1646 -0.3686
  158SAPE  H10R17629   6.239   6.227   7.819  1.1217  1.3462 -1.2260
  158SAPE  H10S17630   6.286   6.064   7.737 -0.2069 -0.2642 -0.2607
  158SAPE  C21117631   6.111   6.149   7.664 -0.5611  0.1921 -0.6897
  158SAPE  H11R17632   6.096   6.205   7.571  2.0698  0.1802 -1.2100
  158SAPE  C21217633   6.012   6.086   7.718 -0.2238  0.1118 -1.2207
  158SAPE  H12R17634   5.915   6.092   7.666 -0.5619 -1.0867 -0.7630
  158SAPE  C21317635   6.006   6.030   7.854  0.2985  0.8542 -0.6643
  158SAPE  H13R17636   6.047   6.106   7.924  0.0761  1.1467 -0.8503
  158SAPE  H13S17637   6.074   5.943   7.871 -1.8468 -0.7193  0.2914
  158SAPE  C21417638   5.860   5.988   7.885 -0.3463  0.2510  0.3330
  158SAPE  H14R17639   5.798   5.953   7.800 -0.0327  0.7804 -0.1175
  158SAPE  C21517640   5.807   5.982   8.012  0.1495  0.2349 -0.6207
  158SAPE  H15R17641   5.705   5.941   8.023  0.2050  0.1741 -0.3079
  158SAPE  C21617642   5.876   6.003   8.148 -0.1439  0.0710 -0.2972
  158SAPE  H16R17643   5.979   6.042   8.137 -0.8321  2.0100 -0.2293
  158SAPE  H16S17644   5.879   5.905   8.202 -0.1842 -1.2594 -2.5961
  158SAPE  C21717645   5.805   6.101   8.242 -0.5093  0.4799 -0.5570
  158SAPE  H17R17646   5.698   6.074   8.252 -0.4110  0.1144 -0.4713
  158SAPE  H17S17647   5.813   6.208   8.214  0.1392  0.6930  0.3748
  158SAPE  C21817648   5.899   6.093   8.372  0.3445  0.1009 -0.1748
  158SAPE  H18R17649   5.997   6.139   8.346 -0.4274  1.5439 -0.6533
  158SAPE  H18S17650   5.920   5.999   8.427  0.4780  0.7408  0.8774
  158SAPE  C21917651   5.847   6.184   8.487 -0.1737  0.4583 -0.2131
  158SAPE  H19R17652   5.898   6.169   8.584  1.1807  1.5762 -0.7105
  158SAPE  H19S17653   5.741   6.154   8.503 -0.3151  1.2628  0.3717
  158SAPE  C22017654   5.838   6.332   8.446 -0.4941  0.3965 -0.3531
  158SAPE  H20R17655   5.937   6.377   8.420 -1.6559  3.0005 -0.6093
  158SAPE  H20S17656   5.796   6.384   8.535  1.2669 -1.5556  1.7300
  158SAPE  H20T17657   5.770   6.340   8.358 -0.9118 -1.1205 -0.2003
  158SAPE   C3317658   6.100   6.538   6.744 -0.1524 -0.0993 -0.1673
  158SAPE   H3X17659   6.062   6.436   6.768  0.6130 -1.1857 -3.1635
  158SAPE   H3Y17660   6.033   6.606   6.801 -0.5276 -1.7235  1.4409
  158SAPE   C3417661   6.241   6.563   6.804 -0.4805 -0.2013  0.5999
  158SAPE   H4X17662   6.280   6.664   6.779  0.9465 -0.5779  1.2540
  158SAPE   H4Y17663   6.307   6.485   6.761  1.4826  1.2736  0.8233
  158SAPE   C3517664   6.239   6.546   6.956  0.0642  0.5899 -0.4941
  158SAPE   H5X17665   6.236   6.437   6.974 -0.2714  0.8457  1.1727
  158SAPE   H5Y17666   6.148   6.601   6.990 -0.7622  0.2233 -2.0308
  158SAPE   C3617667   6.359   6.605   7.032  0.0456 -0.0501  0.2647
  158SAPE   H6X17668   6.383   6.706   6.992  2.5897 -0.9039 -0.5447
  158SAPE   H6Y17669   6.448   6.542   7.013 -1.3300 -1.1589 -3.4692
  158SAPE   C3717670   6.336   6.601   7.179 -0.3367 -0.3620 -0.6749
  158SAPE   H7X17671   6.231   6.628   7.205 -0.2315 -0.4648 -0.1382
  158SAPE   H7Y17672   6.340   6.502   7.228 -0.4615  0.3078  0.7173
  158SAPE   C3817673   6.437   6.681   7.269 -0.2326 -0.5188 -0.0683
  158SAPE   H8X17674   6.426   6.787   7.239 -1.9898 -0.4082  0.8067
  158SAPE   H8Y17675   6.545   6.660   7.252 -0.7583 -1.9340 -1.9323
  158SAPE   C3917676   6.411   6.665   7.420  0.1221  0.2393  0.4848
  158SAPE   H9X17677   6.489   6.718   7.478 -0.9358 -0.2252  2.4066
  158SAPE   H9Y17678   6.432   6.557   7.440  1.0877  0.5536  1.2145
  158SAPE  C31017679   6.271   6.704   7.464  0.2558  0.6415 -0.8387
  158SAPE  H10X17680   6.204   6.618   7.442 -0.4642  1.2344 -1.0237
  158SAPE  H10Y17681   6.234   6.793   7.409  0.7628  1.9465  0.8547
  158SAPE  C31117682   6.273   6.731   7.616 -0.3764  0.7195 -0.2357
  158SAPE  H11X17683   6.179   6.774   7.655 -0.1052  0.9760  0.1489
  158SAPE  H11Y17684   6.358   6.795   7.648  0.5298 -0.3800 -0.3615
  158SAPE  C31217685   6.295   6.589   7.684  0.2616  0.0742 -0.4098
  158SAPE  H12X17686   6.398   6.555   7.660 -0.4779 -1.5539 -1.4351
  158SAPE  H12Y17687   6.217   6.514   7.660 -1.9752  2.0466  0.3535
  158SAPE  C31317688   6.305   6.597   7.833 -0.5186 -0.3468 -0.1160
  158SAPE  H13X17689   6.375   6.679   7.861 -0.6119  0.0708 -1.0630
  158SAPE  H13Y17690   6.356   6.508   7.876  1.5684  1.5465  1.5347
  158SAPE  C31417691   6.167   6.615   7.909 -0.7434  0.2771 -0.5484
  158SAPE  H14X17692   6.114   6.710   7.885  1.2994  1.3104 -1.2202
  158SAPE  H14Y17693   6.181   6.616   8.019  0.8614 -0.1126 -0.7275
  158SAPE  C31517694   6.072   6.499   7.884 -0.5414  0.0890  0.6501
  158SAPE  H15X17695   6.107   6.396   7.905 -1.1700 -0.0743  0.9202
  158SAPE  H15Y17696   6.025   6.500   7.783  1.3999  0.0659 -0.2929
  158SAPE  C31617697   5.955   6.498   7.986  0.1460  0.1490  0.1657
  158SAPE  H16X17698   5.883   6.580   7.966  0.1033  0.1754  0.4225
  158SAPE  H16Y17699   5.994   6.520   8.088 -1.2818 -0.0391  0.7664
  158SAPE  C31717700   5.873   6.365   7.974  0.0438 -0.7017 -0.4515
  158SAPE  H17X17701   5.776   6.381   8.026 -0.7610 -0.2768 -2.0257
  158SAPE  H17Y17702   5.929   6.284   8.026  2.0772  0.4556 -0.7110
  158SAPE  C31817703   5.827   6.338   7.834  0.9209 -0.2504  0.6991
  158SAPE  H18X17704   5.911   6.311   7.767  3.3735  3.2842  2.0746
  158SAPE  H18Y17705   5.748   6.405   7.794 -2.1540 -2.6386  2.3635
  158SAPE  H18Z17706   5.780   6.237   7.835 -0.7722  0.4993  0.2512
  159SAPE     N17707   5.647   1.778   6.024  0.9126 -0.1927 -0.5831
  159SAPE   HN117708   5.743   1.818   6.028  0.5207  0.6569  1.3963
  159SAPE   HN217709   5.646   1.682   5.985  0.4059 -0.1089 -0.7840
  159SAPE   HN317710   5.605   1.851   5.962 -0.1806 -0.6388 -0.3854
  159SAPE   C1217711   5.585   1.780   6.153  0.4971  0.0898 -0.4459
  159SAPE  H12A17712   5.649   1.731   6.229 -1.7322  0.9082  2.1213
  159SAPE  H12B17713   5.487   1.728   6.160  0.9799 -0.6391  1.4641
  159SAPE   C1117714   5.567   1.922   6.204  0.0830  0.3949  1.1190
  159SAPE  H11A17715   5.667   1.970   6.196 -0.1007  0.4603 -1.8465
  159SAPE  H11B17716   5.537   1.923   6.311 -0.7032  0.1706  0.9071
  159SAPE     P17717   5.344   2.077   6.199  0.4133 -0.1574 -0.4035
  159SAPE   O1317718   5.313   2.195   6.116  0.3981  0.0359 -0.2250
  159SAPE   O1417719   5.229   1.987   6.217 -0.1220  0.0576  0.5704
  159SAPE   O1217720   5.471   2.002   6.132 -0.6556 -0.1088 -0.0040
  159SAPE   O1117721   5.388   2.126   6.342 -0.3421 -0.2307 -0.1560
  159SAPE    C117722   5.481   2.234   6.362  0.4635  0.7319 -0.0675
  159SAPE    HA17723   5.556   2.238   6.280  0.2285 -0.9440 -0.3811
  159SAPE    HB17724   5.428   2.332   6.355  0.4173  0.5993 -4.3598
  159SAPE    C217725   5.552   2.219   6.498 -0.3583  0.1980  0.6261
  159SAPE    HS17726   5.609   2.124   6.496  1.0252  1.0186 -0.6263
  159SAPE   O2117727   5.472   2.212   6.615 -0.1278 -0.2952 -0.0740
  159SAPE   C2117728   5.361   2.290   6.617 -0.3474 -0.5519  0.1588
  159SAPE   O2217729   5.357   2.398   6.561 -0.5030 -0.0518  0.0621
  159SAPE   C2217730   5.259   2.214   6.697 -0.0168 -0.6976 -0.4667
  159SAPE   H2R17731   5.193   2.163   6.624 -1.0714 -0.4102  0.2666
  159SAPE   H2S17732   5.303   2.134   6.761  0.9060  1.1706  1.3536
  159SAPE    C317733   5.662   2.329   6.511  0.2923 -0.3911  1.3303
  159SAPE    HX17734   5.600   2.421   6.497 -3.5623 -3.1079 -1.6264
  159SAPE    HY17735   5.730   2.318   6.424  0.6827 -0.6485  1.6649
  159SAPE   O3117736   5.735   2.311   6.633 -0.7662  0.0207  0.3358
  159SAPE   C3117737   5.787   2.416   6.685  0.6599 -0.3999  0.0891
  159SAPE   O3217738   5.786   2.527   6.638 -0.4075 -0.1371 -0.4688
  159SAPE   C3217739   5.867   2.376   6.814 -0.8302  0.5747 -0.7157
  159SAPE   H2X17740   5.940   2.297   6.785  1.4623  0.7174  3.7791
  159SAPE   H2Y17741   5.796   2.333   6.888  2.0023 -3.6226 -0.1046
  159SAPE   C2317742   5.159   2.305   6.770 -0.2398 -0.2614  0.1704
  159SAPE   H3R17743   5.072   2.245   6.805  0.0682 -0.1302  1.1621
  159SAPE   H3S17744   5.118   2.380   6.698  1.6987  0.4057 -0.2938
  159SAPE   C2417745   5.220   2.383   6.888 -0.1558  0.0320  0.4936
  159SAPE   H4R17746   5.136   2.440   6.933 -0.0196  1.0014 -0.4443
  159SAPE   H4S17747   5.288   2.458   6.843  2.2119 -1.4373  1.4080
  159SAPE   C2517748   5.295   2.302   6.991  0.1151  0.4225  0.4771
  159SAPE   H5R17749   5.399   2.277   6.965  0.2584 -0.1166  1.4997
  159SAPE   C2617750   5.234   2.248   7.095 -0.2876  0.0597  0.7410
  159SAPE   H6R17751   5.281   2.166   7.151  1.9272  1.1244  0.5254
  159SAPE   C2717752   5.088   2.254   7.128 -1.0468 -1.1879  0.4424
  159SAPE   H7R17753   5.036   2.313   7.048 -0.3041 -0.0733  0.7607
  159SAPE   H7S17754   5.088   2.325   7.213 -1.9383 -2.4165  1.4984
  159SAPE   C2817755   5.010   2.132   7.162  0.3249  0.0369  0.1957
  159SAPE   H8R17756   4.966   2.086   7.073 -0.4236  0.0964  0.5311
  159SAPE   C2917757   4.991   2.085   7.290  0.1959  0.2529 -0.7084
  159SAPE   H9R17758   4.915   2.008   7.311  0.8472 -0.5712 -1.2763
  159SAPE  C21017759   5.039   2.147   7.414 -0.0668 -0.3309 -0.4517
  159SAPE  H10R17760   5.147   2.172   7.404 -0.0696  0.6899  1.6060
  159SAPE  H10S17761   5.029   2.062   7.485 -5.0607 -1.5521 -2.1666
  159SAPE  C21117762   4.963   2.263   7.463 -0.0594  0.0497 -0.1700
  159SAPE  H11R17763   4.945   2.346   7.394 -2.8506 -0.3787 -0.1004
  159SAPE  C21217764   4.915   2.281   7.590 -0.4608  0.0413  0.2872
  159SAPE  H12R17765   4.881   2.380   7.624  2.3184  0.8571  0.9965
  159SAPE  C21317766   4.917   2.177   7.701 -0.5620  0.3716 -0.3180
  159SAPE  H13R17767   4.932   2.228   7.799  0.1788 -0.7062  0.1397
  159SAPE  H13S17768   5.012   2.120   7.703  0.1670  1.4719 -1.6635
  159SAPE  C21417769   4.797   2.087   7.699 -0.1224 -0.1055  0.4927
  159SAPE  H14R17770   4.730   2.092   7.612  0.3646  0.2619  0.1335
  159SAPE  C21517771   4.789   1.976   7.785 -0.3542 -0.5328  0.0306
  159SAPE  H15R17772   4.695   1.919   7.794 -0.9237  0.2520 -0.7008
  159SAPE  C21617773   4.874   1.936   7.898  0.1537  0.4387 -0.5119
  159SAPE  H16R17774   4.972   1.987   7.889  0.4719 -0.0716 -0.0392
  159SAPE  H16S17775   4.907   1.830   7.890 -0.9848 -0.0123  0.4048
  159SAPE  C21717776   4.808   1.952   8.039  0.0995 -0.1775 -0.6297
  159SAPE  H17R17777   4.733   1.870   8.040  2.6526 -2.6940 -1.9573
  159SAPE  H17S17778   4.773   2.056   8.054  2.4101  1.0073 -2.7231
  159SAPE  C21817779   4.915   1.912   8.147  0.7307 -0.2147 -0.8447
  159SAPE  H18R17780   5.005   1.971   8.117 -0.2531  0.8479 -1.8170
  159SAPE  H18S17781   4.927   1.802   8.138 -1.5759 -0.9855  3.2168
  159SAPE  C21917782   4.863   1.944   8.287 -0.3948 -0.1116  0.4721
  159SAPE  H19R17783   4.771   1.885   8.306 -0.0211 -1.2911 -1.1955
  159SAPE  H19S17784   4.845   2.053   8.297 -1.5232 -0.1116 -1.2176
  159SAPE  C22017785   4.957   1.901   8.401  0.1627  0.1161  0.2990
  159SAPE  H20R17786   5.048   1.965   8.396  0.3950 -0.2089  0.3852
  159SAPE  H20S17787   4.981   1.793   8.389 -0.4990  0.1284 -1.4804
  159SAPE  H20T17788   4.901   1.931   8.492 -0.8271 -0.3903 -0.1237
  159SAPE   C3317789   5.942   2.506   6.858  0.3352  0.4561  0.8189
  159SAPE   H3X17790   5.868   2.564   6.917 -1.2300 -1.7875  1.2086
  159SAPE   H3Y17791   5.982   2.571   6.777  2.0754 -1.9633 -0.3816
  159SAPE   C3417792   6.046   2.459   6.956  0.4223  0.8959 -0.3789
  159SAPE   H4X17793   6.113   2.544   6.977  0.3489  0.8638  0.0035
  159SAPE   H4Y17794   6.109   2.375   6.920 -0.8785 -0.1605 -0.2997
  159SAPE   C3517795   5.989   2.404   7.094 -0.3579 -0.0560 -0.1621
  159SAPE   H5X17796   5.980   2.296   7.066  1.3179 -0.7333  1.6874
  159SAPE   H5Y17797   5.887   2.439   7.124 -0.2396  0.0538  0.1206
  159SAPE   C3617798   6.088   2.420   7.216 -0.0353  0.2864 -0.9369
  159SAPE   H6X17799   6.079   2.530   7.235 -0.1329 -0.2479  2.8547
  159SAPE   H6Y17800   6.194   2.412   7.184  0.8056  1.3372  1.4097
  159SAPE   C3717801   6.047   2.338   7.337 -0.2271  0.0030  0.2552
  159SAPE   H7X17802   6.063   2.233   7.302 -1.3124 -0.8701  2.2040
  159SAPE   H7Y17803   5.938   2.357   7.336 -0.1379  0.8661 -2.8722
  159SAPE   C3817804   6.120   2.352   7.469  0.6129  0.0820  0.1918
  159SAPE   H8X17805   6.153   2.458   7.474 -1.8747  0.8828  1.2734
  159SAPE   H8Y17806   6.219   2.302   7.469  1.6305  1.9940 -0.3340
  159SAPE   C3917807   6.033   2.321   7.597  0.0214 -0.4681  0.0046
  159SAPE   H9X17808   6.006   2.214   7.590  2.9326 -1.1539 -2.9943
  159SAPE   H9Y17809   5.939   2.380   7.589  0.4551  0.2529  0.1116
  159SAPE  C31017810   6.089   2.370   7.735 -0.4734  0.5357 -0.0637
  159SAPE  H10X17811   6.088   2.481   7.728 -3.2226  0.4826 -2.4154
  159SAPE  H10Y17812   6.192   2.330   7.752 -0.5861  0.5045  0.5695
  159SAPE  C31117813   6.005   2.329   7.857 -0.2217 -0.5204 -0.5799
  159SAPE  H11X17814   5.990   2.219   7.867  2.4781 -0.8528  0.5045
  159SAPE  H11Y17815   5.908   2.381   7.843  1.4770  2.3217 -2.9728
  159SAPE  C31217816   6.070   2.367   7.998 -0.3120 -0.6957  0.1264
  159SAPE  H12X17817   6.091   2.476   7.991 -0.9759 -0.5394  0.4876
  159SAPE  H12Y17818   6.166   2.311   8.008 -0.6337 -1.3160 -0.2490
  159SAPE  C31317819   5.985   2.327   8.121  0.4075  0.6505  0.7337
  159SAPE  H13X17820   5.993   2.216   8.113  1.3565  0.7857 -0.5786
  159SAPE  H13Y17821   5.877   2.350   8.112  0.5547  1.0154 -0.1732
  159SAPE  C31417822   6.049   2.348   8.263  0.1139 -0.8551  0.4141
  159SAPE  H14X17823   6.063   2.456   8.285  0.8108 -1.0094  0.7376
  159SAPE  H14Y17824   6.151   2.308   8.252  0.6682  0.8187 -1.1021
  159SAPE  C31517825   5.965   2.304   8.380 -0.0615  0.3874  0.0200
  159SAPE  H15X17826   5.946   2.194   8.384  0.6075  0.2922  1.0240
  159SAPE  H15Y17827   5.867   2.356   8.377  0.5713  1.6536  0.6600
  159SAPE  C31617828   6.024   2.332   8.515  0.2079  0.2007 -0.6009
  159SAPE  H16X17829   6.135   2.336   8.515  0.2176  0.1663 -1.6490
  159SAPE  H16Y17830   5.991   2.254   8.587 -1.0917  0.5089 -0.8412
  159SAPE  C31717831   5.967   2.466   8.569 -0.2562 -0.1541 -0.2989
  159SAPE  H17X17832   5.859   2.475   8.545  0.3147 -0.2358 -3.3947
  159SAPE  H17Y17833   6.028   2.541   8.515  0.0459  0.3104  0.6651
  159SAPE  C31817834   5.968   2.488   8.723 -0.0153  0.1220  0.3659
  159SAPE  H18X17835   6.070   2.487   8.767  0.6380 -3.1923 -0.9190
  159SAPE  H18Y17836   5.919   2.398   8.766  0.1410 -0.5599 -0.8499
  159SAPE  H18Z17837   5.913   2.580   8.755 -1.3916 -1.2372  2.1548
  160SAPE     N17838   5.916   0.697   6.684  0.5323 -0.0765 -0.7003
  160SAPE   HN117839   5.946   0.785   6.730 -2.7450 -0.4456  2.5432
  160SAPE   HN217840   5.813   0.692   6.671  0.5953  0.9103 -1.8178
  160SAPE   HN317841   5.939   0.610   6.735 -0.5791 -0.1160 -0.2557
  160SAPE   C1217842   5.957   0.685   6.543 -0.0157  0.4533  0.0757
  160SAPE  H12A17843   5.987   0.786   6.509 -1.4417  0.1153 -2.5080
  160SAPE  H12B17844   5.870   0.656   6.480  0.1438 -0.4285  0.2437
  160SAPE   C1117845   6.082   0.595   6.516 -0.4090 -0.3286  0.1330
  160SAPE  H11A17846   6.087   0.585   6.406 -2.1158 -1.7357  0.1470
  160SAPE  H11B17847   6.052   0.500   6.565 -1.7145 -0.0599 -0.1237
  160SAPE     P17848   6.302   0.754   6.513  0.0756  0.1055  0.1977
  160SAPE   O1317849   6.394   0.656   6.460 -0.4583  0.4352  0.4656
  160SAPE   O1417850   6.237   0.848   6.423  0.8389  0.0527  0.0770
  160SAPE   O1217851   6.199   0.658   6.578 -0.2970  0.4417 -0.4728
  160SAPE   O1117852   6.364   0.834   6.634  0.4408  0.7726  0.0939
  160SAPE    C117853   6.397   0.768   6.756  0.5665  0.0451  0.0173
  160SAPE    HA17854   6.427   0.664   6.733  0.5247  0.5457 -2.6554
  160SAPE    HB17855   6.486   0.811   6.806  0.1280 -1.1251  1.8617
  160SAPE    C217856   6.266   0.782   6.854  0.4837  0.2048 -0.9401
  160SAPE    HS17857   6.181   0.726   6.810  1.1456  0.7098 -2.9618
  160SAPE   O2117858   6.240   0.920   6.885 -0.4088  0.1603 -0.1875
  160SAPE   C2117859   6.120   0.960   6.864  0.6834  0.0947 -0.0880
  160SAPE   O2217860   6.024   0.891   6.826  0.1066  0.4142 -0.2585
  160SAPE   C2217861   6.115   1.110   6.903 -0.3512 -0.2870 -0.4710
  160SAPE   H2R17862   6.218   1.146   6.925 -0.7769  1.7774 -1.6823
  160SAPE   H2S17863   6.080   1.152   6.806 -0.4087 -0.4500 -0.5219
  160SAPE    C317864   6.296   0.721   6.994  0.4901  0.5306 -0.4158
  160SAPE    HX17865   6.373   0.773   7.054 -2.2494  2.4792  1.6392
  160SAPE    HY17866   6.332   0.621   6.962  1.5081  0.7143  0.1257
  160SAPE   O3117867   6.172   0.713   7.072  0.9110  0.7904  0.0885
  160SAPE   C3117868   6.189   0.675   7.195 -0.7954  0.0081 -0.1574
  160SAPE   O3217869   6.295   0.657   7.252  0.5437 -0.2378  0.0413
  160SAPE   C3217870   6.062   0.661   7.275 -0.2687 -0.6415 -0.0467
  160SAPE   H2X17871   6.012   0.570   7.236 -0.1031 -1.1298  0.8614
  160SAPE   H2Y17872   6.004   0.749   7.240  0.5185 -1.1957 -3.0439
  160SAPE   C2317873   6.017   1.134   7.020  0.9452  0.3712 -0.1743
  160SAPE   H3R17874   5.914   1.103   6.993  1.1657 -1.2474  0.7099
  160SAPE   H3S17875   6.020   1.244   7.037  1.3350  0.8075 -2.6613
  160SAPE   C2417876   6.058   1.048   7.138 -0.4096 -0.3923 -0.6204
  160SAPE   H4R17877   6.035   0.940   7.120 -0.7279 -1.3184  4.0266
  160SAPE   H4S17878   5.983   1.068   7.218  1.7947 -1.7512  1.9652
  160SAPE   C2517879   6.199   1.067   7.188  0.3052 -0.2339  0.0136
  160SAPE   H5R17880   6.272   1.011   7.128  1.7544 -0.3645  1.8248
  160SAPE   C2617881   6.249   1.130   7.295 -0.1628 -0.6574 -0.0993
  160SAPE   H6R17882   6.359   1.134   7.305 -0.0002  1.8451 -1.9090
  160SAPE   C2717883   6.177   1.210   7.398  0.2628 -0.1303  0.4366
  160SAPE   H7R17884   6.067   1.203   7.388  0.3186 -0.6124  0.1003
  160SAPE   H7S17885   6.200   1.318   7.387  0.1540 -0.1770 -0.2789
  160SAPE   C2817886   6.225   1.181   7.536  0.0754 -0.1056  0.5948
  160SAPE   H8R17887   6.311   1.112   7.548 -0.8107 -0.9426  2.7849
  160SAPE   C2917888   6.167   1.242   7.644 -0.3036 -0.9928 -0.5071
  160SAPE   H9R17889   6.217   1.230   7.741  1.8745  1.5927 -1.1632
  160SAPE  C21017890   6.045   1.331   7.645  0.1676 -0.1278  0.2049
  160SAPE  H10R17891   6.022   1.371   7.544 -0.3303 -0.5756  0.1342
  160SAPE  H10S17892   6.084   1.416   7.705  2.5511 -1.4558  0.6457
  160SAPE  C21117893   5.927   1.266   7.705 -1.0427  0.0077 -0.8790
  160SAPE  H11R17894   5.890   1.174   7.657  1.3490 -1.9497  0.7938
  160SAPE  C21217895   5.884   1.283   7.833 -1.1417  0.8476  0.1414
  160SAPE  H12R17896   5.787   1.240   7.860 -0.8362 -1.2228 -1.7628
  160SAPE  C21317897   5.946   1.370   7.934  0.0168  0.1252 -0.7481
  160SAPE  H13R17898   5.932   1.478   7.909  1.6772  0.4098 -0.5366
  160SAPE  H13S17899   6.056   1.360   7.924  0.0775  1.0529 -1.1102
  160SAPE  C21417900   5.902   1.343   8.080 -0.2108  0.3107  0.0250
  160SAPE  H14R17901   5.933   1.256   8.139 -1.1715  0.8874  1.4210
  160SAPE  C21517902   5.812   1.413   8.147 -0.4425 -0.5763 -0.4450
  160SAPE  H15R17903   5.771   1.370   8.239 -1.5228  1.1312 -0.0829
  160SAPE  C21617904   5.743   1.540   8.104  0.3635 -0.2735  0.7578
  160SAPE  H16R17905   5.633   1.540   8.093  0.3221 -0.1045  1.1746
  160SAPE  H16S17906   5.776   1.561   8.000 -0.2948  0.7278  0.7408
  160SAPE  C21717907   5.779   1.659   8.198  0.0111  0.2476  0.0421
  160SAPE  H17R17908   5.753   1.622   8.300  0.6517  1.0447  0.5073
  160SAPE  H17S17909   5.708   1.739   8.165 -1.0669 -0.6759  0.0465
  160SAPE  C21817910   5.926   1.706   8.187  0.0290 -0.0487 -0.2553
  160SAPE  H18R17911   5.933   1.755   8.088 -0.3959  3.3586  1.2689
  160SAPE  H18S17912   5.994   1.618   8.186  3.1873  2.2131  0.5934
  160SAPE  C21917913   5.962   1.814   8.293 -0.5107  0.5573 -0.3504
  160SAPE  H19R17914   6.027   1.767   8.370  0.6893  1.0474 -1.0255
  160SAPE  H19S17915   5.873   1.844   8.351 -0.3081 -1.6934  1.2585
  160SAPE  C22017916   6.048   1.924   8.222 -0.2513  0.5645 -1.1184
  160SAPE  H20R17917   6.137   1.886   8.168  1.2834  1.8862  0.3616
  160SAPE  H20S17918   6.083   2.000   8.295  1.3491 -2.7595  1.9523
  160SAPE  H20T17919   5.979   1.979   8.154 -0.9603  0.8503 -0.1942
  160SAPE   C3317920   6.088   0.648   7.422 -0.3900  0.6775 -0.0819
  160SAPE   H3X17921   6.163   0.572   7.451 -1.9996 -0.4587  1.3580
  160SAPE   H3Y17922   6.003   0.600   7.476  0.6737 -0.8596  0.2859
  160SAPE   C3417923   6.116   0.790   7.478 -0.7035 -0.7055  0.0133
  160SAPE   H4X17924   6.020   0.842   7.496  0.8188  2.0935  0.6135
  160SAPE   H4Y17925   6.177   0.850   7.407 -1.7680  0.6626  0.2300
  160SAPE   C3517926   6.193   0.793   7.616 -0.4504 -0.2834 -0.0551
  160SAPE   H5X17927   6.219   0.900   7.633 -0.8996 -0.4284  1.7093
  160SAPE   H5Y17928   6.286   0.737   7.593 -0.9976 -1.4507  0.5039
  160SAPE   C3617929   6.113   0.738   7.738  0.5605 -0.0633 -0.2864
  160SAPE   H6X17930   6.088   0.635   7.707 -0.3988  0.4406 -1.2890
  160SAPE   H6Y17931   6.013   0.784   7.755 -0.1617 -0.6760 -2.5205
  160SAPE   C3717932   6.194   0.736   7.864 -0.2673 -0.3476 -0.2842
  160SAPE   H7X17933   6.221   0.844   7.871  0.8126 -0.5182 -1.5533
  160SAPE   H7Y17934   6.279   0.665   7.857  0.3851  0.4517 -0.6054
  160SAPE   C3817935   6.113   0.683   7.982  0.7977  0.6142 -0.1758
  160SAPE   H8X17936   6.113   0.575   8.008  0.9195  0.7000  0.1775
  160SAPE   H8Y17937   6.007   0.705   7.954  1.0240  2.5531  0.3628
  160SAPE   C3917938   6.138   0.779   8.099 -0.0488  0.4581  0.5091
  160SAPE   H9X17939   6.129   0.887   8.075  0.6490  0.3530 -0.2908
  160SAPE   H9Y17940   6.241   0.758   8.135 -0.3209 -3.8435 -0.6549
  160SAPE  C31017941   6.036   0.750   8.209  0.2643 -0.0938  0.1464
  160SAPE  H10X17942   6.061   0.661   8.271  0.2416  1.2451  2.1839
  160SAPE  H10Y17943   5.936   0.736   8.163 -0.0949  3.0763 -0.2922
  160SAPE  C31117944   6.026   0.870   8.308 -0.2519  0.2322 -0.0952
  160SAPE  H11X17945   6.003   0.959   8.245 -0.3027 -0.8451 -1.6482
  160SAPE  H11Y17946   6.127   0.885   8.351 -0.7619  0.7600  0.9617
  160SAPE  C31217947   5.929   0.858   8.428 -0.6718  0.5815 -0.6299
  160SAPE  H12X17948   5.954   0.763   8.481  0.4982  1.5151  0.5592
  160SAPE  H12Y17949   5.830   0.849   8.378 -1.3485  0.3707  0.6986
  160SAPE  C31317950   5.948   0.964   8.529 -0.4140 -0.8869 -0.5352
  160SAPE  H13X17951   6.054   0.975   8.562 -0.8996  1.6874  0.3550
  160SAPE  H13Y17952   5.892   0.939   8.621 -0.0404  0.5428  0.1025
  160SAPE  C31417953   5.896   1.104   8.483 -0.7236 -0.3895 -0.2666
  160SAPE  H14X17954   5.786   1.096   8.470 -1.1294 -0.1301  2.4293
  160SAPE  H14Y17955   5.944   1.143   8.390  1.3501  2.2536  1.7396
  160SAPE  C31517956   5.923   1.218   8.578 -1.0779 -0.5841 -0.7710
  160SAPE  H15X17957   6.030   1.247   8.587 -0.8216 -1.8783  1.1375
  160SAPE  H15Y17958   5.890   1.192   8.681 -0.4417 -0.4306 -0.5209
  160SAPE  C31617959   5.840   1.342   8.545  0.4845 -0.1667 -0.1643
  160SAPE  H16X17960   5.735   1.313   8.567  0.7952 -1.1537  0.0709
  160SAPE  H16Y17961   5.851   1.358   8.436 -0.5215 -0.5812 -0.3417
  160SAPE  C31717962   5.887   1.465   8.623 -0.4109 -0.0478  0.0643
  160SAPE  H17X17963   5.858   1.562   8.579  1.7810 -0.6595 -3.0911
  160SAPE  H17Y17964   5.998   1.466   8.611 -0.4004  1.1500  0.1697
  160SAPE  C31817965   5.858   1.478   8.770 -0.2306 -0.5380  0.0846
  160SAPE  H18X17966   5.919   1.558   8.816 -1.8566  0.5705  0.3790
  160SAPE  H18Y17967   5.863   1.380   8.824 -1.6155 -1.3893 -1.2428
  160SAPE  H18Z17968   5.750   1.499   8.786 -0.0102  0.2742  0.5712
  161SOPE     N17969   4.982   2.153  10.531 -0.5156  0.5504 -0.4528
  161SOPE   HN117970   4.979   2.078  10.460  0.3139  0.9899 -0.9704
  161SOPE   HN217971   4.902   2.220  10.527 -0.0698  1.1920  0.8118
  161SOPE   HN317972   5.070   2.209  10.538 -0.1713  0.1569 -1.4891
  161SOPE   C1217973   4.972   2.082  10.666 -0.3031 -0.3220 -0.0070
  161SOPE  H12A17974   5.073   2.051  10.701 -1.2169  0.3659  3.7602
  161SOPE  H12B17975   4.894   2.004  10.652 -1.0645  0.3565  0.3636
  161SOPE   C1117976   4.920   2.189  10.772  0.3617 -0.7593  0.3960
  161SOPE  H11A17977   4.987   2.275  10.790 -2.9188  2.3961 -1.2103
  161SOPE  H11B17978   4.910   2.131  10.866  0.7738  1.8605  2.1718
  161SOPE     P17979   4.763   2.378  10.676 -0.0405 -0.1229  0.0127
  161SOPE   O1317980   4.883   2.458  10.658 -0.6246  0.1980 -0.7975
  161SOPE   O1417981   4.639   2.433  10.736  0.4113 -0.0914 -0.2765
  161SOPE   O1217982   4.789   2.241  10.750  0.3464 -0.2468  0.3121
  161SOPE   O1117983   4.742   2.316  10.531 -0.6229  0.2998  0.5376
  161SOPE    C117984   4.752   2.392  10.408 -0.5691 -0.1205  0.3650
  161SOPE    HA17985   4.787   2.327  10.324 -3.7543  0.5780 -1.6882
  161SOPE    HB17986   4.833   2.468  10.414  0.4822 -0.9352 -2.1912
  161SOPE    C217987   4.610   2.430  10.352 -0.2687  0.1564 -0.2145
  161SOPE    HS17988   4.566   2.490  10.435  3.3666 -0.6563  2.5358
  161SOPE   O2117989   4.527   2.314  10.324  0.1615  0.0489 -0.4060
  161SOPE   C2117990   4.424   2.324  10.246  1.3218 -0.2818  0.3668
  161SOPE   O2217991   4.358   2.427  10.222 -0.0811  0.5494  0.0051
  161SOPE   C2217992   4.384   2.184  10.198 -0.4952  0.4786  1.0511
  161SOPE   H2R17993   4.311   2.138  10.268 -0.9254 -1.1835 -0.4378
  161SOPE   H2S17994   4.478   2.125  10.204 -1.9489 -2.3375 -1.3794
  161SOPE    C317995   4.617   2.527  10.233  0.1812  0.1633 -0.3724
  161SOPE    HX17996   4.698   2.596  10.264  0.9536 -1.6321  1.9534
  161SOPE    HY17997   4.522   2.584  10.230  0.4659  0.5735 -2.1873
  161SOPE   O3117998   4.651   2.461  10.112 -0.0155 -0.4801 -0.4666
  161SOPE   C3117999   4.772   2.427  10.075  0.0082 -0.9205  0.5042
  161SOPE   O3218000   4.877   2.466  10.128 -0.2841  0.5641 -0.3584
  161SOPE   C3218001   4.763   2.344   9.949 -0.3599  0.0328 -0.5280
  161SOPE   H2X18002   4.746   2.410   9.861  2.5472  2.2051  0.3874
  161SOPE   H2Y18003   4.688   2.263   9.957  0.4503 -0.7555 -0.7614
  161SOPE   C2318004   4.304   2.182  10.067 -0.3352  0.0912  0.2119
  161SOPE   H3R18005   4.249   2.278  10.065  0.1924  0.4204 -2.5085
  161SOPE   H3S18006   4.225   2.104  10.066 -2.5248  2.1364  1.9256
  161SOPE   C2418007   4.385   2.172   9.941  0.1479 -0.4309  0.4302
  161SOPE   H4R18008   4.461   2.253   9.944  0.5947 -0.7731 -0.9735
  161SOPE   H4S18009   4.445   2.081   9.962  0.0100 -0.3770  1.0798
  161SOPE   C2518010   4.298   2.190   9.816  0.1023  0.3691  0.0031
  161SOPE   H5R18011   4.204   2.135   9.839  0.0140 -0.0216 -1.2022
  161SOPE   H5S18012   4.275   2.294   9.783  2.3019  0.8169 -0.2657
  161SOPE   C2618013   4.355   2.126   9.689 -0.3616  0.0204 -0.3731
  161SOPE   H6R18014   4.292   2.141   9.599 -2.3587 -0.1146  0.9437
  161SOPE   H6S18015   4.458   2.163   9.670  0.5632 -1.8115  0.7780
  161SOPE   C2718016   4.364   1.974   9.714  0.5196 -0.1231  0.0742
  161SOPE   H7R18017   4.443   1.963   9.791  0.9162  1.3722 -0.0720
  161SOPE   H7S18018   4.272   1.942   9.767  0.3135  0.3873  0.0383
  161SOPE   C2818019   4.388   1.887   9.593  0.2018 -0.5061  0.1013
  161SOPE   H8R18020   4.308   1.902   9.518  0.5430 -3.7546 -1.0780
  161SOPE   H8S18021   4.479   1.937   9.553 -1.1401  0.9350 -1.2430
  161SOPE   C2918022   4.420   1.746   9.599  0.2382 -0.5998  0.2127
  161SOPE   H9118023   4.504   1.727   9.667  1.3139  1.5511 -0.4304
  161SOPE  C21018024   4.369   1.644   9.525 -0.2309  0.3418 -0.2884
  161SOPE  H10118025   4.424   1.550   9.541  1.9518  1.8224  1.7011
  161SOPE  C21118026   4.264   1.647   9.418 -0.3533 -0.2222  0.6912
  161SOPE  H11R18027   4.199   1.737   9.421 -1.0197 -0.6157 -1.0990
  161SOPE  H11S18028   4.205   1.556   9.446 -2.9050  0.8968 -0.6720
  161SOPE  C21218029   4.323   1.637   9.277  0.1944  0.1234  0.3471
  161SOPE  H12R18030   4.420   1.583   9.274  0.0595 -0.1569 -2.5400
  161SOPE  H12S18031   4.342   1.743   9.248  1.1811 -0.3603 -0.8977
  161SOPE  C21318032   4.235   1.560   9.171 -0.5078  0.2721 -0.3031
  161SOPE  H13R18033   4.132   1.601   9.166 -1.9225 -2.7742  1.2935
  161SOPE  H13S18034   4.216   1.460   9.215 -1.3837 -0.1413 -1.5689
  161SOPE  C21418035   4.285   1.537   9.026  0.0931 -0.1792  0.5364
  161SOPE  H14R18036   4.376   1.472   9.026  0.1625 -0.1580  2.6370
  161SOPE  H14S18037   4.321   1.636   8.992 -0.0166  0.0124  0.9689
  161SOPE  C21518038   4.178   1.490   8.924 -0.0742 -0.0518  0.5693
  161SOPE  H15R18039   4.091   1.557   8.944  0.8610  0.8466  1.7585
  161SOPE  H15S18040   4.157   1.382   8.943  2.0346 -0.6041 -0.0738
  161SOPE  C21618041   4.228   1.509   8.778  0.1185  0.1178  0.6428
  161SOPE  H16R18042   4.312   1.437   8.773  0.8576  0.7573  2.7081
  161SOPE  H16S18043   4.278   1.606   8.762  1.3579 -0.4100  1.1739
  161SOPE  C21718044   4.127   1.473   8.670 -0.0436  0.6921 -0.3788
  161SOPE  H17R18045   4.028   1.519   8.691  0.5370  1.6504  0.3481
  161SOPE  H17S18046   4.113   1.363   8.670  0.3493  0.5306  2.7705
  161SOPE  C21818047   4.169   1.509   8.534  0.1482 -0.0233 -0.7608
  161SOPE  H18R18048   4.257   1.449   8.505 -0.1421 -1.0511  0.4082
  161SOPE  H18S18049   4.211   1.611   8.548 -0.1686 -0.0835  0.9023
  161SOPE  H18T18050   4.095   1.498   8.452  1.6168 -1.3067 -1.9586
  161SOPE   C3318051   4.902   2.272   9.921  0.1828  0.6543 -0.0145
  161SOPE   H3X18052   4.917   2.216  10.016 -1.6702  0.0980 -0.0121
  161SOPE   H3Y18053   4.975   2.354   9.903 -1.5535  2.3011  0.2266
  161SOPE   C3418054   4.906   2.174   9.807  0.5542 -0.4493  0.0215
  161SOPE   H4X18055   5.011   2.144   9.789  1.1574  0.8087  1.2677
  161SOPE   H4Y18056   4.867   2.217   9.712 -1.0013  2.4617  1.8365
  161SOPE   C3518057   4.831   2.043   9.845 -0.0260  0.0633 -0.2611
  161SOPE   H5X18058   4.731   2.069   9.885  0.1376  0.3225 -0.0180
  161SOPE   H5Y18059   4.879   2.011   9.940 -1.8136 -0.0685  0.6249
  161SOPE   C3618060   4.836   1.937   9.734 -0.0542  0.1666 -0.2400
  161SOPE   H6X18061   4.786   1.850   9.782  3.0200 -1.0435  1.1065
  161SOPE   H6Y18062   4.940   1.897   9.725 -0.7125 -2.3040  1.8981
  161SOPE   C3718063   4.783   1.974   9.594  0.1661 -0.0374  0.2698
  161SOPE   H7X18064   4.830   2.062   9.545  1.9083 -0.3527  1.2892
  161SOPE   H7Y18065   4.680   2.013   9.605 -0.2484 -0.8545 -0.5779
  161SOPE   C3818066   4.790   1.859   9.494 -0.2720  0.2410 -0.2503
  161SOPE   H8X18067   4.735   1.779   9.547 -1.7787  1.3797 -0.0460
  161SOPE   H8Y18068   4.895   1.822   9.490 -0.6536 -0.8159 -1.0707
  161SOPE   C3918069   4.724   1.888   9.361 -1.0041 -0.4467  0.1257
  161SOPE   H9X18070   4.795   1.952   9.306 -0.1505 -0.8949  0.6846
  161SOPE   H9Y18071   4.637   1.951   9.392 -0.0512  0.3287  1.3116
  161SOPE  C31018072   4.694   1.770   9.268  0.0678  0.0129 -0.1841
  161SOPE  H10X18073   4.602   1.722   9.306  0.0922  1.2800  1.5806
  161SOPE  H10Y18074   4.779   1.700   9.280  0.6113  0.7776  0.5703
  161SOPE  C31118075   4.668   1.798   9.116  0.2755  0.5861 -0.2753
  161SOPE  H11X18076   4.689   1.904   9.092  0.5868  0.6368  0.2087
  161SOPE  H11Y18077   4.566   1.787   9.074  1.0875  0.7367 -2.4188
  161SOPE  C31218078   4.749   1.702   9.024 -0.3883 -0.4769  0.1670
  161SOPE  H12X18079   4.726   1.596   9.047  1.2724 -0.9408 -0.2044
  161SOPE  H12Y18080   4.858   1.715   9.042 -0.4185  0.8916 -0.5027
  161SOPE  C31318081   4.723   1.729   8.871 -1.1063  0.0239 -0.7403
  161SOPE  H13X18082   4.787   1.818   8.851 -2.0060  1.7048  2.9651
  161SOPE  H13Y18083   4.614   1.733   8.849 -1.0315  0.7148 -1.0018
  161SOPE  C31418084   4.763   1.610   8.790 -0.4221  0.4051  0.2365
  161SOPE  H14X18085   4.863   1.578   8.825 -0.6982 -0.0714  0.5998
  161SOPE  H14Y18086   4.769   1.651   8.687  0.3062  3.0490  1.2417
  161SOPE  C31518087   4.659   1.493   8.792 -0.5569 -0.2475  0.8446
  161SOPE  H15X18088   4.570   1.520   8.731  0.6514 -0.0538 -0.9412
  161SOPE  H15Y18089   4.632   1.459   8.894  0.7909 -0.3622  1.1894
  161SOPE  C31618090   4.723   1.366   8.731 -0.0153 -0.0013  0.5504
  161SOPE  H16X18091   4.813   1.327   8.783  0.5757 -0.6595 -0.9151
  161SOPE  H16Y18092   4.746   1.382   8.624 -2.2493 -0.3687 -0.0195
  161SOPE  C31718093   4.620   1.259   8.719  0.8458  0.5394  0.3489
  161SOPE  H17X18094   4.530   1.293   8.664  0.0475 -0.8469  0.7420
  161SOPE  H17Y18095   4.573   1.244   8.819  1.7045  2.0294  0.9993
  161SOPE  C31818096   4.671   1.129   8.647  0.3042 -0.0928  0.6753
  161SOPE  H18X18097   4.739   1.061   8.703  0.3518  0.1260  0.8850
  161SOPE  H18Y18098   4.718   1.150   8.549 -2.0119  1.6537 -0.1460
  161SOPE  H18Z18099   4.582   1.068   8.620 -0.7712  2.6247 -2.5684
  162SOPE     N18100   3.587   2.327  11.076  0.5826  0.0459  0.0102
  162SOPE   HN118101   3.525   2.390  11.132  0.1764  0.3006 -0.7101
  162SOPE   HN218102   3.642   2.268  11.142 -2.3233 -0.5214  2.1405
  162SOPE   HN318103   3.651   2.377  11.012 -2.3165  1.0363 -2.3415
  162SOPE   C1218104   3.493   2.241  10.994  0.2462 -0.6036 -0.0328
  162SOPE  H12A18105   3.544   2.155  10.946  1.4879  0.4517 -0.6486
  162SOPE  H12B18106   3.446   2.307  10.918 -1.1034 -1.3495  0.1234
  162SOPE   C1118107   3.384   2.172  11.093  0.2865 -0.1538 -0.4334
  162SOPE  H11A18108   3.323   2.250  11.143  2.3686  1.1417  0.2156
  162SOPE  H11B18109   3.432   2.117  11.177  0.0317  0.6518  0.2501
  162SOPE     P18110   3.315   1.944  10.984  0.4721  0.2321 -0.4535
  162SOPE   O1318111   3.238   1.864  11.083  0.8063 -0.1402  0.5134
  162SOPE   O1418112   3.460   1.920  10.983  0.3693  0.1104 -0.3374
  162SOPE   O1218113   3.297   2.096  11.014  0.1161 -0.2507 -0.0698
  162SOPE   O1118114   3.261   1.923  10.841 -0.1919 -0.2834 -0.1228
  162SOPE    C118115   3.173   2.023  10.789  0.4137 -0.1877 -0.5641
  162SOPE    HA18116   3.215   2.126  10.795 -0.7772  0.2624  0.2406
  162SOPE    HB18117   3.085   2.028  10.856  1.0678  2.3142  0.2088
  162SOPE    C218118   3.105   1.993  10.654 -0.2032 -0.0489  0.8599
  162SOPE    HS18119   3.071   1.888  10.647  0.0083 -0.0057 -1.4545
  162SOPE   O2118120   3.202   2.027  10.546  0.2266  0.4865 -0.4979
  162SOPE   C2118121   3.189   1.953  10.437 -0.0568  0.2806  0.3598
  162SOPE   O2218122   3.098   1.876  10.414 -0.1650  0.6706 -0.7180
  162SOPE   C2218123   3.307   1.985  10.345  0.6600 -0.8294 -0.1125
  162SOPE   H2R18124   3.376   1.899  10.360  3.2943  0.4845 -3.4745
  162SOPE   H2S18125   3.349   2.086  10.363 -0.5615 -0.3325  0.0500
  162SOPE    C318126   2.975   2.080  10.643  0.6598 -0.0177  0.7160
  162SOPE    HX18127   3.016   2.181  10.665  0.7509  0.0866  0.0828
  162SOPE    HY18128   2.904   2.060  10.726  1.0492 -1.1451  0.7990
  162SOPE   O3118129   2.918   2.080  10.513  0.1004  0.2511 -0.1583
  162SOPE   C3118130   2.800   2.009  10.499  0.1585  0.5661  0.4100
  162SOPE   O3218131   2.754   1.933  10.583 -0.1684 -0.6860 -0.0282
  162SOPE   C3218132   2.748   2.028  10.353  0.0780  0.5007  0.7200
  162SOPE   H2X18133   2.752   2.136  10.327 -1.0369  0.3948  0.0294
  162SOPE   H2Y18134   2.640   2.003  10.357  0.1101  0.4870  1.6572
  162SOPE   C2318135   3.267   1.980  10.194  0.1909  0.0248 -0.5963
  162SOPE   H3R18136   3.206   2.071  10.177  2.1804  1.3262 -1.0863
  162SOPE   H3S18137   3.211   1.887  10.172  2.1045 -1.0856 -0.9413
  162SOPE   C2418138   3.395   1.980  10.111 -0.1631  0.1000  0.5265
  162SOPE   H4R18139   3.449   2.065  10.157  0.3010 -0.3689  0.8531
  162SOPE   H4S18140   3.447   1.883  10.123  1.5221  0.6416 -1.7107
  162SOPE   C2518141   3.365   2.002   9.958  0.6918 -0.3891  0.4019
  162SOPE   H5R18142   3.293   1.920   9.938  0.5298 -0.1350 -0.0854
  162SOPE   H5S18143   3.324   2.105   9.953 -0.0342 -0.6135  1.5132
  162SOPE   C2618144   3.486   2.000   9.860 -0.5637 -0.5122 -0.3107
  162SOPE   H6R18145   3.558   2.078   9.891  0.3311  0.1923 -3.7462
  162SOPE   H6S18146   3.539   1.905   9.885  0.0586 -0.8594 -2.6835
  162SOPE   C2718147   3.442   2.020   9.713 -0.8160 -0.0758  0.1699
  162SOPE   H7R18148   3.378   1.933   9.685 -2.4761  1.6927 -1.8304
  162SOPE   H7S18149   3.387   2.116   9.715  0.3852  0.6224  1.9358
  162SOPE   C2818150   3.563   2.009   9.620 -0.8171 -0.5047  1.1676
  162SOPE   H8R18151   3.595   1.904   9.636 -2.9839 -1.3058  0.5612
  162SOPE   H8S18152   3.521   2.017   9.517 -0.1193 -1.6035  0.7802
  162SOPE   C2918153   3.673   2.117   9.646 -0.5397  0.1981  0.2881
  162SOPE   H9118154   3.718   2.118   9.747 -1.1844 -2.0474  0.6542
  162SOPE  C21018155   3.730   2.204   9.558  0.0772  0.3918 -0.7011
  162SOPE  H10118156   3.788   2.291   9.592  1.3945  0.9526 -4.0131
  162SOPE  C21118157   3.695   2.206   9.411 -0.4695  0.5802  0.5569
  162SOPE  H11R18158   3.688   2.103   9.372 -0.9338  0.7171  0.2750
  162SOPE  H11S18159   3.785   2.248   9.360 -1.8061  1.4385 -1.2243
  162SOPE  C21218160   3.579   2.299   9.359 -0.2134 -0.0266 -0.5831
  162SOPE  H12R18161   3.485   2.246   9.383 -0.6507  1.2504  0.7002
  162SOPE  H12S18162   3.587   2.318   9.250 -0.3772  3.0299 -0.1414
  162SOPE  C21318163   3.572   2.434   9.436 -0.4016  0.2414  0.2738
  162SOPE  H13R18164   3.674   2.477   9.430 -1.2754  2.2776 -1.5240
  162SOPE  H13S18165   3.543   2.412   9.541  0.5956  0.2947  0.5655
  162SOPE  C21418166   3.477   2.538   9.380 -0.2057 -0.2733 -0.2099
  162SOPE  H14R18167   3.486   2.629   9.442  3.1980  1.6659 -3.2078
  162SOPE  H14S18168   3.376   2.492   9.385 -0.4288 -0.3677 -3.4998
  162SOPE  C21518169   3.500   2.562   9.232  0.2139 -0.2420 -0.1983
  162SOPE  H15R18170   3.443   2.491   9.169  1.0076  0.7198 -2.1075
  162SOPE  H15S18171   3.606   2.535   9.211  0.4767 -0.8190  1.7041
  162SOPE  C21618172   3.479   2.708   9.184 -0.4617  1.0981  1.3164
  162SOPE  H16R18173   3.536   2.786   9.239 -0.1689  2.3917 -0.7230
  162SOPE  H16S18174   3.372   2.737   9.192 -0.6572  0.1651  2.3121
  162SOPE  C21718175   3.526   2.731   9.039  0.4744  0.0127 -0.3428
  162SOPE  H17R18176   3.635   2.732   9.015  0.1209 -0.3308 -2.1216
  162SOPE  H17S18177   3.496   2.837   9.020  1.2855  0.3257  0.0664
  162SOPE  C21818178   3.452   2.654   8.925 -0.2901  0.0855  0.5073
  162SOPE  H18R18179   3.343   2.669   8.939 -0.4748  0.0488 -0.7989
  162SOPE  H18S18180   3.463   2.543   8.923 -0.5433  0.0651 -1.5949
  162SOPE  H18T18181   3.476   2.698   8.826 -2.2321  1.2853  0.5231
  162SOPE   C3318182   2.817   1.946  10.247 -0.0121  0.3639  0.0234
  162SOPE   H3X18183   2.824   1.839  10.276 -1.1291 -0.5248 -2.6576
  162SOPE   H3Y18184   2.912   2.003  10.232  0.7421 -0.6583  0.7466
  162SOPE   C3418185   2.732   1.940  10.114 -0.5531  0.0119 -0.3227
  162SOPE   H4X18186   2.701   2.044  10.089 -1.5609  1.2216  4.7345
  162SOPE   H4Y18187   2.638   1.889  10.144 -1.5889  1.0371 -1.7099
  162SOPE   C3518188   2.786   1.859   9.999 -0.1139 -0.0635  0.9022
  162SOPE   H5X18189   2.703   1.857   9.925  0.0559 -1.4822  0.7296
  162SOPE   H5Y18190   2.808   1.753  10.022  0.0998 -0.6429 -1.7355
  162SOPE   C3618191   2.909   1.919   9.923  0.5773 -0.4407 -0.3193
  162SOPE   H6X18192   2.986   1.910  10.003  0.2710 -0.9356 -0.0776
  162SOPE   H6Y18193   2.895   2.027   9.902  1.5149  0.1179  1.6853
  162SOPE   C3718194   2.928   1.842   9.792 -0.4762 -0.7070  0.0032
  162SOPE   H7X18195   2.834   1.831   9.735  0.1451 -1.3683 -0.9193
  162SOPE   H7Y18196   2.971   1.742   9.813 -1.0427 -0.5800  1.9454
  162SOPE   C3818197   3.033   1.905   9.699  0.5137 -0.2226 -0.2399
  162SOPE   H8X18198   3.130   1.900   9.753 -0.3639 -0.5993  1.3758
  162SOPE   H8Y18199   3.003   2.008   9.673 -0.7779 -0.6755 -0.6159
  162SOPE   C3918200   3.047   1.827   9.568 -0.8149 -0.5550 -0.4194
  162SOPE   H9X18201   2.944   1.805   9.532 -1.9913 -1.3718  3.0441
  162SOPE   H9Y18202   3.092   1.732   9.602 -1.4536 -0.8572 -0.4002
  162SOPE  C31018203   3.133   1.900   9.467  0.9471  0.5497  0.5272
  162SOPE  H10X18204   3.145   1.826   9.386 -0.5762  2.0301 -1.1388
  162SOPE  H10Y18205   3.222   1.934   9.524  0.8955  1.4365  0.1033
  162SOPE  C31118206   3.064   2.028   9.412 -0.0915 -0.1221 -0.2792
  162SOPE  H11X18207   3.072   2.107   9.490 -0.9462 -0.0540 -0.2555
  162SOPE  H11Y18208   2.958   1.999   9.394  0.0369 -1.1432  0.5132
  162SOPE  C31218209   3.127   2.075   9.280 -0.1863 -0.6994  0.8385
  162SOPE  H12X18210   3.153   1.989   9.216  3.2565  0.4959  0.4049
  162SOPE  H12Y18211   3.226   2.125   9.290  0.1947 -0.4455 -3.0007
  162SOPE  C31318212   3.032   2.178   9.215 -0.6642 -0.4388  0.3154
  162SOPE  H13X18213   3.029   2.262   9.288 -0.1937 -0.1598  0.0135
  162SOPE  H13Y18214   2.934   2.126   9.210 -0.1473 -1.3633 -0.3719
  162SOPE  C31418215   3.073   2.222   9.072  0.2723 -0.4229 -1.0306
  162SOPE  H14X18216   3.104   2.132   9.015  2.4634  1.0988 -2.3752
  162SOPE  H14Y18217   3.160   2.288   9.090  0.1202 -0.3956 -0.3547
  162SOPE  C31518218   2.963   2.297   8.999  0.2472  0.0014 -0.4885
  162SOPE  H15X18219   2.973   2.401   9.037  0.0932 -0.0002 -0.4433
  162SOPE  H15Y18220   2.870   2.256   9.042  0.7519  0.7813  1.4596
  162SOPE  C31618221   2.964   2.290   8.844  0.1106 -0.2296 -0.2143
  162SOPE  H16X18222   2.887   2.360   8.803 -0.6971 -0.9224  0.0789
  162SOPE  H16Y18223   2.948   2.183   8.816  1.2214 -0.2019 -1.0327
  162SOPE  C31718224   3.100   2.321   8.769  1.1115  0.2602 -0.4486
  162SOPE  H17X18225   3.075   2.288   8.666  0.3987  0.5763 -0.3869
  162SOPE  H17Y18226   3.177   2.249   8.803 -0.2704 -1.0001  0.1431
  162SOPE  C31818227   3.152   2.461   8.778 -0.2851  0.1962  0.3444
  162SOPE  H18X18228   3.193   2.496   8.681 -1.8218  0.1701 -0.3577
  162SOPE  H18Y18229   3.227   2.460   8.859 -0.6087 -1.1431  0.6575
  162SOPE  H18Z18230   3.071   2.529   8.813 -2.4272 -2.4213  0.7849
  163SOPE     N18231   3.605   6.346  11.129 -0.0023 -0.0929  0.2517
  163SOPE   HN118232   3.671   6.292  11.190 -1.6445 -0.1807  2.0403
  163SOPE   HN218233   3.638   6.443  11.111 -1.1868  0.0519 -1.2885
  163SOPE   HN318234   3.527   6.366  11.194 -0.0615 -0.5026  0.3106
  163SOPE   C1218235   3.560   6.289  10.995 -0.0573 -0.3546  0.5458
  163SOPE  H12A18236   3.598   6.185  11.003  1.2651  0.1235  0.7839
  163SOPE  H12B18237   3.609   6.341  10.910  0.3274  0.7900  1.4466
  163SOPE   C1118238   3.408   6.306  10.964  0.4569  0.2779  0.4238
  163SOPE  H11A18239   3.343   6.253  11.037 -0.9702  1.3846  0.0190
  163SOPE  H11B18240   3.369   6.261  10.870  0.7890 -0.1213  0.4775
  163SOPE     P18241   3.358   6.542  10.853 -0.0043  0.0066  0.4320
  163SOPE   O1318242   3.498   6.586  10.824  0.1099  0.0500  0.0306
  163SOPE   O1418243   3.258   6.641  10.888  0.3101 -0.1829 -0.7791
  163SOPE   O1218244   3.362   6.446  10.978 -0.4771  0.3123 -0.1724
  163SOPE   O1118245   3.301   6.453  10.740  0.0183  0.5083  0.1541
  163SOPE    C118246   3.320   6.472  10.605 -0.0878  0.6888  0.2972
  163SOPE    HA18247   3.360   6.570  10.573 -1.5549  0.9422 -0.8987
  163SOPE    HB18248   3.221   6.466  10.555 -0.3045  1.3138  0.6386
  163SOPE    C218249   3.411   6.357  10.540  0.4501 -0.1928  0.4406
  163SOPE    HS18250   3.514   6.364  10.580  1.1614 -0.6917 -1.2164
  163SOPE   O2118251   3.412   6.369  10.398  0.4279 -0.5211 -0.0501
  163SOPE   C2118252   3.502   6.447  10.348 -1.3701  0.0602 -0.4907
  163SOPE   O2218253   3.560   6.538  10.407  0.9741  0.5212 -0.1074
  163SOPE   C2218254   3.522   6.405  10.201 -0.3135 -0.1336  0.1631
  163SOPE   H2R18255   3.435   6.434  10.138 -0.7076 -1.5665  0.0183
  163SOPE   H2S18256   3.539   6.297  10.184  0.5969  0.2263 -1.4584
  163SOPE    C318257   3.366   6.214  10.573 -0.0534 -0.0987 -0.4859
  163SOPE    HX18258   3.269   6.199  10.522 -0.7836 -1.3147  1.1486
  163SOPE    HY18259   3.334   6.209  10.680  0.0925  1.0565 -0.3730
  163SOPE   O3118260   3.462   6.119  10.529 -0.3474 -0.0743 -0.6130
  163SOPE   C3118261   3.555   6.091  10.613 -0.3850  0.0367 -0.4237
  163SOPE   O3218262   3.580   6.156  10.715 -0.0953  0.1575  0.3325
  163SOPE   C3218263   3.648   5.972  10.574 -0.3550 -0.7983  0.7927
  163SOPE   H2X18264   3.586   5.881  10.579  0.7071 -1.5030  1.6941
  163SOPE   H2Y18265   3.735   5.965  10.643  0.0989 -2.5707  0.0858
  163SOPE   C2318266   3.644   6.471  10.143 -0.7845  0.3626 -0.2553
  163SOPE   H3R18267   3.734   6.447  10.203  1.7881  3.0967 -2.6468
  163SOPE   H3S18268   3.638   6.582  10.153  0.8844  0.2716  3.5491
  163SOPE   C2418269   3.686   6.419   9.996  0.3043  0.7912  0.2927
  163SOPE   H4R18270   3.793   6.444   9.981  1.1871 -2.8413 -0.2420
  163SOPE   H4S18271   3.675   6.309   9.996  0.7254  0.7495 -0.1775
  163SOPE   C2518272   3.605   6.468   9.879  0.6897 -0.3293 -0.1568
  163SOPE   H5R18273   3.506   6.416   9.879  0.2135  0.5654 -0.4132
  163SOPE   H5S18274   3.592   6.577   9.888 -1.2072 -0.5525  0.2653
  163SOPE   C2618275   3.671   6.420   9.748  0.3852  0.4699 -0.4745
  163SOPE   H6R18276   3.774   6.459   9.734 -0.0456  1.1219 -2.1114
  163SOPE   H6S18277   3.667   6.309   9.740  0.6303  0.5557 -2.0305
  163SOPE   C2718278   3.599   6.473   9.629 -0.1206  0.0529  0.3979
  163SOPE   H7R18279   3.489   6.479   9.645 -0.4159  0.9493 -1.6105
  163SOPE   H7S18280   3.627   6.578   9.607  2.1861 -0.7298 -0.7321
  163SOPE   C2818281   3.615   6.401   9.494 -0.3361 -0.3739 -0.3119
  163SOPE   H8R18282   3.585   6.470   9.412 -0.4034 -0.0318 -0.0009
  163SOPE   H8S18283   3.723   6.376   9.494 -0.1010  0.6033 -0.7679
  163SOPE   C2918284   3.531   6.275   9.488 -0.1956 -0.0011 -0.4787
  163SOPE   H9118285   3.466   6.250   9.573  0.1345  1.3508  0.2051
  163SOPE  C21018286   3.547   6.187   9.392 -0.3169  0.1671 -0.1045
  163SOPE  H10118287   3.470   6.109   9.377 -2.0362  2.1139 -2.1216
  163SOPE  C21118288   3.647   6.207   9.278  0.5617 -0.0755  0.1333
  163SOPE  H11R18289   3.742   6.153   9.300  1.6406  2.1753  1.3083
  163SOPE  H11S18290   3.677   6.313   9.263 -1.0824  0.4813  0.5689
  163SOPE  C21218291   3.599   6.149   9.147 -0.5890 -0.2416  0.5760
  163SOPE  H12R18292   3.494   6.184   9.141 -0.1901  1.0901  0.8225
  163SOPE  H12S18293   3.599   6.039   9.133  2.3977 -0.2341 -0.1727
  163SOPE  C21318294   3.668   6.208   9.023 -0.0218  0.4538  0.0712
  163SOPE  H13R18295   3.774   6.184   9.043  0.6232  3.2874  0.4098
  163SOPE  H13S18296   3.648   6.317   9.025 -0.8542  0.3109  1.9013
  163SOPE  C21418297   3.619   6.157   8.891  0.3507  0.0377  0.2848
  163SOPE  H14R18298   3.520   6.194   8.858  1.7480  1.8831 -2.2844
  163SOPE  H14S18299   3.629   6.047   8.891  0.5391  0.0319  1.7309
  163SOPE  C21518300   3.712   6.213   8.781  0.7495 -0.4226 -0.5718
  163SOPE  H15R18301   3.816   6.177   8.768  0.8228  0.3903 -2.6357
  163SOPE  H15S18302   3.725   6.322   8.802  0.6517 -0.4937 -0.1393
  163SOPE  C21618303   3.645   6.216   8.644 -0.2085 -0.0492 -0.1586
  163SOPE  H16R18304   3.709   6.263   8.566 -1.1531 -0.1221 -0.9924
  163SOPE  H16S18305   3.553   6.278   8.647  1.2231  2.2093 -0.1046
  163SOPE  C21718306   3.611   6.070   8.598  0.0184 -0.0230 -0.2268
  163SOPE  H17R18307   3.534   6.030   8.668  4.2142 -3.5932  2.8722
  163SOPE  H17S18308   3.695   5.998   8.602 -1.1750 -1.4940 -0.6354
  163SOPE  C21818309   3.549   6.054   8.460 -0.4491 -0.5529 -0.1811
  163SOPE  H18R18310   3.517   5.949   8.440  0.7995 -1.0627  0.3642
  163SOPE  H18S18311   3.621   6.089   8.382  1.4381 -1.5193  1.0468
  163SOPE  H18T18312   3.465   6.126   8.456 -0.2869 -0.3299  0.3970
  163SOPE   C3318313   3.691   5.984  10.425  0.3047 -0.1753 -0.2648
  163SOPE   H3X18314   3.601   5.994  10.360 -0.7475 -0.6443  1.0647
  163SOPE   H3Y18315   3.744   5.895  10.387 -0.2652  0.6069 -3.1583
  163SOPE   C3418316   3.798   6.092  10.385 -0.4591 -0.4113 -0.3072
  163SOPE   H4X18317   3.885   6.080  10.454 -0.8816 -2.0692 -0.0184
  163SOPE   H4Y18318   3.762   6.197  10.383  1.6499  0.4263  1.5063
  163SOPE   C3518319   3.850   6.053  10.249 -0.1597  0.1470 -0.2996
  163SOPE   H5X18320   3.767   6.062  10.177  2.3240  0.6661 -3.3191
  163SOPE   H5Y18321   3.884   5.948  10.245 -0.6302 -0.0165  0.0100
  163SOPE   C3618322   3.963   6.138  10.204  0.2177  0.0400  0.4007
  163SOPE   H6X18323   4.043   6.129  10.281  0.8442 -0.2277 -0.2606
  163SOPE   H6Y18324   3.943   6.245  10.183  1.5137  0.0913 -0.7475
  163SOPE   C3718325   4.030   6.097  10.068  0.4492  0.5893  0.5454
  163SOPE   H7X18326   4.065   5.992  10.072  0.1405  0.4022 -1.0967
  163SOPE   H7Y18327   4.119   6.156  10.037  1.2044 -1.5814 -1.6897
  163SOPE   C3818328   3.938   6.100   9.948  0.7045  0.1288 -0.0543
  163SOPE   H8X18329   3.870   6.188   9.953 -0.9670 -1.1077 -0.1941
  163SOPE   H8Y18330   3.877   6.007   9.946 -0.5409  0.9304 -0.4766
  163SOPE   C3918331   4.023   6.111   9.824 -0.0621 -0.2771 -0.2643
  163SOPE   H9X18332   4.102   6.034   9.837 -1.3227 -1.4448  0.8383
  163SOPE   H9Y18333   4.068   6.211   9.811 -0.0231 -0.3201 -0.4602
  163SOPE  C31018334   3.949   6.085   9.695 -0.4146 -0.0548  0.3657
  163SOPE  H10X18335   3.872   6.163   9.681 -1.6707 -1.1560  0.8895
  163SOPE  H10Y18336   3.898   5.986   9.706 -1.2586  0.5670  2.6366
  163SOPE  C31118337   4.044   6.071   9.574 -0.3833  0.0497  0.3123
  163SOPE  H11X18338   4.106   5.978   9.576 -0.0404  0.2232 -1.2655
  163SOPE  H11Y18339   4.116   6.155   9.583 -1.3370  1.2064 -1.9973
  163SOPE  C31218340   3.981   6.090   9.439  0.1844 -0.3075  0.1520
  163SOPE  H12X18341   3.927   6.187   9.438 -0.0227 -0.4105 -1.7338
  163SOPE  H12Y18342   3.907   6.007   9.434  0.0606 -0.1807 -0.1071
  163SOPE  C31318343   4.077   6.054   9.327 -0.4449  0.6782 -0.0501
  163SOPE  H13X18344   4.103   5.946   9.325  0.6422  0.8353  2.5570
  163SOPE  H13Y18345   4.170   6.112   9.343  0.3786 -0.7685  0.5627
  163SOPE  C31418346   4.016   6.099   9.193 -0.2519 -0.4930 -0.0891
  163SOPE  H14X18347   4.015   6.210   9.190  1.3813 -0.4601 -2.0345
  163SOPE  H14Y18348   3.915   6.057   9.173  0.4850 -1.3896 -2.2463
  163SOPE  C31518349   4.105   6.050   9.076 -0.3217  0.5706 -0.6824
  163SOPE  H15X18350   4.119   5.941   9.092 -0.6087  0.4475 -1.2423
  163SOPE  H15Y18351   4.210   6.086   9.069  0.8118 -2.4124 -0.1952
  163SOPE  C31618352   4.049   6.080   8.931  0.2015  0.0601  0.4949
  163SOPE  H16X18353   4.073   6.183   8.896  0.0845 -0.2702 -0.6166
  163SOPE  H16Y18354   3.939   6.071   8.946  0.0074  1.7758  0.3847
  163SOPE  C31718355   4.102   5.976   8.832  0.2027  0.0816  0.1789
  163SOPE  H17X18356   4.030   5.986   8.748 -0.8604 -0.5354  1.0022
  163SOPE  H17Y18357   4.086   5.872   8.867  0.2018  0.5239  1.5417
  163SOPE  C31818358   4.243   5.987   8.782 -0.0899  0.5007  0.1370
  163SOPE  H18X18359   4.319   5.978   8.862 -0.5736  1.1196  0.6842
  163SOPE  H18Y18360   4.244   6.090   8.740  0.5101  0.4325 -0.0203
  163SOPE  H18Z18361   4.257   5.910   8.704  1.8399  0.0243  0.9107
  164SOPE     N18362   5.914   4.460  10.755  0.2562  0.0571 -0.2178
  164SOPE   HN118363   5.991   4.429  10.817 -1.3059  1.2432  2.4759
  164SOPE   HN218364   5.868   4.544  10.797 -1.6030 -0.2703 -1.4443
  164SOPE   HN318365   5.836   4.391  10.761 -0.7126  1.2451  4.0833
  164SOPE   C1218366   5.970   4.492  10.618  0.4773  0.2335  0.4320
  164SOPE  H12A18367   6.008   4.596  10.621  1.2417 -0.0173 -0.2378
  164SOPE  H12B18368   5.891   4.480  10.541 -0.5641 -1.4329  1.6711
  164SOPE   C1118369   6.077   4.391  10.576 -0.1239 -0.0677 -0.8446
  164SOPE  H11A18370   6.130   4.417  10.482 -1.1265  0.3349 -1.3042
  164SOPE  H11B18371   6.016   4.299  10.568  0.0520 -0.2810  0.0944
  164SOPE     P18372   6.290   4.468  10.713 -0.2841  0.1265  0.3207
  164SOPE   O1318373   6.390   4.367  10.757  0.2872 -0.4473 -0.8292
  164SOPE   O1418374   6.252   4.567  10.809  0.2522 -0.8205  0.2611
  164SOPE   O1218375   6.165   4.381  10.686 -0.2084 -0.4438  0.4778
  164SOPE   O1118376   6.318   4.535  10.568 -0.1062 -0.2122 -0.2324
  164SOPE    C118377   6.450   4.564  10.524  0.1226  0.5193 -0.4933
  164SOPE    HA18378   6.530   4.530  10.593  0.5590  0.0968 -1.1886
  164SOPE    HB18379   6.471   4.671  10.503  3.5923 -0.0029 -0.2189
  164SOPE    C218380   6.484   4.495  10.390 -0.0411 -0.0545  0.1999
  164SOPE    HS18381   6.491   4.386  10.412 -0.6599 -0.0628  0.3931
  164SOPE   O2118382   6.608   4.554  10.353  0.5007 -0.2318  0.1085
  164SOPE   C2118383   6.720   4.485  10.391 -0.0000 -0.0751  0.3218
  164SOPE   O2218384   6.721   4.387  10.462  0.4921 -0.1716 -0.0408
  164SOPE   C2218385   6.845   4.544  10.324  0.4843 -0.1470 -0.6647
  164SOPE   H2R18386   6.926   4.530  10.398  0.8650  0.3997 -0.9716
  164SOPE   H2S18387   6.826   4.653  10.312 -0.0321  0.0274  1.4065
  164SOPE    C318388   6.378   4.511  10.276  0.1428  0.0246 -0.3402
  164SOPE    HX18389   6.352   4.618  10.268 -1.0606 -0.2801 -0.7683
  164SOPE    HY18390   6.286   4.465  10.317  0.4563  0.8523  1.3757
  164SOPE   O3118391   6.415   4.446  10.151  0.3362  0.0717  0.4429
  164SOPE   C3118392   6.509   4.505  10.077 -0.0088  0.5993 -0.0171
  164SOPE   O3218393   6.546   4.619  10.086 -0.2103  0.2949  0.5440
  164SOPE   C3218394   6.554   4.401   9.973  0.2064 -0.5035 -0.0255
  164SOPE   H2X18395   6.477   4.323   9.957  1.8308 -2.0352 -0.7184
  164SOPE   H2Y18396   6.643   4.350  10.017 -1.0885  0.6035  4.4632
  164SOPE   C2318397   6.876   4.473  10.189  0.5057  0.2796  0.1764
  164SOPE   H3R18398   6.781   4.483  10.132 -0.9701 -0.5253  2.3936
  164SOPE   H3S18399   6.890   4.366  10.214  0.4361  0.5152  1.2577
  164SOPE   C2418400   7.009   4.509  10.127  0.5229 -0.9722  0.0743
  164SOPE   H4R18401   7.004   4.613  10.089 -1.2063 -0.6641  1.0608
  164SOPE   H4S18402   7.086   4.514  10.208 -0.2200  0.4579  0.7247
  164SOPE   C2518403   7.063   4.408  10.023  0.2789 -0.1731  0.4253
  164SOPE   H5R18404   7.172   4.393  10.034 -0.2295 -3.3347  2.6918
  164SOPE   H5S18405   7.028   4.304  10.043  0.1218  0.1757  2.0875
  164SOPE   C2618406   7.041   4.441   9.870 -0.6677 -0.4835  0.0298
  164SOPE   H6R18407   7.083   4.351   9.820  0.3574  0.5347 -1.0175
  164SOPE   H6S18408   6.933   4.453   9.847 -0.0824  0.9591 -2.3483
  164SOPE   C2718409   7.123   4.558   9.820  0.2033  0.4415  0.2493
  164SOPE   H7R18410   7.051   4.639   9.798 -1.8421 -0.7864  1.9896
  164SOPE   H7S18411   7.195   4.599   9.894  0.7073  1.8189 -0.9669
  164SOPE   C2818412   7.200   4.537   9.686  0.5272 -0.8838  0.6267
  164SOPE   H8R18413   7.244   4.637   9.668 -2.6603  0.4669 -0.4192
  164SOPE   H8S18414   7.287   4.472   9.710  1.4789  0.3311  0.5936
  164SOPE   C2918415   7.111   4.493   9.574 -0.0132  0.3708 -0.3102
  164SOPE   H9118416   7.040   4.415   9.604 -1.1790  1.4285 -0.2552
  164SOPE  C21018417   7.111   4.522   9.440  0.3374 -0.0222  0.4472
  164SOPE  H10118418   7.033   4.487   9.370  1.2582 -0.5746 -0.3266
  164SOPE  C21118419   7.212   4.607   9.367  0.3208  0.0677 -0.3143
  164SOPE  H11R18420   7.263   4.535   9.300 -1.7787 -0.5823 -1.2787
  164SOPE  H11S18421   7.282   4.662   9.434  0.7951 -0.3852 -0.4361
  164SOPE  C21218422   7.148   4.707   9.269  0.0968  0.1648 -0.1032
  164SOPE  H12R18423   7.078   4.777   9.322 -1.0375 -0.5903 -0.5654
  164SOPE  H12S18424   7.084   4.646   9.202  1.0151 -3.3395  1.9584
  164SOPE  C21318425   7.241   4.793   9.181 -0.4284  0.5618 -0.7776
  164SOPE  H13R18426   7.324   4.724   9.151  0.9341  1.3393  1.0323
  164SOPE  H13S18427   7.281   4.877   9.241  1.4777 -0.2583 -0.8258
  164SOPE  C21418428   7.188   4.830   9.041  0.2814  0.3565  0.3403
  164SOPE  H14R18429   7.259   4.898   8.990  0.6696 -0.7842 -0.6888
  164SOPE  H14S18430   7.097   4.890   9.062  0.6652  1.4561 -1.0235
  164SOPE  C21518431   7.142   4.723   8.938 -0.8568 -0.1224  0.2055
  164SOPE  H15R18432   7.110   4.782   8.850  0.1773  0.3806  0.1522
  164SOPE  H15S18433   7.049   4.671   8.968 -0.6465 -0.1579  0.8147
  164SOPE  C21618434   7.253   4.630   8.890 -0.4195  0.2482 -0.5731
  164SOPE  H16R18435   7.279   4.558   8.971 -0.1133  1.8399  0.8010
  164SOPE  H16S18436   7.338   4.699   8.869 -0.0658 -0.5936 -2.0706
  164SOPE  C21718437   7.218   4.541   8.771 -0.1486  0.7686  0.0747
  164SOPE  H17R18438   7.211   4.601   8.678 -1.5860  0.3452 -0.1221
  164SOPE  H17S18439   7.112   4.512   8.792  0.2585 -1.2205 -0.4396
  164SOPE  C21818440   7.302   4.416   8.762  0.1066 -0.2957  0.2015
  164SOPE  H18R18441   7.281   4.349   8.849 -0.1654  2.7266  2.6415
  164SOPE  H18S18442   7.410   4.440   8.756  0.6616 -2.8655 -1.9862
  164SOPE  H18T18443   7.286   4.360   8.667  0.6826 -2.7150  1.4504
  164SOPE   C3318444   6.573   4.459   9.833 -0.2016  0.6169 -0.0003
  164SOPE   H3X18445   6.649   4.540   9.828 -0.1369  0.7322  2.0329
  164SOPE   H3Y18446   6.477   4.497   9.794 -0.6793  1.6367  2.0507
  164SOPE   C3418447   6.624   4.357   9.735 -0.7205  0.3170  0.0778
  164SOPE   H4X18448   6.536   4.289   9.727 -0.0681 -0.8507  2.0835
  164SOPE   H4Y18449   6.708   4.296   9.775  0.0642 -0.0752 -2.0555
  164SOPE   C3518450   6.661   4.416   9.599 -0.7762  0.0608 -0.8265
  164SOPE   H5X18451   6.728   4.342   9.548 -0.1139 -0.6011  0.9127
  164SOPE   H5Y18452   6.717   4.510   9.619 -0.0164 -0.1912 -1.6500
  164SOPE   C3618453   6.538   4.443   9.508 -0.6580  0.0708  0.0971
  164SOPE   H6X18454   6.456   4.486   9.569 -0.3179 -0.3675  0.8803
  164SOPE   H6Y18455   6.499   4.345   9.472 -0.5094 -0.2132  0.6868
  164SOPE   C3718456   6.597   4.521   9.389  1.2365  0.1368  0.2473
  164SOPE   H7X18457   6.680   4.458   9.347  1.9702  0.5439  1.0579
  164SOPE   H7Y18458   6.644   4.617   9.419 -2.2411  1.5833  1.4797
  164SOPE   C3818459   6.493   4.540   9.275  0.7081 -0.4882  0.0516
  164SOPE   H8X18460   6.400   4.581   9.319  1.2910 -1.8937  2.8677
  164SOPE   H8Y18461   6.460   4.448   9.222 -0.6686  0.5200 -0.8927
  164SOPE   C3918462   6.539   4.643   9.175 -0.2678  0.3916  0.2440
  164SOPE   H9X18463   6.648   4.625   9.161 -0.5445 -1.6691  0.4716
  164SOPE   H9Y18464   6.538   4.743   9.223 -0.0920 -0.1185  1.3217
  164SOPE  C31018465   6.484   4.646   9.037 -0.2062  0.2778  0.5133
  164SOPE  H10X18466   6.376   4.618   9.037  0.0696 -1.3412 -2.6299
  164SOPE  H10Y18467   6.529   4.566   8.974 -1.8922  0.6699 -1.2913
  164SOPE  C31118468   6.511   4.779   8.957 -0.8217  0.3642  0.6697
  164SOPE  H11X18469   6.623   4.782   8.957 -0.8051  1.0382 -1.0799
  164SOPE  H11Y18470   6.477   4.863   9.021  0.3795 -0.4564  2.4687
  164SOPE  C31218471   6.451   4.767   8.812  0.5389  0.6483 -0.2092
  164SOPE  H12X18472   6.379   4.684   8.800  1.9168 -0.5929 -0.1088
  164SOPE  H12Y18473   6.538   4.772   8.742  0.6042  0.5793 -0.1324
  164SOPE  C31318474   6.369   4.898   8.787 -0.3881  0.2488  0.7936
  164SOPE  H13X18475   6.430   4.985   8.820  0.8657 -1.3052  2.8383
  164SOPE  H13Y18476   6.279   4.896   8.852 -2.9094  1.0185 -2.4112
  164SOPE  C31418477   6.329   4.932   8.648  0.9658 -0.1140  0.1407
  164SOPE  H14X18478   6.274   4.845   8.606  1.1578 -0.6836  1.0519
  164SOPE  H14Y18479   6.419   4.950   8.585  1.9793 -0.6294  1.3904
  164SOPE  C31518480   6.250   5.060   8.643  0.5483  0.2667 -0.5155
  164SOPE  H15X18481   6.293   5.141   8.706 -0.1853  1.4685 -1.4932
  164SOPE  H15Y18482   6.147   5.035   8.675  0.0671 -0.9450 -2.8182
  164SOPE  C31618483   6.241   5.113   8.502  0.3323 -0.0657 -0.3493
  164SOPE  H16X18484   6.218   5.031   8.430  1.6168  0.1084 -0.9794
  164SOPE  H16Y18485   6.337   5.160   8.474  1.3758 -2.2053 -0.5409
  164SOPE  C31718486   6.128   5.211   8.474  0.0363 -0.3438 -0.2707
  164SOPE  H17X18487   6.128   5.274   8.566 -1.4006  0.4104 -0.7572
  164SOPE  H17Y18488   6.026   5.168   8.472  0.0199 -0.2637 -1.8227
  164SOPE  C31818489   6.146   5.314   8.367  0.1978 -0.4348  0.1713
  164SOPE  H18X18490   6.062   5.386   8.377  1.9703  1.7069  0.5062
  164SOPE  H18Y18491   6.134   5.266   8.268 -0.1825 -0.1643  0.0851
  164SOPE  H18Z18492   6.249   5.355   8.369  0.0930 -0.1218 -0.7033
  165SOPE     N18493   5.309   4.752  11.049  0.2075  0.4477  0.3597
  165SOPE   HN118494   5.277   4.660  11.086 -2.0923  1.6279  1.5079
  165SOPE   HN218495   5.283   4.760  10.948  0.1139 -1.6606  0.1772
  165SOPE   HN318496   5.413   4.748  11.040  0.2736 -0.0189  1.2702
  165SOPE   C1218497   5.257   4.869  11.124  0.3737 -1.0898 -0.1890
  165SOPE  H12A18498   5.324   4.873  11.213 -0.2396  0.0378  0.2450
  165SOPE  H12B18499   5.156   4.832  11.150  0.7392 -3.0946 -1.4285
  165SOPE   C1118500   5.269   5.000  11.043 -0.1608 -0.7352 -0.2045
  165SOPE  H11A18501   5.378   5.017  11.031  0.1064 -1.5310  0.9363
  165SOPE  H11B18502   5.222   5.081  11.102  1.3652  1.0654 -1.3729
  165SOPE     P18503   5.077   4.997  10.860 -0.2456  0.0136  0.0501
  165SOPE   O1318504   4.987   4.984  10.974  0.0438  0.1817 -0.2834
  165SOPE   O1418505   5.065   4.892  10.760 -0.0906  0.2429  0.1779
  165SOPE   O1218506   5.226   4.980  10.908  0.3237  0.0839 -0.2895
  165SOPE   O1118507   5.064   5.143  10.794  0.3750  0.0072 -0.4027
  165SOPE    C118508   5.171   5.194  10.715  0.0216  0.5313 -0.3241
  165SOPE    HA18509   5.272   5.163  10.748 -0.6011 -0.8741  0.3559
  165SOPE    HB18510   5.165   5.305  10.718 -1.4233  0.4788 -0.4269
  165SOPE    C218511   5.154   5.161  10.562  0.2266 -0.2115 -0.5493
  165SOPE    HS18512   5.191   5.250  10.508  1.5965 -0.0228  0.6504
  165SOPE   O2118513   5.017   5.130  10.531  0.3565  0.3883 -0.7633
  165SOPE   C2118514   4.939   5.226  10.550  0.4465  0.0026 -0.5336
  165SOPE   O2218515   4.966   5.341  10.581 -0.2762 -0.0528 -0.1626
  165SOPE   C2218516   4.798   5.184  10.512 -0.3387 -0.0972  0.4258
  165SOPE   H2R18517   4.743   5.278  10.491  0.6137  0.0806 -1.5121
  165SOPE   H2S18518   4.747   5.133  10.597  0.6392 -1.3241  0.3040
  165SOPE    C318519   5.232   5.041  10.511  0.4441  0.3470  0.2420
  165SOPE    HX18520   5.180   4.950  10.545 -0.1227  0.8378  0.7029
  165SOPE    HY18521   5.337   5.033  10.546 -0.2391 -0.2913  2.2568
  165SOPE   O3118522   5.232   5.051  10.367 -0.1220  0.6650 -0.0958
  165SOPE   C3118523   5.146   4.981  10.305  0.0955 -0.2986 -0.0330
  165SOPE   O3218524   5.067   4.900  10.350  0.8950 -0.5395 -0.1010
  165SOPE   C3218525   5.170   4.982  10.156  0.0228 -0.1183 -0.1944
  165SOPE   H2X18526   5.105   5.062  10.113 -2.7725 -0.7649  2.4883
  165SOPE   H2Y18527   5.137   4.885  10.114 -0.8831  0.0946  0.0006
  165SOPE   C2318528   4.785   5.093  10.390  0.2586 -0.0572  0.6752
  165SOPE   H3R18529   4.680   5.059  10.390  0.4006 -0.5441 -0.3297
  165SOPE   H3S18530   4.848   5.003  10.409 -0.7296 -0.9292 -0.0866
  165SOPE   C2418531   4.817   5.163  10.258  0.5209  0.1566  0.0222
  165SOPE   H4R18532   4.740   5.241  10.234 -1.0956 -2.3611 -3.9200
  165SOPE   H4S18533   4.917   5.210  10.248  0.1856  0.8177 -0.3107
  165SOPE   C2518534   4.809   5.063  10.134  0.7278  0.7420  0.1708
  165SOPE   H5R18535   4.896   4.994  10.132  1.2586  1.3658 -2.7151
  165SOPE   H5S18536   4.710   5.015  10.152  1.5479 -1.4386 -0.7247
  165SOPE   C2618537   4.798   5.141  10.000 -0.0000  0.2482 -0.2106
  165SOPE   H6R18538   4.714   5.214  10.001 -0.5624 -0.3678 -0.9697
  165SOPE   H6S18539   4.893   5.195   9.980  0.5521  0.9188  3.5907
  165SOPE   C2718540   4.759   5.040   9.887  0.0345  0.3607 -0.0178
  165SOPE   H7R18541   4.817   4.947   9.905  0.0521  0.0705 -1.4503
  165SOPE   H7S18542   4.655   5.003   9.902  0.8577 -2.2021 -0.1183
  165SOPE   C2818543   4.777   5.100   9.747 -0.4137 -0.4180  0.0960
  165SOPE   H8R18544   4.724   5.038   9.672 -0.5539 -0.6276  0.3675
  165SOPE   H8S18545   4.716   5.193   9.739 -0.8802 -0.6659  0.6209
  165SOPE   C2918546   4.918   5.132   9.701  1.1877 -0.2126 -0.2320
  165SOPE   H9118547   4.957   5.227   9.741 -0.5559  1.5129 -2.3680
  165SOPE  C21018548   4.991   5.070   9.609  0.3345 -0.4215 -0.5708
  165SOPE  H10118549   5.095   5.106   9.602  0.5783 -0.4202  2.0469
  165SOPE  C21118550   4.948   4.950   9.523 -0.9838  0.2474  0.2871
  165SOPE  H11R18551   4.914   4.865   9.587  0.8676 -0.4203  0.4366
  165SOPE  H11S18552   5.031   4.895   9.474 -1.1731  0.1624  0.0571
  165SOPE  C21218553   4.862   4.984   9.396 -0.5416 -0.1667  0.1077
  165SOPE  H12R18554   4.757   5.008   9.425 -0.5418 -0.6732  0.5420
  165SOPE  H12S18555   4.873   4.895   9.330  2.5617  0.4772 -0.3987
  165SOPE  C21318556   4.925   5.103   9.308 -0.1851  0.1012 -0.7586
  165SOPE  H13R18557   5.033   5.099   9.335 -0.0632 -0.3319 -1.2960
  165SOPE  H13S18558   4.882   5.198   9.346  0.9117  0.3514 -0.0802
  165SOPE  C21418559   4.924   5.091   9.155 -0.0968  0.3324  0.2204
  165SOPE  H14R18560   4.819   5.066   9.129  0.9269 -3.4655 -0.9097
  165SOPE  H14S18561   4.987   5.010   9.113 -0.4125 -0.2935  0.9277
  165SOPE  C21518562   4.959   5.223   9.084 -0.0190  0.5795 -0.1799
  165SOPE  H15R18563   5.068   5.240   9.095  0.6951 -1.2051 -3.2512
  165SOPE  H15S18564   4.910   5.307   9.137 -0.1558  0.2846  0.1654
  165SOPE  C21618565   4.934   5.224   8.937  0.5663  0.5320  0.6611
  165SOPE  H16R18566   4.823   5.232   8.926  0.6928  0.3622 -0.9831
  165SOPE  H16S18567   4.967   5.129   8.889  0.1939  0.2274  1.0005
  165SOPE  C21718568   4.998   5.347   8.876  0.1855  0.5083 -0.5862
  165SOPE  H17R18569   5.105   5.350   8.907  0.4330  1.8070 -1.4648
  165SOPE  H17S18570   4.954   5.444   8.909  1.5518  0.4501  1.6026
  165SOPE  C21818571   4.993   5.338   8.726 -0.5713 -0.2533  0.9980
  165SOPE  H18R18572   5.011   5.233   8.696  2.0037  0.1979  0.7249
  165SOPE  H18S18573   5.070   5.392   8.665 -1.6542 -0.2870 -0.4590
  165SOPE  H18T18574   4.894   5.384   8.706 -0.9609 -1.2153  0.6651
  165SOPE   C3318575   5.315   5.004  10.119 -0.5560 -0.3903  0.1523
  165SOPE   H3X18576   5.383   4.943  10.182 -0.3324 -0.4676 -0.1589
  165SOPE   H3Y18577   5.347   5.109  10.135  0.4233 -0.6145 -0.2419
  165SOPE   C3418578   5.353   4.973   9.972  0.5677 -0.4465 -0.0993
  165SOPE   H4X18579   5.333   4.863   9.965 -0.5617 -0.2124 -0.7979
  165SOPE   H4Y18580   5.462   4.995   9.974  0.7265 -1.2244  1.1968
  165SOPE   C3518581   5.279   5.061   9.870  0.1025  0.7005 -0.4581
  165SOPE   H5X18582   5.173   5.032   9.882  0.5968 -0.5811  1.3725
  165SOPE   H5Y18583   5.308   5.018   9.772 -2.8675 -0.4766 -0.9106
  165SOPE   C3618584   5.313   5.213   9.890 -0.6554 -0.1574  0.3265
  165SOPE   H6X18585   5.416   5.204   9.931 -1.2304 -0.9195  1.6517
  165SOPE   H6Y18586   5.261   5.262   9.975 -0.8392  2.1699 -1.0385
  165SOPE   C3718587   5.300   5.294   9.759  0.8100  0.4758  0.4522
  165SOPE   H7X18588   5.296   5.404   9.774 -1.2198  0.7229 -1.3726
  165SOPE   H7Y18589   5.198   5.269   9.724  1.0655 -1.1489  0.7714
  165SOPE   C3818590   5.409   5.257   9.659 -0.4677  0.6662 -0.5234
  165SOPE   H8X18591   5.403   5.154   9.619 -0.1330 -0.1160  1.3641
  165SOPE   H8Y18592   5.508   5.252   9.708 -0.0631  1.1794 -1.2606
  165SOPE   C3918593   5.416   5.364   9.551 -0.1191 -0.0765  0.2581
  165SOPE   H9X18594   5.475   5.443   9.602 -2.2278 -0.1322  3.0232
  165SOPE   H9Y18595   5.318   5.412   9.531 -0.1771 -0.2419  0.1425
  165SOPE  C31018596   5.481   5.326   9.424 -0.0784  0.2863 -0.3762
  165SOPE  H10X18597   5.584   5.287   9.436 -1.2076 -2.7612  0.5605
  165SOPE  H10Y18598   5.483   5.415   9.357  0.0987  1.7541  1.5125
  165SOPE  C31118599   5.401   5.217   9.359  0.7065  0.1730 -0.0222
  165SOPE  H11X18600   5.296   5.250   9.365  0.6224 -0.2487  1.2274
  165SOPE  H11Y18601   5.411   5.116   9.406  1.4150  0.2487  0.0120
  165SOPE  C31218602   5.447   5.186   9.216  0.7308 -0.7279 -0.9252
  165SOPE  H12X18603   5.386   5.095   9.198  0.8322 -1.5885  2.3302
  165SOPE  H12Y18604   5.557   5.173   9.210  1.0375  1.2352 -0.4400
  165SOPE  C31318605   5.418   5.296   9.115  0.3342  0.1116 -0.0411
  165SOPE  H13X18606   5.436   5.395   9.163  1.6626 -0.3606  0.4670
  165SOPE  H13Y18607   5.312   5.297   9.081  0.3929  2.1292 -0.3066
  165SOPE  C31418608   5.511   5.287   8.992  0.6132  0.4999  0.1300
  165SOPE  H14X18609   5.611   5.280   9.039  0.6845  0.3739 -0.0393
  165SOPE  H14Y18610   5.506   5.381   8.932  2.3959 -1.3094 -3.1825
  165SOPE  C31518611   5.502   5.164   8.908  0.7018  0.0835 -0.5844
  165SOPE  H15X18612   5.516   5.069   8.963 -0.7336 -0.5349 -1.2168
  165SOPE  H15Y18613   5.593   5.167   8.845  1.2336  2.2052  0.1897
  165SOPE  C31618614   5.375   5.176   8.828 -0.0553 -0.0447  0.3657
  165SOPE  H16X18615   5.379   5.259   8.755 -0.5936 -0.4843 -0.1739
  165SOPE  H16Y18616   5.287   5.190   8.894 -0.7149 -1.5304 -0.1441
  165SOPE  C31718617   5.343   5.046   8.754 -0.4282 -0.8722 -1.3733
  165SOPE  H17X18618   5.265   5.063   8.677  0.6054  2.7467 -1.7870
  165SOPE  H17Y18619   5.306   4.965   8.821  1.5655 -0.3079  0.5343
  165SOPE  C31818620   5.461   4.992   8.670  0.2088 -0.3834  0.0388
  165SOPE  H18X18621   5.423   4.913   8.601  0.2621  0.8628 -1.4690
  165SOPE  H18Y18622   5.547   4.957   8.729  0.8781  1.2893  0.1060
  165SOPE  H18Z18623   5.491   5.068   8.595 -2.4681  1.8478  1.0304
  166SOPE     N18624   1.604   5.412  11.053 -0.3908 -0.1360  0.5024
  166SOPE   HN118625   1.695   5.405  11.104  1.2320 -1.5929 -2.3527
  166SOPE   HN218626   1.557   5.497  11.090  0.2923  0.1992  0.6309
  166SOPE   HN318627   1.548   5.327  11.072 -0.5832  0.2654  1.8326
  166SOPE   C1218628   1.629   5.438  10.906  0.7600 -0.7767 -0.1514
  166SOPE  H12A18629   1.674   5.347  10.860  0.4124 -0.1466 -1.8223
  166SOPE  H12B18630   1.696   5.526  10.903 -0.5287  0.4374  2.7317
  166SOPE   C1118631   1.492   5.475  10.839  0.7671  0.4265 -0.1667
  166SOPE  H11A18632   1.503   5.513  10.735  0.7543  1.0210  0.0497
  166SOPE  H11B18633   1.440   5.553  10.898 -0.7482 -1.4314  1.0639
  166SOPE     P18634   1.271   5.339  10.804  0.3036  0.1959 -0.1038
  166SOPE   O1318635   1.197   5.442  10.888 -0.1463 -0.3625 -0.1612
  166SOPE   O1418636   1.239   5.198  10.826  0.5787  0.6180 -0.1849
  166SOPE   O1218637   1.417   5.356  10.828  0.2388  0.1285 -0.3721
  166SOPE   O1118638   1.260   5.380  10.658 -0.1459  0.2052  0.3379
  166SOPE    C118639   1.291   5.310  10.540  0.4539  0.1136 -0.9426
  166SOPE    HA18640   1.211   5.321  10.463  0.6037  0.9311 -0.9933
  166SOPE    HB18641   1.293   5.201  10.560 -2.4235  0.0075 -0.7468
  166SOPE    C218642   1.424   5.361  10.481  0.2818  0.5252  0.8789
  166SOPE    HS18643   1.495   5.353  10.566 -0.9917  1.1847  2.0384
  166SOPE   O2118644   1.415   5.500  10.454  0.1408 -0.2984 -0.1315
  166SOPE   C2118645   1.529   5.561  10.418 -0.3054 -0.1022  0.0844
  166SOPE   O2218646   1.642   5.510  10.421  0.0476  0.0876 -0.4299
  166SOPE   C2218647   1.507   5.710  10.401  0.4931  0.5895  0.6222
  166SOPE   H2R18648   1.507   5.759  10.501 -2.1861  0.1947  0.8800
  166SOPE   H2S18649   1.405   5.720  10.359  0.9334 -1.2438 -1.0155
  166SOPE    C318650   1.467   5.286  10.354  0.1727  0.2803 -0.8296
  166SOPE    HX18651   1.480   5.178  10.375  1.5463  0.2399 -1.8403
  166SOPE    HY18652   1.566   5.318  10.316  1.7910 -0.7766  2.1148
  166SOPE   O3118653   1.358   5.306  10.259  0.4955 -0.6098 -0.0642
  166SOPE   C3118654   1.360   5.418  10.174  0.6419  0.1514 -0.0882
  166SOPE   O3218655   1.461   5.483  10.166 -0.4189 -0.1446 -0.0213
  166SOPE   C3218656   1.227   5.453  10.117  0.0055 -0.0370  0.3888
  166SOPE   H2X18657   1.204   5.558  10.145 -2.2715 -0.6686  1.0621
  166SOPE   H2Y18658   1.138   5.402  10.158 -1.5453  1.1249 -1.3214
  166SOPE   C2318659   1.626   5.764  10.318  0.5242 -0.0815 -0.1940
  166SOPE   H3R18660   1.662   5.691  10.242 -1.3795 -0.8036 -0.4652
  166SOPE   H3S18661   1.704   5.777  10.396  0.8707  2.2796 -0.8695
  166SOPE   C2418662   1.595   5.892  10.246  0.6906 -0.5324  0.5951
  166SOPE   H4R18663   1.565   5.971  10.318  1.3225  0.1834  0.0913
  166SOPE   H4S18664   1.688   5.933  10.201 -0.0167 -0.7966 -1.2173
  166SOPE   C2518665   1.486   5.876  10.133  0.0160 -0.0125 -0.0870
  166SOPE   H5R18666   1.529   5.793  10.072  2.4874  0.0263  1.4577
  166SOPE   H5S18667   1.395   5.843  10.188 -0.5378 -0.0368 -0.9920
  166SOPE   C2618668   1.452   6.002  10.055 -0.2805  0.5635  0.1210
  166SOPE   H6R18669   1.361   5.963  10.004  0.5211 -1.9936  0.5060
  166SOPE   H6S18670   1.446   6.090  10.122 -0.0096 -1.0432  2.3408
  166SOPE   C2718671   1.550   6.013   9.947 -0.3101 -0.6577 -0.2480
  166SOPE   H7R18672   1.555   6.116   9.904  0.3612 -1.3493 -1.8970
  166SOPE   H7S18673   1.646   5.985   9.995  0.2448  1.1723 -0.2091
  166SOPE   C2818674   1.532   5.907   9.827  0.1309  0.2972  0.2981
  166SOPE   H8R18675   1.607   5.947   9.755  0.4913  0.4985  0.7773
  166SOPE   H8S18676   1.573   5.807   9.853 -0.1439 -0.2771 -1.3382
  166SOPE   C2918677   1.392   5.894   9.771  0.3186 -0.1381  0.0975
  166SOPE   H9118678   1.334   5.824   9.833 -0.1500 -0.9917 -1.2670
  166SOPE  C21018679   1.333   5.944   9.659  0.0782  0.2608 -0.4606
  166SOPE  H10118680   1.225   5.926   9.656 -0.3128  2.1772  0.8481
  166SOPE  C21118681   1.402   6.015   9.546 -0.4539 -0.1332  0.7387
  166SOPE  H11R18682   1.509   6.027   9.574 -0.0032 -0.5292 -0.7359
  166SOPE  H11S18683   1.357   6.116   9.538 -1.1045 -0.4458  0.3745
  166SOPE  C21218684   1.384   5.942   9.405 -0.8171  0.2699 -0.2489
  166SOPE  H12R18685   1.409   6.011   9.322  2.9435 -1.8730 -1.1567
  166SOPE  H12S18686   1.278   5.913   9.387 -1.1200  2.1170 -1.7163
  166SOPE  C21318687   1.476   5.824   9.394  0.4849  0.7327  0.7980
  166SOPE  H13R18688   1.476   5.764   9.487 -1.6722 -0.5906  0.0342
  166SOPE  H13S18689   1.582   5.853   9.375  0.1026  1.3953 -0.4815
  166SOPE  C21418690   1.449   5.745   9.267  0.8363 -0.5893 -0.3033
  166SOPE  H14R18691   1.338   5.742   9.261  0.8400 -0.9684 -0.1584
  166SOPE  H14S18692   1.480   5.638   9.259  1.5049 -0.5528  1.4843
  166SOPE  C21518693   1.521   5.816   9.146  0.5957 -0.1824  0.2598
  166SOPE  H15R18694   1.630   5.808   9.162  0.5031 -0.4767  0.7570
  166SOPE  H15S18695   1.500   5.924   9.162 -2.1150 -0.5867 -0.0021
  166SOPE  C21618696   1.476   5.762   9.010  0.0234 -0.3871 -0.5451
  166SOPE  H16R18697   1.366   5.755   9.013  0.0798 -1.0339  0.3005
  166SOPE  H16S18698   1.513   5.658   9.000  1.2624 -0.0757  0.4236
  166SOPE  C21718699   1.531   5.838   8.888  0.1967  0.3996  0.8641
  166SOPE  H17R18700   1.637   5.873   8.887  0.8234 -1.3715  0.5359
  166SOPE  H17S18701   1.476   5.934   8.889  0.0957  0.3430  0.7303
  166SOPE  C21818702   1.515   5.767   8.753  0.3476 -0.1266 -0.2118
  166SOPE  H18R18703   1.584   5.681   8.741  0.5859  0.0694 -0.2822
  166SOPE  H18S18704   1.525   5.844   8.674  1.9481 -1.2936 -1.2025
  166SOPE  H18T18705   1.414   5.724   8.740  0.3932 -0.4484  0.4467
  166SOPE   C3318706   1.226   5.450   9.961 -0.2653 -0.4118  0.6621
  166SOPE   H3X18707   1.124   5.487   9.937  0.3731  1.3852  0.5526
  166SOPE   H3Y18708   1.236   5.348   9.919  0.0627  0.3983 -1.3892
  166SOPE   C3418709   1.323   5.547   9.890 -0.1648  0.1077 -0.7861
  166SOPE   H4X18710   1.424   5.516   9.922 -0.5771 -0.5371 -0.0765
  166SOPE   H4Y18711   1.292   5.651   9.913 -0.8994 -0.3995  0.6264
  166SOPE   C3518712   1.315   5.535   9.738 -0.2453  0.4865  0.3413
  166SOPE   H5X18713   1.337   5.426   9.728  1.2981  0.6989  1.0390
  166SOPE   H5Y18714   1.398   5.591   9.689 -0.7082  2.7093  1.9482
  166SOPE   C3618715   1.187   5.576   9.669  0.3161  0.6238  0.0829
  166SOPE   H6X18716   1.194   5.687   9.664  1.2088  0.6740  1.7570
  166SOPE   H6Y18717   1.100   5.538   9.725 -1.2794  1.4070 -1.7304
  166SOPE   C3718718   1.187   5.536   9.522  0.0725 -0.3852  1.0068
  166SOPE   H7X18719   1.142   5.434   9.515 -4.0435  1.0106  3.2287
  166SOPE   H7Y18720   1.285   5.534   9.472 -1.1626  1.5382 -1.7067
  166SOPE   C3818721   1.101   5.622   9.427  0.5575 -0.7515  0.7893
  166SOPE   H8X18722   1.158   5.717   9.416 -1.0599  0.0481 -1.6211
  166SOPE   H8Y18723   1.002   5.628   9.476  0.2544 -0.2554  0.1386
  166SOPE   C3918724   1.073   5.543   9.299 -0.0597  0.0797 -0.0277
  166SOPE   H9X18725   0.979   5.485   9.314  0.9357 -1.4558  0.4336
  166SOPE   H9Y18726   1.152   5.468   9.278 -0.0346  0.2710 -0.6581
  166SOPE  C31018727   1.068   5.625   9.172 -0.9797 -0.2296 -0.7787
  166SOPE  H10X18728   1.159   5.688   9.168 -0.9700  0.1266  2.3747
  166SOPE  H10Y18729   0.976   5.688   9.172 -0.9492 -0.1745  0.1362
  166SOPE  C31118730   1.052   5.547   9.036 -0.6102 -0.2916 -0.6409
  166SOPE  H11X18731   0.960   5.486   9.046  0.4749 -1.6990  1.3770
  166SOPE  H11Y18732   1.135   5.473   9.026 -0.2844 -0.0272  0.0665
  166SOPE  C31218733   1.040   5.646   8.911  0.3902  0.3582 -0.3068
  166SOPE  H12X18734   1.124   5.719   8.900  0.0384  1.3048  2.4192
  166SOPE  H12Y18735   0.952   5.711   8.928  0.0545 -0.6795  2.4180
  166SOPE  C31318736   1.011   5.570   8.783  0.0414  0.2327  0.2508
  166SOPE  H13X18737   0.925   5.501   8.797  0.8229 -1.5704 -2.7557
  166SOPE  H13Y18738   1.100   5.503   8.775  0.0070  0.3165 -1.0859
  166SOPE  C31418739   0.987   5.663   8.659 -0.0431 -0.2032 -0.0417
  166SOPE  H14X18740   1.074   5.732   8.658 -0.2648  0.2275 -3.9698
  166SOPE  H14Y18741   0.889   5.714   8.672 -0.2347 -0.3341 -0.9032
  166SOPE  C31518742   1.001   5.597   8.522 -0.6326 -0.0599 -0.6069
  166SOPE  H15X18743   1.100   5.549   8.509 -0.5778  0.2605 -1.4606
  166SOPE  H15Y18744   1.005   5.681   8.449  0.3246  0.9430  0.5619
  166SOPE  C31618745   0.891   5.498   8.473 -0.2373 -0.0528 -0.4711
  166SOPE  H16X18746   0.888   5.408   8.538 -1.0475 -0.0363 -0.4722
  166SOPE  H16Y18747   0.927   5.465   8.373  1.2404  0.8584 -0.2740
  166SOPE  C31718748   0.752   5.559   8.450 -0.1085 -0.1747 -0.1040
  166SOPE  H17X18749   0.757   5.653   8.391 -2.0948 -0.9965 -1.6813
  166SOPE  H17Y18750   0.729   5.594   8.553 -2.8484  0.4103 -0.8496
  166SOPE  C31818751   0.646   5.460   8.396  0.4525 -0.5388 -1.3041
  166SOPE  H18X18752   0.544   5.504   8.392 -0.6128 -2.7712 -0.2096
  166SOPE  H18Y18753   0.643   5.376   8.468 -0.5500  0.5517 -0.0249
  166SOPE  H18Z18754   0.678   5.424   8.296 -2.5659 -0.5784 -2.3407
  167SOPE     N18755   3.993   3.513   6.067  0.1407  0.9019 -0.2546
  167SOPE   HN118756   3.900   3.470   6.046 -0.7657  2.1064  1.1941
  167SOPE   HN218757   4.003   3.597   6.007 -0.5699 -0.3607 -2.2776
  167SOPE   HN318758   4.067   3.441   6.050  0.4604  0.5990  2.1653
  167SOPE   C1218759   4.015   3.548   6.208  0.5003  0.0327 -1.1491
  167SOPE  H12A18760   4.125   3.563   6.219  0.2482  0.7149  0.9708
  167SOPE  H12B18761   3.990   3.455   6.264 -1.0115 -0.1542 -2.0691
  167SOPE   C1118762   3.930   3.679   6.247  0.4490 -0.7534 -0.4170
  167SOPE  H11A18763   3.987   3.770   6.220  0.9753 -0.9817 -0.0894
  167SOPE  H11B18764   3.901   3.674   6.354 -0.0503  0.3223 -0.4872
  167SOPE     P18765   3.679   3.770   6.219 -0.0819  0.3986  0.2546
  167SOPE   O1318766   3.575   3.735   6.118 -0.0141  0.3158  0.4862
  167SOPE   O1418767   3.713   3.910   6.219 -0.4775  0.3659 -0.0178
  167SOPE   O1218768   3.810   3.685   6.174  0.0757  0.5647  0.1333
  167SOPE   O1118769   3.644   3.711   6.362 -0.7518 -0.1575  0.1452
  167SOPE    C118770   3.613   3.573   6.366 -0.4295 -0.3430 -0.0520
  167SOPE    HA18771   3.697   3.507   6.332  0.4566 -0.6481  2.4879
  167SOPE    HB18772   3.526   3.551   6.301 -0.0513 -0.3728 -0.5603
  167SOPE    C218773   3.590   3.535   6.510 -0.7700  0.2640  0.0217
  167SOPE    HS18774   3.572   3.425   6.511 -2.3005  0.4976  1.0943
  167SOPE   O2118775   3.482   3.603   6.576 -0.1852 -0.3118  0.0044
  167SOPE   C2118776   3.361   3.577   6.531 -0.6456  0.2941  0.3622
  167SOPE   O2218777   3.336   3.477   6.457  0.1891 -0.2746 -0.1454
  167SOPE   C2218778   3.260   3.666   6.612 -0.6928  0.5487  0.1380
  167SOPE   H2R18779   3.262   3.774   6.586  0.6445  0.5012 -0.0097
  167SOPE   H2S18780   3.285   3.664   6.720  0.7893  0.0687 -0.1867
  167SOPE    C318781   3.730   3.558   6.585 -0.3487 -0.0135 -0.4828
  167SOPE    HX18782   3.745   3.668   6.578 -0.5583  0.1210  0.8522
  167SOPE    HY18783   3.814   3.504   6.537  0.1247  1.9000 -1.9333
  167SOPE   O3118784   3.715   3.511   6.724  0.1483  0.6385 -0.5146
  167SOPE   C3118785   3.814   3.552   6.805  0.4712 -0.9020 -0.1657
  167SOPE   O3218786   3.913   3.611   6.764 -0.1460  0.0466  0.2668
  167SOPE   C3218787   3.784   3.512   6.951  0.5543  0.0592 -0.3113
  167SOPE   H2X18788   3.806   3.403   6.955  0.9823  0.1767  1.3787
  167SOPE   H2Y18789   3.678   3.533   6.980  0.8471  1.4582 -0.1829
  167SOPE   C2318790   3.117   3.626   6.593  0.0445  0.4105 -0.4345
  167SOPE   H3R18791   3.110   3.554   6.509  0.4565 -1.9544  1.4715
  167SOPE   H3S18792   3.037   3.700   6.571 -1.6377 -0.9019  1.0089
  167SOPE   C2418793   3.052   3.546   6.706  0.3444 -0.6162 -0.7347
  167SOPE   H4R18794   2.957   3.503   6.667 -0.3103 -0.0776  0.2256
  167SOPE   H4S18795   3.115   3.460   6.740  0.0169 -0.9069 -0.8537
  167SOPE   C2518796   3.026   3.645   6.825  0.9833  0.0366 -0.6700
  167SOPE   H5R18797   3.119   3.683   6.873 -1.0475  2.5933  1.5561
  167SOPE   H5S18798   2.972   3.738   6.796  0.0400  0.2604  1.6343
  167SOPE   C2618799   2.942   3.581   6.939 -0.0658 -0.5962  1.1497
  167SOPE   H6R18800   2.877   3.501   6.898  0.5610 -0.0885 -1.0016
  167SOPE   H6S18801   3.013   3.537   7.012  1.2070 -0.6329 -0.0532
  167SOPE   C2718802   2.847   3.677   7.008  0.0176  0.1929  0.0983
  167SOPE   H7R18803   2.907   3.769   7.019  1.4472 -0.4699 -1.7193
  167SOPE   H7S18804   2.763   3.702   6.940  0.6567  1.9857 -0.0708
  167SOPE   C2818805   2.789   3.615   7.144 -0.9481 -0.1998  0.0203
  167SOPE   H8R18806   2.741   3.518   7.117 -0.2575 -0.6560  0.4121
  167SOPE   H8S18807   2.880   3.594   7.204  0.4445 -0.8939 -2.2354
  167SOPE   C2918808   2.695   3.713   7.210 -0.2880  0.7540 -0.4139
  167SOPE   H9118809   2.619   3.751   7.141  1.2030 -1.0285 -3.2141
  167SOPE  C21018810   2.698   3.765   7.331  0.0118  0.5324 -0.9019
  167SOPE  H10118811   2.616   3.828   7.368  1.2156  0.9403  1.1758
  167SOPE  C21118812   2.791   3.728   7.440  0.7362 -0.2394 -0.0040
  167SOPE  H11R18813   2.864   3.811   7.453  1.9430 -1.1044 -1.0261
  167SOPE  H11S18814   2.867   3.650   7.421  0.4503  0.0274 -2.5818
  167SOPE  C21218815   2.714   3.705   7.572  0.1981  0.2670  0.0320
  167SOPE  H12R18816   2.662   3.608   7.564  0.8781 -0.1528  0.5923
  167SOPE  H12S18817   2.643   3.790   7.577  0.8874  0.9036 -0.6947
  167SOPE  C21318818   2.807   3.718   7.700  0.1718  0.5075  0.1615
  167SOPE  H13R18819   2.856   3.817   7.694 -0.2246  0.6766 -0.3372
  167SOPE  H13S18820   2.889   3.643   7.693 -0.4606 -0.1083 -0.8654
  167SOPE  C21418821   2.733   3.685   7.837  0.0168  0.1705  0.6533
  167SOPE  H14R18822   2.809   3.695   7.918  0.1143 -1.9581  0.8789
  167SOPE  H14S18823   2.695   3.581   7.834 -1.7685  0.7994  0.6755
  167SOPE  C21518824   2.621   3.794   7.869 -0.3684  0.3526  0.0840
  167SOPE  H15R18825   2.532   3.789   7.803  0.3663  1.3837 -1.0505
  167SOPE  H15S18826   2.684   3.884   7.853  4.1515 -2.1536  1.8486
  167SOPE  C21618827   2.582   3.790   8.018  0.0587 -0.1126  0.2655
  167SOPE  H16R18828   2.669   3.806   8.086 -0.3061 -1.1144  0.9892
  167SOPE  H16S18829   2.534   3.691   8.031 -0.7159  0.2431  0.1259
  167SOPE  C21718830   2.469   3.884   8.067  0.1651 -0.7192  0.2553
  167SOPE  H17R18831   2.390   3.867   7.992 -1.0733  1.6767  0.9247
  167SOPE  H17S18832   2.502   3.988   8.047  1.8927 -1.2721  0.0556
  167SOPE  C21818833   2.426   3.856   8.214 -0.1955  0.0783 -0.1663
  167SOPE  H18R18834   2.504   3.878   8.291 -0.3500 -1.0576  0.3381
  167SOPE  H18S18835   2.405   3.748   8.230 -0.8234  0.3872  1.1883
  167SOPE  H18T18836   2.341   3.918   8.249  1.1611  1.8006  0.1947
  167SOPE   C3318837   3.874   3.567   7.059 -0.1663  0.6071  0.1320
  167SOPE   H3X18838   3.979   3.542   7.032 -0.3637 -0.5487  0.3964
  167SOPE   H3Y18839   3.847   3.509   7.150  1.5827 -0.5934 -0.0634
  167SOPE   C3418840   3.855   3.716   7.086  0.2374  0.3713  1.2208
  167SOPE   H4X18841   3.749   3.746   7.096 -0.3579 -1.2081  0.0561
  167SOPE   H4Y18842   3.901   3.766   6.998 -1.0819  0.5899  0.6388
  167SOPE   C3518843   3.925   3.770   7.214 -0.7245  0.7754 -0.0232
  167SOPE   H5X18844   3.956   3.876   7.230 -0.9534  0.6701  1.2995
  167SOPE   H5Y18845   4.020   3.717   7.235 -2.1645 -1.9953 -0.1493
  167SOPE   C3618846   3.828   3.754   7.332 -0.9513  0.1405 -0.2008
  167SOPE   H6X18847   3.792   3.649   7.337  0.2281 -0.2558  0.0910
  167SOPE   H6Y18848   3.734   3.813   7.321  0.6561  3.1043  0.8559
  167SOPE   C3718849   3.886   3.799   7.465  0.3091 -0.1162 -0.4311
  167SOPE   H7X18850   3.881   3.907   7.488  0.3611  0.2592 -2.0549
  167SOPE   H7Y18851   3.996   3.782   7.454  0.2457 -0.2490 -0.8622
  167SOPE   C3818852   3.845   3.709   7.584  0.0890  0.0446  0.4110
  167SOPE   H8X18853   3.907   3.744   7.669  0.6982 -0.5804  0.2308
  167SOPE   H8Y18854   3.859   3.599   7.577 -0.9977 -0.0471 -0.6596
  167SOPE   C3918855   3.702   3.732   7.625 -0.1461  0.0231 -0.4207
  167SOPE   H9X18856   3.633   3.711   7.540 -2.0031 -1.1549  1.2704
  167SOPE   H9Y18857   3.702   3.842   7.639 -1.4688  0.2470 -1.8572
  167SOPE  C31018858   3.640   3.664   7.747 -1.3921 -0.7133 -0.0743
  167SOPE  H10X18859   3.627   3.559   7.712  0.3163 -0.8244 -0.4528
  167SOPE  H10Y18860   3.540   3.707   7.767 -0.9227  1.1003 -1.4124
  167SOPE  C31118861   3.737   3.683   7.866  0.4940  0.4642  0.5224
  167SOPE  H11X18862   3.763   3.791   7.870  0.3951  0.4526  1.5860
  167SOPE  H11Y18863   3.824   3.616   7.848  0.6278  0.6289  0.5566
  167SOPE  C31218864   3.686   3.647   8.003 -0.1502  0.4507 -0.0753
  167SOPE  H12X18865   3.644   3.544   7.997  0.7584  0.0014  0.8323
  167SOPE  H12Y18866   3.607   3.713   8.046 -0.1720  1.1996 -1.2291
  167SOPE  C31318867   3.802   3.656   8.107 -0.1397 -0.1186 -0.6503
  167SOPE  H13X18868   3.875   3.574   8.087 -1.6062 -1.7637  0.3902
  167SOPE  H13Y18869   3.761   3.626   8.205  0.6428  0.3200 -0.1816
  167SOPE  C31418870   3.870   3.790   8.140 -0.3141 -0.1950  0.4133
  167SOPE  H14X18871   3.793   3.869   8.155 -0.2706 -0.0799  0.0413
  167SOPE  H14Y18872   3.928   3.815   8.049  1.6919 -2.0580  1.0999
  167SOPE  C31518873   3.972   3.781   8.254  0.3970  0.0983 -0.5643
  167SOPE  H15X18874   4.024   3.683   8.249  1.2869  0.4885  0.5416
  167SOPE  H15Y18875   3.918   3.789   8.351  0.2638 -0.5277 -0.5830
  167SOPE  C31618876   4.088   3.881   8.257 -0.1395  0.1452  0.2360
  167SOPE  H16X18877   4.131   3.849   8.354 -1.1845  3.2980  1.8429
  167SOPE  H16Y18878   4.052   3.986   8.255  3.9416  1.7383 -0.5097
  167SOPE  C31718879   4.183   3.855   8.134 -0.0157 -0.1772 -0.0358
  167SOPE  H17X18880   4.137   3.831   8.036 -3.3714  0.2302  1.3225
  167SOPE  H17Y18881   4.234   3.759   8.157 -1.6976 -0.6033  2.2121
  167SOPE  C31818882   4.283   3.965   8.113 -0.2892 -0.0343 -0.1092
  167SOPE  H18X18883   4.329   3.998   8.209  1.7180 -1.7063 -0.4309
  167SOPE  H18Y18884   4.235   4.052   8.064 -2.4464 -1.0169  0.1128
  167SOPE  H18Z18885   4.370   3.923   8.059  1.4840 -1.1324  3.3289
  168SOPE     N18886   3.094   0.813   6.361 -0.1794  0.8885  0.0316
  168SOPE   HN118887   3.047   0.897   6.400 -1.0169  0.1376  0.6836
  168SOPE   HN218888   3.166   0.839   6.290 -1.1765  3.2306 -0.2227
  168SOPE   HN318889   3.014   0.762   6.317  1.9347 -1.7128 -1.0579
  168SOPE   C1218890   3.147   0.727   6.475  0.4054  0.1831  0.3312
  168SOPE  H12A18891   3.168   0.632   6.422  0.7082  0.8923 -0.8651
  168SOPE  H12B18892   3.078   0.717   6.561 -0.1246 -3.1968 -0.3342
  168SOPE   C1118893   3.285   0.792   6.523 -0.1967  0.5464  0.1685
  168SOPE  H11A18894   3.352   0.706   6.545  2.1180  1.3761 -2.9171
  168SOPE  H11B18895   3.265   0.860   6.608  1.1033  0.6528  0.4122
  168SOPE     P18896   3.370   1.021   6.407  0.0304  0.0225  0.2826
  168SOPE   O1318897   3.235   1.065   6.364 -0.0566 -0.4885 -0.9334
  168SOPE   O1418898   3.479   1.056   6.316 -0.0960  0.5792 -0.1528
  168SOPE   O1218899   3.363   0.861   6.425  0.0068 -0.3970  0.0214
  168SOPE   O1118900   3.403   1.071   6.555  0.3025  0.2394  0.3287
  168SOPE    C118901   3.528   1.056   6.614 -0.9660  0.1544 -0.7759
  168SOPE    HA18902   3.586   1.149   6.595 -1.2755  1.1375  2.5053
  168SOPE    HB18903   3.589   0.970   6.578  0.0540 -0.5300  2.2712
  168SOPE    C218904   3.512   1.049   6.770 -0.5057  0.3068  0.8939
  168SOPE    HS18905   3.616   1.055   6.809 -0.0349  1.1453 -0.4225
  168SOPE   O2118906   3.441   0.931   6.817  0.1428 -0.1859 -0.1163
  168SOPE   C2118907   3.495   0.816   6.790 -0.4762  0.1802  0.5356
  168SOPE   O2218908   3.602   0.794   6.736 -0.0938  0.0898  0.3915
  168SOPE   C2218909   3.414   0.711   6.859  0.2804 -0.1264 -0.5921
  168SOPE   H2R18910   3.406   0.623   6.791 -1.8819  0.3859 -1.0684
  168SOPE   H2S18911   3.313   0.754   6.873  0.9010  0.8246  1.3418
  168SOPE    C318912   3.430   1.174   6.814 -1.2511 -0.6341  0.0422
  168SOPE    HX18913   3.327   1.162   6.777 -0.9556 -1.5405 -0.5026
  168SOPE    HY18914   3.466   1.265   6.761 -1.3728 -1.4268 -1.4478
  168SOPE   O3118915   3.434   1.190   6.957  0.4660  0.1779 -0.0273
  168SOPE   C3118916   3.334   1.146   7.041  0.2681  0.3574  0.1113
  168SOPE   O3218917   3.240   1.077   7.010  0.2574  0.0619  0.6922
  168SOPE   C3218918   3.363   1.220   7.169  0.2245 -0.1048 -0.8486
  168SOPE   H2X18919   3.386   1.326   7.146 -1.0702  0.4805  0.3853
  168SOPE   H2Y18920   3.457   1.178   7.211 -0.8039 -0.2263  1.5126
  168SOPE   C2318921   3.480   0.668   6.990  0.0861  0.7725  0.4969
  168SOPE   H3R18922   3.525   0.747   7.053  1.7488 -0.2889  0.7087
  168SOPE   H3S18923   3.566   0.598   6.976 -1.1328 -0.3687 -2.0046
  168SOPE   C2418924   3.384   0.588   7.072 -0.1522 -0.0932  0.3476
  168SOPE   H4R18925   3.291   0.648   7.068 -0.4367 -0.4860  1.0149
  168SOPE   H4S18926   3.342   0.499   7.020 -2.5892  0.8476  0.5624
  168SOPE   C2518927   3.438   0.545   7.210  0.4966 -0.1211  1.1174
  168SOPE   H5R18928   3.363   0.481   7.261  0.3170  0.6046  1.7765
  168SOPE   H5S18929   3.525   0.480   7.185 -0.1512 -1.0614  1.2338
  168SOPE   C2618930   3.473   0.659   7.310  0.2112 -0.4339 -0.4736
  168SOPE   H6R18931   3.514   0.607   7.399 -0.5770  1.3103  0.9502
  168SOPE   H6S18932   3.542   0.733   7.262  0.4199  0.4459  1.1264
  168SOPE   C2718933   3.345   0.732   7.360 -1.0232 -0.2965 -0.6858
  168SOPE   H7R18934   3.309   0.797   7.278  1.1035 -0.8554 -2.1507
  168SOPE   H7S18935   3.269   0.656   7.387 -0.5189 -0.9545 -1.0646
  168SOPE   C2818936   3.376   0.808   7.489 -0.1456  0.2715  0.1949
  168SOPE   H8R18937   3.391   0.727   7.563 -1.0390  1.0404  1.2352
  168SOPE   H8S18938   3.468   0.870   7.493  0.6810 -0.9979  3.3403
  168SOPE   C2918939   3.261   0.879   7.551 -0.0272 -0.5461  0.0050
  168SOPE   H9118940   3.170   0.849   7.497 -0.0196 -1.9688  0.7507
  168SOPE  C21018941   3.255   0.987   7.626 -0.4857 -0.5404 -0.4807
  168SOPE  H10118942   3.161   1.037   7.653 -0.0514 -1.0615  2.2762
  168SOPE  C21118943   3.381   1.055   7.680 -0.2106 -0.2115 -0.1262
  168SOPE  H11R18944   3.446   1.085   7.595 -1.5705  0.5775 -0.9173
  168SOPE  H11S18945   3.451   0.989   7.737  2.0371  2.1835  0.0859
  168SOPE  C21218946   3.356   1.181   7.772  0.4051  0.0631  0.7560
  168SOPE  H12R18947   3.293   1.251   7.712 -0.8773 -1.5419  0.1609
  168SOPE  H12S18948   3.457   1.226   7.781  0.0918  0.5771  1.8217
  168SOPE  C21318949   3.293   1.149   7.912 -0.8450 -0.3409  0.4427
  168SOPE  H13R18950   3.183   1.138   7.900 -1.1798  2.8351 -0.2528
  168SOPE  H13S18951   3.311   1.242   7.970 -1.4626  0.1772 -0.1913
  168SOPE  C21418952   3.354   1.021   7.988  0.0969 -0.5971  0.6844
  168SOPE  H14R18953   3.465   1.023   7.985  0.2424  4.4135 -1.7265
  168SOPE  H14S18954   3.311   0.937   7.930  0.5486 -0.4446  0.1259
  168SOPE  C21518955   3.304   1.006   8.133  0.3006  0.3764  0.1922
  168SOPE  H15R18956   3.194   1.004   8.125  0.0222  1.9325  2.6503
  168SOPE  H15S18957   3.325   1.102   8.184 -2.2998  0.8582  0.4825
  168SOPE  C21618958   3.364   0.889   8.216 -0.3129  0.2083  0.0279
  168SOPE  H16R18959   3.319   0.889   8.317  0.1827  3.1369  0.3336
  168SOPE  H16S18960   3.473   0.904   8.227 -0.3187 -0.8789  2.0400
  168SOPE  C21718961   3.327   0.742   8.162 -0.3980 -0.2771 -0.3482
  168SOPE  H17R18962   3.383   0.661   8.211 -1.9075 -1.7279 -0.9187
  168SOPE  H17S18963   3.350   0.733   8.054  0.0540 -3.9325 -0.0573
  168SOPE  C21818964   3.183   0.710   8.188 -0.3291 -0.5568 -0.7808
  168SOPE  H18R18965   3.152   0.605   8.171 -2.7911 -0.4127  2.0239
  168SOPE  H18S18966   3.122   0.770   8.117  1.3934  1.6345 -0.4998
  168SOPE  H18T18967   3.151   0.729   8.293  2.5853 -1.4525  0.3701
  168SOPE   C3318968   3.238   1.222   7.264 -0.0276 -0.1772  1.0485
  168SOPE   H3X18969   3.267   1.284   7.352  1.9063  2.6468 -1.3779
  168SOPE   H3Y18970   3.219   1.114   7.283 -2.4173 -0.2746 -1.3895
  168SOPE   C3418971   3.113   1.292   7.206 -0.1370 -0.2003 -0.0697
  168SOPE   H4X18972   3.080   1.262   7.104 -2.1382  3.3114 -0.6402
  168SOPE   H4Y18973   3.133   1.401   7.211  0.3120 -0.0038 -3.4390
  168SOPE   C3518974   2.990   1.265   7.299  1.1039  0.0964 -0.8133
  168SOPE   H5X18975   2.914   1.338   7.264 -1.0122 -0.2404  2.6124
  168SOPE   H5Y18976   3.014   1.305   7.400  2.0424 -0.3631 -0.8439
  168SOPE   C3618977   2.922   1.128   7.297  0.6418  0.2771  0.5556
  168SOPE   H6X18978   2.985   1.037   7.299 -2.3499 -2.0898 -1.6330
  168SOPE   H6Y18979   2.863   1.121   7.203  0.8037  2.7908  0.2173
  168SOPE   C3718980   2.813   1.112   7.409  0.0630 -0.1319  0.0834
  168SOPE   H7X18981   2.749   1.027   7.375 -0.0155 -1.3789  3.0950
  168SOPE   H7Y18982   2.750   1.203   7.416 -0.1854 -0.2269 -0.7275
  168SOPE   C3818983   2.878   1.064   7.538  1.0967 -0.6323 -0.3811
  168SOPE   H8X18984   2.951   1.135   7.582  1.1228 -2.1939  2.3136
  168SOPE   H8Y18985   2.944   0.985   7.498  1.6413 -1.1099  1.3757
  168SOPE   C3918986   2.777   1.010   7.635 -0.4931  0.3071 -0.2440
  168SOPE   H9X18987   2.711   0.942   7.576 -0.4798  1.3807 -1.5446
  168SOPE   H9Y18988   2.712   1.088   7.678 -0.3039  0.5712 -0.4341
  168SOPE  C31018989   2.845   0.929   7.753 -0.7187  0.3474  0.9551
  168SOPE  H10X18990   2.941   0.967   7.795 -0.7076  1.9058 -0.4027
  168SOPE  H10Y18991   2.888   0.842   7.700 -0.0885  3.2737 -3.9839
  168SOPE  C31118992   2.753   0.906   7.871  0.6705 -0.2406 -0.0682
  168SOPE  H11X18993   2.649   0.904   7.830  1.2389 -0.5131 -1.5800
  168SOPE  H11Y18994   2.773   0.994   7.935 -0.4403  1.3589 -1.7755
  168SOPE  C31218995   2.772   0.779   7.954  0.3238 -0.4203 -0.1644
  168SOPE  H12X18996   2.855   0.796   8.025 -2.1405  0.7696  2.6338
  168SOPE  H12Y18997   2.801   0.695   7.887  1.5295 -0.3684  0.2812
  168SOPE  C31318998   2.651   0.755   8.038 -0.1598 -0.0675 -0.1404
  168SOPE  H13X18999   2.555   0.765   7.983 -0.6426  0.8124  0.8193
  168SOPE  H13Y19000   2.647   0.820   8.129 -2.3224 -1.0469  0.5438
  168SOPE  C31419001   2.643   0.611   8.090 -0.3387  0.0793  0.0720
  168SOPE  H14X19002   2.740   0.583   8.136 -1.1255 -0.8963  1.1880
  168SOPE  H14Y19003   2.631   0.540   8.005  2.5273 -0.8433  0.3299
  168SOPE  C31519004   2.527   0.576   8.186 -0.7177 -0.2728  0.0872
  168SOPE  H15X19005   2.516   0.466   8.172 -0.4083 -0.2580 -0.2684
  168SOPE  H15Y19006   2.423   0.616   8.177 -0.4945  0.1786 -0.5609
  168SOPE  C31619007   2.571   0.604   8.329  0.0831 -0.7210  0.7527
  168SOPE  H16X19008   2.589   0.714   8.335 -0.5341 -0.5603 -0.0715
  168SOPE  H16Y19009   2.670   0.558   8.347  0.1603 -1.3550 -1.1869
  168SOPE  C31719010   2.467   0.548   8.429 -0.2735 -0.4289 -0.4164
  168SOPE  H17X19011   2.469   0.437   8.431 -3.1519 -0.5286  1.9163
  168SOPE  H17Y19012   2.363   0.583   8.417 -0.0134 -0.2239 -2.4167
  168SOPE  C31819013   2.503   0.606   8.564 -0.2911 -0.4672 -0.2931
  168SOPE  H18X19014   2.608   0.584   8.593 -0.7899 -0.0411  2.0397
  168SOPE  H18Y19015   2.433   0.576   8.645 -0.9437  1.1108 -0.2321
  168SOPE  H18Z19016   2.485   0.715   8.563 -1.2945 -0.6159  0.7045
  169SOPE     N19017   5.341   3.511   6.389 -0.2673 -0.0890 -0.7163
  169SOPE   HN119018   5.253   3.525   6.335 -0.1662 -1.4946 -1.2896
  169SOPE   HN219019   5.375   3.604   6.417 -0.2581  0.0802 -1.2798
  169SOPE   HN319020   5.411   3.458   6.334  0.2752 -0.6575  0.4744
  169SOPE   C1219021   5.318   3.423   6.512 -0.5641  0.1458  0.5086
  169SOPE  H12A19022   5.222   3.456   6.556 -0.5636 -0.7887  1.2447
  169SOPE  H12B19023   5.405   3.444   6.577 -0.5708 -0.2034  0.6351
  169SOPE   C1119024   5.312   3.280   6.474 -0.1968  0.4015 -0.4163
  169SOPE  H11A19025   5.223   3.253   6.413 -0.5899  1.5564 -0.3882
  169SOPE  H11B19026   5.303   3.233   6.574  2.2525 -2.0295 -1.2142
  169SOPE     P19027   5.534   3.140   6.470 -0.3162 -0.0975 -0.3722
  169SOPE   O1319028   5.659   3.160   6.395  0.2346  0.0271  0.5803
  169SOPE   O1419029   5.478   3.001   6.485 -0.0650  0.6529 -0.2466
  169SOPE   O1219030   5.432   3.236   6.408 -0.0955 -0.4681 -0.4471
  169SOPE   O1119031   5.557   3.200   6.615 -0.6870  0.3578 -0.1860
  169SOPE    C119032   5.671   3.174   6.704  0.2274  0.5084  0.3099
  169SOPE    HA19033   5.703   3.275   6.737 -1.0893  1.1762 -0.4006
  169SOPE    HB19034   5.760   3.128   6.655  1.5488 -1.3163  4.0040
  169SOPE    C219035   5.633   3.094   6.828  0.4961  0.1521 -0.4710
  169SOPE    HS19036   5.725   3.075   6.887 -0.6124 -2.1218  0.6476
  169SOPE   O2119037   5.567   2.969   6.801  0.2426  0.4510  0.5273
  169SOPE   C2119038   5.630   2.868   6.738  0.6825  0.1548 -0.0117
  169SOPE   O2219039   5.744   2.867   6.699  0.1278 -0.1034  0.5152
  169SOPE   C2219040   5.537   2.750   6.733 -0.2462 -0.4193 -0.7069
  169SOPE   H2R19041   5.559   2.696   6.638 -1.2078 -3.2552  0.5832
  169SOPE   H2S19042   5.433   2.787   6.725 -0.9096 -2.5267 -3.4493
  169SOPE    C319043   5.546   3.177   6.924  0.0837 -0.2755 -0.1739
  169SOPE    HX19044   5.443   3.190   6.883 -1.5339 -3.2857  2.4567
  169SOPE    HY19045   5.600   3.273   6.932 -1.2640  0.6336 -1.3857
  169SOPE   O3119046   5.529   3.117   7.055  0.1439 -0.2077  0.0428
  169SOPE   C3119047   5.408   3.054   7.080  0.2047  0.1061 -0.1074
  169SOPE   O3219048   5.308   3.055   7.014 -0.3256 -0.6194  0.1103
  169SOPE   C3219049   5.420   2.973   7.210  0.2238  0.8299 -0.4856
  169SOPE   H2X19050   5.523   2.931   7.213 -0.1405 -0.0793 -0.4080
  169SOPE   H2Y19051   5.349   2.888   7.209  1.3893 -0.1901  0.4225
  169SOPE   C2319052   5.567   2.647   6.846  0.4346  0.7322 -0.3611
  169SOPE   H3R19053   5.671   2.610   6.857  0.8804  2.0438  0.1083
  169SOPE   H3S19054   5.512   2.554   6.819 -2.1875  2.2320 -0.5959
  169SOPE   C2419055   5.516   2.689   6.983  0.3658 -0.1022  0.3990
  169SOPE   H4R19056   5.574   2.780   7.009  0.5812  0.2538 -1.2008
  169SOPE   H4S19057   5.410   2.721   6.976  0.0061 -1.1849  0.7938
  169SOPE   C2519058   5.549   2.587   7.090 -0.9220  0.0172 -0.9296
  169SOPE   H5R19059   5.519   2.482   7.066  1.5560 -0.4090 -2.5029
  169SOPE   H5S19060   5.659   2.579   7.078 -0.9300  0.0486 -1.0223
  169SOPE   C2619061   5.512   2.633   7.238  0.2847 -0.0120  0.1486
  169SOPE   H6R19062   5.567   2.728   7.257 -0.5940  0.0430  2.7963
  169SOPE   H6S19063   5.406   2.665   7.244  0.9434  2.4701 -0.1090
  169SOPE   C2719064   5.540   2.522   7.339 -0.5443 -0.4041 -0.4988
  169SOPE   H7R19065   5.515   2.417   7.313  1.8381 -1.7241  2.0802
  169SOPE   H7S19066   5.649   2.530   7.360 -0.7626  1.4079  0.1002
  169SOPE   C2819067   5.463   2.534   7.468 -0.4665 -0.2329  0.1298
  169SOPE   H8R19068   5.531   2.516   7.554  0.4238 -0.5051 -0.6216
  169SOPE   H8S19069   5.443   2.644   7.472 -0.0255 -0.1859  1.5682
  169SOPE   C2919070   5.337   2.441   7.474 -0.4056  0.5824  0.1328
  169SOPE   H9119071   5.307   2.416   7.372  2.8457  1.0385 -1.0616
  169SOPE  C21019072   5.278   2.385   7.585  0.9930  0.0044  0.2426
  169SOPE  H10119073   5.183   2.330   7.574  1.8745 -1.0096 -4.0925
  169SOPE  C21119074   5.322   2.411   7.728  0.3739 -0.0488  0.0045
  169SOPE  H11R19075   5.307   2.519   7.748  0.3296  0.0515 -0.5390
  169SOPE  H11S19076   5.429   2.384   7.739  0.8452  1.4696 -0.6153
  169SOPE  C21219077   5.249   2.317   7.824 -0.3544  0.3398 -0.3569
  169SOPE  H12R19078   5.274   2.210   7.806 -0.2495  0.3583 -0.3252
  169SOPE  H12S19079   5.138   2.326   7.823 -0.4031  1.2700  2.9077
  169SOPE  C21319080   5.275   2.350   7.969 -0.1362 -0.1098 -0.0105
  169SOPE  H13R19081   5.272   2.460   7.982  1.5774 -0.2130  1.7842
  169SOPE  H13S19082   5.374   2.306   7.994  0.3447  0.8403 -0.2205
  169SOPE  C21419083   5.181   2.289   8.074 -0.0802 -0.7109 -0.6942
  169SOPE  H14R19084   5.159   2.182   8.053 -0.5562 -1.0191  1.1990
  169SOPE  H14S19085   5.080   2.333   8.065  0.0791  0.4667  2.1652
  169SOPE  C21519086   5.234   2.305   8.215 -0.1026 -1.5152  0.1991
  169SOPE  H15R19087   5.282   2.404   8.221 -0.3500 -1.2816 -1.4200
  169SOPE  H15S19088   5.315   2.230   8.227  0.4639 -0.7478  1.3361
  169SOPE  C21619089   5.134   2.289   8.324  0.2373  0.3366  0.3810
  169SOPE  H16R19090   5.082   2.192   8.306  2.4315 -0.4885 -2.0489
  169SOPE  H16S19091   5.060   2.371   8.314  0.5860  0.5574 -0.4038
  169SOPE  C21719092   5.197   2.291   8.466  0.0157  0.0653  0.5671
  169SOPE  H17R19093   5.237   2.394   8.479  1.6048 -0.4517  0.0528
  169SOPE  H17S19094   5.290   2.234   8.490 -1.8535 -2.8608  1.3129
  169SOPE  C21819095   5.090   2.263   8.574 -0.0761 -0.1797 -0.6642
  169SOPE  H18R19096   5.009   2.338   8.586 -0.6876 -1.1177  1.6112
  169SOPE  H18S19097   5.128   2.246   8.677  0.7331 -1.2969 -1.1289
  169SOPE  H18T19098   5.039   2.169   8.547  0.9539 -0.7934 -0.5360
  169SOPE   C3319099   5.397   3.049   7.345 -0.0595  0.2982 -0.0820
  169SOPE   H3X19100   5.304   3.109   7.335  0.4222  0.7123 -2.9008
  169SOPE   H3Y19101   5.485   3.110   7.373 -0.3216  0.3142  0.7473
  169SOPE   C3419102   5.377   2.945   7.461  0.4486 -0.1649  0.5169
  169SOPE   H4X19103   5.441   2.855   7.448 -1.8357 -1.7672 -0.1336
  169SOPE   H4Y19104   5.270   2.917   7.449 -1.0047  5.1032 -1.4117
  169SOPE   C3519105   5.402   3.004   7.602  0.0436 -0.2414 -0.3129
  169SOPE   H5X19106   5.337   3.092   7.623 -0.6318 -0.6251 -0.7427
  169SOPE   H5Y19107   5.512   3.021   7.603  0.1810 -0.8973 -1.4890
  169SOPE   C3619108   5.360   2.893   7.711  0.2078  0.1529  0.6918
  169SOPE   H6X19109   5.404   2.795   7.683 -0.2592  0.4161 -1.1433
  169SOPE   H6Y19110   5.252   2.870   7.703  0.3243 -0.9461  1.9590
  169SOPE   C3719111   5.384   2.938   7.857  0.5088 -0.4085 -0.5062
  169SOPE   H7X19112   5.381   3.048   7.870 -0.3833 -0.6129  1.2882
  169SOPE   H7Y19113   5.480   2.910   7.907 -0.4753 -0.7682  1.2500
  169SOPE   C3819114   5.277   2.869   7.944 -0.6814  0.3146 -0.6954
  169SOPE   H8X19115   5.183   2.877   7.885 -1.0497  1.5177  0.0251
  169SOPE   H8Y19116   5.305   2.761   7.942  1.6039  0.8666 -0.7715
  169SOPE   C3919117   5.258   2.930   8.082 -0.3662 -0.0569  0.0026
  169SOPE   H9X19118   5.247   3.040   8.073  0.0086  0.0505  0.7542
  169SOPE   H9Y19119   5.358   2.906   8.124  0.3595  0.0210 -1.6057
  169SOPE  C31019120   5.146   2.870   8.174 -0.0766 -0.0535 -0.0918
  169SOPE  H10X19121   5.173   2.766   8.201 -1.8929 -0.5684 -0.1267
  169SOPE  H10Y19122   5.050   2.881   8.119  0.6155  2.1054 -0.9651
  169SOPE  C31119123   5.146   2.940   8.314  0.3467 -0.8983  0.6214
  169SOPE  H11X19124   5.048   2.918   8.363  0.7212 -1.5951  1.0714
  169SOPE  H11Y19125   5.163   3.046   8.287  1.3511 -1.4378 -1.0239
  169SOPE  C31219126   5.268   2.909   8.406  0.3304 -0.4167  0.0382
  169SOPE  H12X19127   5.356   2.881   8.344 -0.2979 -0.1372 -1.0063
  169SOPE  H12Y19128   5.242   2.827   8.476 -1.9115  1.7595  1.9479
  169SOPE  C31319129   5.287   3.025   8.492  0.3269  0.6212  0.6191
  169SOPE  H13X19130   5.195   3.071   8.532 -0.3709  0.5388 -0.8256
  169SOPE  H13Y19131   5.338   3.107   8.437 -1.6689 -0.1485 -2.6492
  169SOPE  C31419132   5.389   2.985   8.606  0.2072  0.0396  0.0223
  169SOPE  H14X19133   5.472   2.928   8.560 -0.5559  0.4560 -1.9654
  169SOPE  H14Y19134   5.347   2.914   8.681 -0.8157  2.8833  2.3355
  169SOPE  C31519135   5.438   3.101   8.688 -0.2981 -0.4230 -0.2041
  169SOPE  H15X19136   5.359   3.163   8.734  1.8030  1.3143  1.2883
  169SOPE  H15Y19137   5.484   3.184   8.630 -0.2370 -1.3686 -1.5540
  169SOPE  C31619138   5.548   3.051   8.783 -0.0084 -0.0599 -0.2880
  169SOPE  H16X19139   5.505   2.997   8.870  2.2004  0.2222  1.0361
  169SOPE  H16Y19140   5.586   3.150   8.816  2.6971 -0.7230 -1.1818
  169SOPE  C31719141   5.667   2.977   8.727  0.2500  0.4387 -0.9434
  169SOPE  H17X19142   5.623   2.889   8.675  1.4615 -0.6023 -0.2701
  169SOPE  H17Y19143   5.731   2.939   8.809  0.0912 -2.1729 -1.9253
  169SOPE  C31819144   5.746   3.043   8.616 -0.2015  0.1278  0.8446
  169SOPE  H18X19145   5.731   3.153   8.629  1.9297  0.6637 -0.6065
  169SOPE  H18Y19146   5.723   3.001   8.516  0.0285 -1.3635  1.3934
  169SOPE  H18Z19147   5.854   3.023   8.633 -0.0339  1.5917  1.7233
  170SOPE     N19148   6.678   1.061   6.428 -0.2619 -0.5492 -0.1077
  170SOPE   HN119149   6.768   1.012   6.446  0.8296  1.2913 -0.3103
  170SOPE   HN219150   6.611   1.015   6.363 -0.2880  1.2238 -1.3888
  170SOPE   HN319151   6.691   1.156   6.389 -1.1678  0.5538  2.1011
  170SOPE   C1219152   6.603   1.079   6.555 -0.4821  0.0714  0.1675
  170SOPE  H12A19153   6.663   1.140   6.626 -1.1104 -1.1196  1.7994
  170SOPE  H12B19154   6.599   0.978   6.602 -0.3858 -0.5176 -1.0400
  170SOPE   C1119155   6.465   1.134   6.529  0.1987 -0.3804  0.2998
  170SOPE  H11A19156   6.414   1.136   6.627  1.3476  0.6047  0.9090
  170SOPE  H11B19157   6.408   1.068   6.460 -1.9305  0.7493  0.8913
  170SOPE     P19158   6.349   1.341   6.423  0.6052 -0.2364  0.0937
  170SOPE   O1319159   6.253   1.228   6.398 -0.3514  0.2370 -0.0534
  170SOPE   O1419160   6.376   1.430   6.307 -0.8809 -0.1819  0.1215
  170SOPE   O1219161   6.480   1.271   6.480  0.1104 -0.1703  0.4610
  170SOPE   O1119162   6.300   1.424   6.546 -0.5084  0.7840 -0.2351
  170SOPE    C119163   6.390   1.497   6.629 -0.1073  0.3711  0.2636
  170SOPE    HA19164   6.403   1.602   6.596  2.6277 -0.1148 -0.4677
  170SOPE    HB19165   6.491   1.451   6.633  0.8519  2.3433  0.0880
  170SOPE    C219166   6.339   1.496   6.781  0.1288  0.0034  0.3658
  170SOPE    HS19167   6.401   1.574   6.831  0.8973  0.8140 -1.7060
  170SOPE   O2119168   6.363   1.366   6.841 -0.0709 -0.2866  0.3188
  170SOPE   C2119169   6.484   1.343   6.888 -0.5767 -0.0054 -0.3237
  170SOPE   O2219170   6.577   1.424   6.895 -0.2757  0.9726 -0.0179
  170SOPE   C2219171   6.477   1.198   6.945 -0.0294 -0.2903  0.2245
  170SOPE   H2R19172   6.437   1.126   6.871  2.7451 -0.3076 -1.3853
  170SOPE   H2S19173   6.396   1.215   7.020 -0.2590 -3.5194  0.8424
  170SOPE    C319174   6.193   1.537   6.788 -0.0597 -0.7193  0.3023
  170SOPE    HX19175   6.133   1.473   6.721 -1.2018  0.0404  0.5675
  170SOPE    HY19176   6.200   1.642   6.752 -1.3167 -0.3384  1.1256
  170SOPE   O3119177   6.136   1.519   6.923  0.3216  0.4341  0.5232
  170SOPE   C3119178   6.185   1.611   7.002 -0.6106  0.0110 -0.7153
  170SOPE   O3219179   6.263   1.701   6.978  0.3747 -0.0744 -0.7212
  170SOPE   C3219180   6.138   1.577   7.144 -0.8964  0.4953  0.6853
  170SOPE   H2X19181   6.229   1.555   7.204  0.2524  1.3073 -0.6726
  170SOPE   H2Y19182   6.081   1.482   7.148 -0.3772  0.2283  2.2424
  170SOPE   C2319183   6.608   1.156   7.008  0.1624  0.5022 -0.1444
  170SOPE   H3R19184   6.637   1.241   7.073 -0.0467  1.4278 -1.2277
  170SOPE   H3S19185   6.696   1.140   6.942  0.4152  0.1284  0.2824
  170SOPE   C2419186   6.596   1.029   7.089 -0.0390 -0.7483  0.1009
  170SOPE   H4R19187   6.504   1.040   7.150  0.2326 -2.1366  0.8020
  170SOPE   H4S19188   6.575   0.945   7.020  0.7581  0.0357 -1.1203
  170SOPE   C2519189   6.717   1.008   7.180  0.4056  0.0975 -0.9260
  170SOPE   H5R19190   6.807   0.998   7.116  1.5216  2.3067  0.1930
  170SOPE   H5S19191   6.726   1.097   7.246 -2.9206  1.3037 -1.8746
  170SOPE   C2619192   6.702   0.879   7.258 -0.2049  0.1491  0.6088
  170SOPE   H6R19193   6.693   0.796   7.185 -4.8410  0.0032  1.0308
  170SOPE   H6S19194   6.791   0.867   7.324  0.7229 -0.5818 -0.7321
  170SOPE   C2719195   6.585   0.864   7.365 -0.4989  0.2912  0.1488
  170SOPE   H7R19196   6.486   0.848   7.318  0.6929  0.8636 -2.7586
  170SOPE   H7S19197   6.593   0.774   7.430 -0.2777  0.7503  0.7629
  170SOPE   C2819198   6.574   0.990   7.458  0.5957 -0.1906  0.4992
  170SOPE   H8R19199   6.562   1.071   7.383 -0.9198 -0.4169  0.4635
  170SOPE   H8S19200   6.477   0.971   7.509  0.0965 -0.9171 -0.6565
  170SOPE   C2919201   6.689   1.009   7.553 -0.4586 -0.6900 -0.2553
  170SOPE   H9119202   6.786   1.006   7.501  0.8959 -2.5447  2.1756
  170SOPE  C21019203   6.701   1.013   7.688  0.2340  0.4502 -0.0594
  170SOPE  H10119204   6.802   1.024   7.731  0.1369  1.8705 -0.1381
  170SOPE  C21119205   6.582   1.021   7.774  1.4862  0.2666 -0.5300
  170SOPE  H11R19206   6.506   0.947   7.742 -0.4501  2.5184 -1.4510
  170SOPE  H11S19207   6.547   1.127   7.772  0.5614 -0.0106  0.4102
  170SOPE  C21219208   6.611   0.993   7.921 -0.4096 -0.6274  0.2027
  170SOPE  H12R19209   6.696   1.057   7.951 -2.2432  2.8896 -1.5015
  170SOPE  H12S19210   6.633   0.887   7.945  0.0104 -0.8062 -0.9225
  170SOPE  C21319211   6.490   1.053   8.002 -0.2481 -0.5337  0.0338
  170SOPE  H13R19212   6.408   0.990   7.959 -0.2384 -0.1190 -0.6115
  170SOPE  H13S19213   6.460   1.154   7.965  1.6494  0.1082  0.1640
  170SOPE  C21419214   6.498   1.040   8.156 -0.5198 -0.4859 -0.4905
  170SOPE  H14R19215   6.580   1.104   8.194 -0.9389  0.5367 -1.2613
  170SOPE  H14S19216   6.521   0.935   8.183 -0.1414  0.1265  1.7746
  170SOPE  C21519217   6.366   1.081   8.233  0.3556  0.6435 -0.4702
  170SOPE  H15R19218   6.291   0.999   8.243 -0.6643  1.5736 -0.2839
  170SOPE  H15S19219   6.315   1.165   8.181  0.4710  0.5058 -0.8151
  170SOPE  C21619220   6.402   1.111   8.377 -0.5249  0.1638  0.3144
  170SOPE  H16R19221   6.472   1.197   8.372  1.3641 -1.1415  2.3295
  170SOPE  H16S19222   6.455   1.030   8.432 -0.2664  0.2489  0.1902
  170SOPE  C21719223   6.281   1.160   8.461  0.1674  0.7189 -0.4183
  170SOPE  H17R19224   6.211   1.076   8.441 -0.9499  0.7518  2.7463
  170SOPE  H17S19225   6.227   1.248   8.422 -0.4909  1.5803  2.1860
  170SOPE  C21819226   6.310   1.178   8.609 -0.1293 -0.1539 -0.7792
  170SOPE  H18R19227   6.357   1.084   8.647  1.2149  1.4083  1.7119
  170SOPE  H18S19228   6.214   1.188   8.663  1.7728  1.4835  2.6057
  170SOPE  H18T19229   6.362   1.274   8.628 -0.8758 -0.1057  1.2678
  170SOPE   C3319230   6.059   1.692   7.209  0.2972 -0.4023  0.2139
  170SOPE   H3X19231   5.969   1.714   7.147 -0.3015  0.5300  1.3702
  170SOPE   H3Y19232   6.118   1.786   7.200 -0.8684  0.3735  0.4286
  170SOPE   C3419233   6.022   1.678   7.354 -0.0819  0.6958  0.2649
  170SOPE   H4X19234   6.114   1.671   7.415 -0.7466  1.6203  1.4181
  170SOPE   H4Y19235   5.963   1.585   7.369  0.7580 -0.3650 -2.3827
  170SOPE   C3519236   5.941   1.797   7.403  0.8657 -0.2775  0.5040
  170SOPE   H5X19237   5.839   1.795   7.360  1.1506  1.4073 -0.3483
  170SOPE   H5Y19238   5.987   1.891   7.364  1.2548 -1.7973 -3.1094
  170SOPE   C3619239   5.920   1.804   7.560  1.2845  0.0220 -0.5010
  170SOPE   H6X19240   6.016   1.805   7.615 -0.3781  1.6830  2.6070
  170SOPE   H6Y19241   5.862   1.713   7.586 -0.5722  2.0263  3.1029
  170SOPE   C3719242   5.836   1.927   7.595  0.3593 -0.2956  0.3948
  170SOPE   H7X19243   5.732   1.918   7.558  0.6763 -0.6272 -0.4421
  170SOPE   H7Y19244   5.873   2.018   7.542  2.0873 -1.9219 -1.3594
  170SOPE   C3819245   5.835   1.947   7.743 -0.7079  0.6265  0.1410
  170SOPE   H8X19246   5.941   1.965   7.772 -0.0679  0.3142 -1.8546
  170SOPE   H8Y19247   5.800   1.859   7.801 -0.8235  1.0568  0.7367
  170SOPE   C3919248   5.759   2.070   7.802 -0.4050  0.1832 -0.7766
  170SOPE   H9X19249   5.654   2.068   7.766 -0.3980  1.4873 -0.9331
  170SOPE   H9Y19250   5.810   2.161   7.762 -0.6454  0.7802  0.2528
  170SOPE  C31019251   5.745   2.059   7.954 -0.3365 -0.0074 -0.7871
  170SOPE  H10X19252   5.839   2.080   8.008  0.1386 -0.3293 -1.4742
  170SOPE  H10Y19253   5.720   1.953   7.976  1.4538 -0.7005 -1.8712
  170SOPE  C31119254   5.639   2.155   8.018 -0.3033  0.8121 -0.3415
  170SOPE  H11X19255   5.538   2.115   7.997 -1.1445  1.7628  1.6175
  170SOPE  H11Y19256   5.655   2.254   7.971 -0.8347  1.1972  0.2731
  170SOPE  C31219257   5.642   2.152   8.175 -0.4192  0.0923  0.9747
  170SOPE  H12X19258   5.573   2.225   8.221 -1.0211  0.1362  0.0276
  170SOPE  H12Y19259   5.750   2.151   8.203 -0.3892 -0.0920  0.8555
  170SOPE  C31319260   5.575   2.025   8.243  0.1383  0.8509 -0.3167
  170SOPE  H13X19261   5.616   1.929   8.204 -0.5565 -0.4275  1.9247
  170SOPE  H13Y19262   5.466   2.030   8.221 -0.3083 -3.1320  0.2363
  170SOPE  C31419263   5.604   2.032   8.395  0.1165  0.5353  0.3625
  170SOPE  H14X19264   5.531   2.108   8.431  1.1221  1.3668  0.7078
  170SOPE  H14Y19265   5.700   2.077   8.429 -0.5599 -1.2994  5.6381
  170SOPE  C31519266   5.592   1.903   8.473 -0.3097  0.3476  0.5981
  170SOPE  H15X19267   5.613   1.922   8.581  1.7938  2.5592 -0.1143
  170SOPE  H15Y19268   5.673   1.847   8.421 -1.3953 -0.5341 -0.1978
  170SOPE  C31619269   5.461   1.834   8.457 -0.4008  0.0927 -0.5500
  170SOPE  H16X19270   5.432   1.811   8.352 -0.6282 -0.1568 -0.4348
  170SOPE  H16Y19271   5.377   1.903   8.481 -0.4980  1.1604 -3.5183
  170SOPE  C31719272   5.435   1.710   8.548  0.3299 -0.6589 -0.2878
  170SOPE  H17X19273   5.504   1.635   8.504  1.8565  1.0196 -0.8917
  170SOPE  H17Y19274   5.329   1.684   8.531  0.1843  0.0168 -0.4665
  170SOPE  C31819275   5.477   1.723   8.692 -0.8409  0.2161  0.5111
  170SOPE  H18X19276   5.587   1.738   8.701 -0.8499  0.7697 -0.2459
  170SOPE  H18Y19277   5.464   1.621   8.736 -2.0462  0.0294 -0.2447
  170SOPE  H18Z19278   5.415   1.790   8.755 -2.0795  0.4393 -0.8820
  171SOPE     N19279   6.637   4.346   6.089  0.2449  0.1105 -0.5245
  171SOPE   HN119280   6.729   4.348   6.137  0.2905  1.3438 -0.6418
  171SOPE   HN219281   6.599   4.251   6.108  0.3678  0.5647  2.4960
  171SOPE   HN319282   6.654   4.358   5.988 -0.6036  2.8951 -0.4239
  171SOPE   C1219283   6.533   4.434   6.153 -0.1363  0.2684  0.2807
  171SOPE  H12A19284   6.444   4.435   6.087 -0.5775  2.7166  0.7918
  171SOPE  H12B19285   6.579   4.535   6.146 -1.3861  0.7435 -2.4220
  171SOPE   C1119286   6.503   4.385   6.298  0.6906 -0.4166 -0.2128
  171SOPE  H11A19287   6.456   4.284   6.291 -0.4487  0.0595  0.3671
  171SOPE  H11B19288   6.429   4.453   6.345  0.8870 -0.0831 -0.3892
  171SOPE     P19289   6.687   4.490   6.457 -0.1853  0.1397 -0.3408
  171SOPE   O1319290   6.725   4.582   6.351 -0.4684  0.0549 -0.4749
  171SOPE   O1419291   6.785   4.438   6.551  0.1347 -0.5618 -0.1560
  171SOPE   O1219292   6.617   4.374   6.385  0.5262  0.0863 -0.6941
  171SOPE   O1119293   6.573   4.565   6.529  0.1623 -0.1100 -0.6613
  171SOPE    C119294   6.465   4.492   6.600 -0.6327  0.9869 -0.1437
  171SOPE    HA19295   6.464   4.384   6.578 -1.4610  0.6185  1.5115
  171SOPE    HB19296   6.369   4.526   6.555  0.2062  0.3726 -2.4980
  171SOPE    C219297   6.468   4.514   6.756  0.5509  0.3018 -0.2170
  171SOPE    HS19298   6.388   4.454   6.804  0.6350  0.1037 -0.3229
  171SOPE   O2119299   6.439   4.652   6.784  0.4769 -0.2808 -0.6377
  171SOPE   C2119300   6.309   4.695   6.770 -0.1106 -0.4781 -0.3923
  171SOPE   O2219301   6.219   4.613   6.767 -0.7474  0.2579  0.1058
  171SOPE   C2219302   6.311   4.855   6.784 -0.3171 -0.2760  1.1331
  171SOPE   H2R19303   6.208   4.866   6.825 -0.4559 -0.8012  0.9211
  171SOPE   H2S19304   6.323   4.903   6.685  1.8680 -4.4687 -0.8699
  171SOPE    C319305   6.606   4.470   6.823  1.1784 -0.2404 -0.4159
  171SOPE    HX19306   6.680   4.529   6.765 -1.1926  1.7888 -1.5637
  171SOPE    HY19307   6.618   4.362   6.802  0.8984 -0.6326  1.2440
  171SOPE   O3119308   6.602   4.495   6.963 -0.1573 -0.5618 -0.7890
  171SOPE   C3119309   6.549   4.398   7.041  0.3368 -0.2037  0.3271
  171SOPE   O3219310   6.506   4.294   7.006  0.6434 -0.4410 -0.4467
  171SOPE   C3219311   6.528   4.431   7.191 -0.7211 -0.0253  1.3052
  171SOPE   H2X19312   6.504   4.332   7.236 -0.8783 -1.1148 -0.9995
  171SOPE   H2Y19313   6.444   4.502   7.209 -0.0104 -0.0182  5.5365
  171SOPE   C2319314   6.419   4.910   6.886  0.1961  0.0984 -0.0677
  171SOPE   H3R19315   6.423   5.019   6.868 -2.0542 -0.0173 -1.6654
  171SOPE   H3S19316   6.525   4.882   6.866  0.2726  0.4112 -0.0918
  171SOPE   C2419317   6.374   4.867   7.022  0.6796 -0.2748 -0.2381
  171SOPE   H4R19318   6.266   4.890   7.035  0.3217 -1.5612 -0.8244
  171SOPE   H4S19319   6.397   4.759   7.031  2.0075 -0.1620 -1.7770
  171SOPE   C2519320   6.435   4.943   7.139 -0.2857 -0.1246  0.2090
  171SOPE   H5R19321   6.545   4.954   7.127 -0.2913 -1.2166 -0.9394
  171SOPE   H5S19322   6.391   5.045   7.138 -1.8383 -0.7485  1.1580
  171SOPE   C2619323   6.419   4.866   7.274 -0.0480  0.1311  0.1858
  171SOPE   H6R19324   6.326   4.805   7.265 -2.3623  3.4452 -0.2599
  171SOPE   H6S19325   6.505   4.802   7.303  0.4598  1.2586  1.2315
  171SOPE   C2719326   6.417   4.955   7.395  0.2881  0.2157  0.2384
  171SOPE   H7R19327   6.517   4.999   7.418  0.3683  0.4093 -0.4695
  171SOPE   H7S19328   6.349   5.039   7.368 -1.3591 -2.1492 -3.8551
  171SOPE   C2819329   6.374   4.890   7.528  0.6405  0.3115 -0.5227
  171SOPE   H8R19330   6.265   4.874   7.516  0.4237  0.5350  0.9298
  171SOPE   H8S19331   6.426   4.792   7.539 -0.7772 -0.5470 -1.1223
  171SOPE   C2919332   6.420   4.977   7.646 -0.2444 -0.1711  0.4665
  171SOPE   H9119333   6.515   5.030   7.628  0.2476 -1.9138 -2.6103
  171SOPE  C21019334   6.345   5.014   7.749 -0.2561  0.5317  0.2442
  171SOPE  H10119335   6.383   5.097   7.811  0.2550 -0.8357  1.8482
  171SOPE  C21119336   6.204   4.980   7.768 -0.0164 -0.1921 -1.3787
  171SOPE  H11R19337   6.177   4.880   7.727  1.2596 -2.1130  2.0764
  171SOPE  H11S19338   6.141   5.054   7.715  1.4970  0.3177 -2.5305
  171SOPE  C21219339   6.155   4.985   7.913 -0.5403 -0.2258 -0.6196
  171SOPE  H12R19340   6.166   5.085   7.959 -0.4076  0.0988 -1.3495
  171SOPE  H12S19341   6.214   4.911   7.972  1.6151  1.9196  0.0628
  171SOPE  C21319342   6.005   4.947   7.914  0.1867  0.3831 -0.3196
  171SOPE  H13R19343   5.985   4.847   7.872  1.4466 -0.8854  1.9184
  171SOPE  H13S19344   5.953   5.021   7.850 -0.7238 -0.1969 -0.2661
  171SOPE  C21419345   5.950   4.948   8.062  0.4715  0.6938 -0.7628
  171SOPE  H14R19346   5.951   5.050   8.106 -1.0554  0.3976  0.0075
  171SOPE  H14S19347   6.009   4.874   8.120 -3.2568 -1.3421  0.7872
  171SOPE  C21519348   5.807   4.892   8.074  0.5144  0.3082 -1.1395
  171SOPE  H15R19349   5.775   4.806   8.011  1.1051 -0.1476 -0.8290
  171SOPE  H15S19350   5.746   4.977   8.036 -1.1717 -0.8014 -1.0385
  171SOPE  C21619351   5.771   4.866   8.221 -0.1374  0.0678 -0.2746
  171SOPE  H16R19352   5.854   4.807   8.264 -0.4417  0.9767  1.6758
  171SOPE  H16S19353   5.673   4.814   8.229 -1.3934  2.2633 -0.4311
  171SOPE  C21719354   5.768   4.988   8.319 -0.1072  0.3488 -0.1168
  171SOPE  H17R19355   5.687   5.057   8.288  0.7469  2.0426  1.2366
  171SOPE  H17S19356   5.868   5.038   8.314  1.2756 -2.2605 -0.8229
  171SOPE  C21819357   5.747   4.935   8.461  0.0011  0.7505  0.3548
  171SOPE  H18R19358   5.836   4.874   8.487  1.5274  3.1333  1.0417
  171SOPE  H18S19359   5.659   4.868   8.454  0.6396 -0.0665 -0.0330
  171SOPE  H18T19360   5.733   5.007   8.545 -3.9325 -0.2935  0.7735
  171SOPE   C3319361   6.649   4.500   7.257 -0.3055  0.9325  0.1934
  171SOPE   H3X19362   6.668   4.602   7.217 -1.8070  1.3449  0.4948
  171SOPE   H3Y19363   6.741   4.439   7.242 -1.1774 -0.2025 -0.5854
  171SOPE   C3419364   6.635   4.493   7.414  0.8503  0.0274 -0.3148
  171SOPE   H4X19365   6.631   4.392   7.460 -0.7095 -0.5893 -1.7106
  171SOPE   H4Y19366   6.528   4.517   7.436  1.5778  1.1847  2.4606
  171SOPE   C3519367   6.734   4.586   7.485  0.6111 -0.2707  0.4509
  171SOPE   H5X19368   6.727   4.691   7.448 -1.8727 -0.5052  0.0403
  171SOPE   H5Y19369   6.835   4.549   7.456  0.5645  0.3888 -0.6510
  171SOPE   C3619370   6.709   4.588   7.637  0.4406 -0.0593  0.2290
  171SOPE   H6X19371   6.615   4.644   7.660 -0.2626  0.2793 -3.0192
  171SOPE   H6Y19372   6.794   4.638   7.688 -0.3847  0.2239  1.3872
  171SOPE   C3719373   6.696   4.449   7.709 -0.1106 -1.1472 -1.1833
  171SOPE   H7X19374   6.780   4.379   7.692  1.4607 -0.4597  2.7375
  171SOPE   H7Y19375   6.600   4.401   7.682 -1.4484 -0.0613  1.3667
  171SOPE   C3819376   6.699   4.448   7.861 -0.3075 -0.5307  0.0374
  171SOPE   H8X19377   6.605   4.496   7.895  0.1406 -0.1206  0.6893
  171SOPE   H8Y19378   6.782   4.514   7.891 -1.9363  1.1053  1.1583
  171SOPE   C3919379   6.708   4.316   7.941 -0.3082  0.0318 -0.2232
  171SOPE   H9X19380   6.757   4.242   7.874  0.3064  0.0173  0.2301
  171SOPE   H9Y19381   6.611   4.267   7.963 -1.1230  1.3072 -0.9143
  171SOPE  C31019382   6.772   4.334   8.078  0.1995 -0.2726  0.4238
  171SOPE  H10X19383   6.694   4.376   8.145  0.5635  1.4797 -0.1924
  171SOPE  H10Y19384   6.847   4.415   8.074 -1.6375  1.4549 -1.8988
  171SOPE  C31119385   6.824   4.202   8.139 -1.2519 -1.4357  0.0556
  171SOPE  H11X19386   6.872   4.224   8.237 -1.2551 -1.8939  0.1617
  171SOPE  H11Y19387   6.899   4.146   8.079 -1.8526 -2.1063 -0.0892
  171SOPE  C31219388   6.713   4.105   8.201 -0.7353  0.4750  0.3914
  171SOPE  H12X19389   6.766   4.028   8.260  0.4527  0.9081 -0.0745
  171SOPE  H12Y19390   6.655   4.060   8.118 -1.7361  1.5358  0.4845
  171SOPE  C31319391   6.625   4.184   8.297  0.8891  0.2725  0.2696
  171SOPE  H13X19392   6.564   4.267   8.255 -0.3751 -0.7292  0.0690
  171SOPE  H13Y19393   6.699   4.228   8.367  1.1980 -0.3162  0.3142
  171SOPE  C31419394   6.527   4.096   8.377  0.2097 -0.6817 -0.1933
  171SOPE  H14X19395   6.594   4.022   8.426  2.8487  1.7354  0.1122
  171SOPE  H14Y19396   6.468   4.038   8.302  3.8513 -2.8311 -1.6653
  171SOPE  C31519397   6.447   4.159   8.491 -0.2804 -0.9562  0.5588
  171SOPE  H15X19398   6.383   4.237   8.443  1.3688 -0.3259 -0.7125
  171SOPE  H15Y19399   6.519   4.209   8.560  1.3488 -0.1048 -1.6289
  171SOPE  C31619400   6.361   4.054   8.551  0.0650  0.6663  0.5450
  171SOPE  H16X19401   6.440   3.998   8.604 -0.5138  1.0494  1.8628
  171SOPE  H16Y19402   6.314   3.984   8.478 -2.1288 -0.8218  3.2070
  171SOPE  C31719403   6.264   4.104   8.659 -0.2702  0.4023 -0.2009
  171SOPE  H17X19404   6.178   4.160   8.618  0.8308  1.3688 -1.2424
  171SOPE  H17Y19405   6.333   4.169   8.717 -0.3790  1.1079 -0.8481
  171SOPE  C31819406   6.206   3.986   8.747  0.2231 -0.7377 -0.3245
  171SOPE  H18X19407   6.135   4.033   8.818  0.6365  0.4909 -0.7046
  171SOPE  H18Y19408   6.278   3.930   8.811 -0.4205  0.9057  1.9858
  171SOPE  H18Z19409   6.145   3.923   8.679 -0.2885 -0.6274  0.0199
  172SOPE     N19410   0.062   6.097   6.526 -0.3968  0.2398  0.6759
  172SOPE   HN119411   0.077   6.200   6.527 -0.2253  0.3079 -1.6814
  172SOPE   HN219412  -0.038   6.070   6.515  0.1441 -0.7919 -3.0874
  172SOPE   HN319413   0.109   6.056   6.609 -1.0217 -1.6470  0.1447
  172SOPE   C1219414   0.132   6.041   6.404  0.1012  0.4880  0.4041
  172SOPE  H12A19415   0.072   6.081   6.320  1.0368 -0.5737 -0.8111
  172SOPE  H12B19416   0.128   5.930   6.398 -0.4488  0.5743 -1.1280
  172SOPE   C1119417   0.273   6.095   6.394 -0.2262  0.2071  0.4967
  172SOPE  H11A19418   0.266   6.202   6.364  1.7905  0.3898  0.5438
  172SOPE  H11B19419   0.325   6.044   6.311  0.1928 -0.0159  0.8922
  172SOPE     P19420   0.491   6.138   6.527  0.3630 -0.4112  0.4603
  172SOPE   O1319421   0.508   6.232   6.408  1.1232  0.3631 -0.2302
  172SOPE   O1419422   0.590   6.025   6.539 -0.3249 -0.1949  0.9678
  172SOPE   O1219423   0.345   6.071   6.517 -0.0877 -0.3563  0.1337
  172SOPE   O1119424   0.496   6.226   6.662 -0.6847 -0.3789  0.1910
  172SOPE    C119425   0.390   6.306   6.716 -0.5385  0.5329  0.3050
  172SOPE    HA19426   0.290   6.259   6.701 -1.1425  1.4183  1.4728
  172SOPE    HB19427   0.383   6.403   6.663 -2.3385  0.8257  1.0303
  172SOPE    C219428   0.417   6.330   6.870  0.4048  0.1335  0.9465
  172SOPE    HS19429   0.498   6.406   6.867  2.1850 -1.6528  1.7623
  172SOPE   O2119430   0.463   6.208   6.939 -0.0349 -0.1014  0.1341
  172SOPE   C2119431   0.382   6.104   6.946  0.2565  0.3310 -0.7262
  172SOPE   O2219432   0.266   6.091   6.905 -0.0201 -0.6461 -0.5425
  172SOPE   C2219433   0.446   5.992   7.017  0.0143  0.1819  0.2320
  172SOPE   H2R19434   0.497   5.937   6.936 -1.4109 -0.6562 -0.1174
  172SOPE   H2S19435   0.366   5.926   7.057 -0.8979  0.6722 -0.7178
  172SOPE    C319436   0.298   6.396   6.936  0.8615  0.0817 -0.4410
  172SOPE    HX19437   0.207   6.333   6.926 -1.0824  2.8787 -1.4856
  172SOPE    HY19438   0.267   6.491   6.888 -2.1212 -0.6103 -0.1129
  172SOPE   O3119439   0.325   6.423   7.074  0.2777 -0.1356  0.3737
  172SOPE   C3119440   0.393   6.534   7.106 -0.0287 -0.6796 -0.1582
  172SOPE   O3219441   0.420   6.626   7.026  0.1257  0.3256  0.4493
  172SOPE   C3219442   0.432   6.535   7.252 -0.0482 -0.5649  0.1238
  172SOPE   H2X19443   0.539   6.561   7.270  0.0969 -2.1629  1.9002
  172SOPE   H2Y19444   0.409   6.432   7.287  1.1907 -1.0597 -0.4552
  172SOPE   C2319445   0.546   6.017   7.126 -0.1609 -0.2685  0.1413
  172SOPE   H3R19446   0.605   6.107   7.098 -0.7714 -0.3877 -1.6027
  172SOPE   H3S19447   0.615   5.930   7.128  0.4497  0.1736 -0.8935
  172SOPE   C2419448   0.490   6.027   7.261  0.5686 -0.7664  0.2175
  172SOPE   H4R19449   0.393   6.081   7.254  0.4128 -0.9363  0.9542
  172SOPE   H4S19450   0.457   5.924   7.287 -2.7324  0.1231  0.0868
  172SOPE   C2519451   0.570   6.096   7.366 -0.1859  0.5070 -0.0417
  172SOPE   H5R19452   0.657   6.031   7.387  3.0589  3.1475 -3.8904
  172SOPE   H5S19453   0.598   6.196   7.326 -1.3800  2.3471  3.2901
  172SOPE   C2619454   0.478   6.113   7.489  0.3292  0.0947 -0.1472
  172SOPE   H6R19455   0.380   6.158   7.462  0.7412  0.7733 -0.5326
  172SOPE   H6S19456   0.471   6.012   7.536 -2.3618  0.6659  0.9176
  172SOPE   C2719457   0.524   6.204   7.608 -0.0787 -0.0682 -0.2777
  172SOPE   H7R19458   0.629   6.233   7.587  0.4053 -0.9623  0.8128
  172SOPE   H7S19459   0.455   6.289   7.625  2.4221  1.9051  0.5762
  172SOPE   C2819460   0.524   6.110   7.735 -0.4819 -0.0527  0.1609
  172SOPE   H8R19461   0.434   6.045   7.737 -1.4181  1.1854 -0.8585
  172SOPE   H8S19462   0.618   6.051   7.727  0.0808  0.8397  0.0892
  172SOPE   C2919463   0.533   6.199   7.862 -0.1639  0.0690  0.3134
  172SOPE   H9119464   0.633   6.238   7.887  0.8203 -1.5011 -0.9847
  172SOPE  C21019465   0.426   6.257   7.912 -0.1731  0.0421  0.4718
  172SOPE  H10119466   0.449   6.307   8.007 -0.2585 -0.0999  0.5671
  172SOPE  C21119467   0.280   6.233   7.891 -0.7328  0.4575  0.6953
  172SOPE  H11R19468   0.269   6.140   7.831 -0.9511  1.6267 -1.1469
  172SOPE  H11S19469   0.231   6.316   7.836 -0.7748 -0.7546 -1.1736
  172SOPE  C21219470   0.181   6.216   8.021 -0.1325 -0.0699 -0.0511
  172SOPE  H12R19471   0.227   6.134   8.080 -0.2199 -0.3204 -0.3283
  172SOPE  H12S19472   0.086   6.173   7.982 -1.0060  1.3442  0.4477
  172SOPE  C21319473   0.168   6.343   8.108 -0.0687  0.5377 -0.3244
  172SOPE  H13R19474   0.109   6.424   8.061 -0.4647  1.4651  1.6593
  172SOPE  H13S19475   0.272   6.376   8.129 -0.4053  2.8868 -2.0735
  172SOPE  C21419476   0.099   6.328   8.248  0.3125 -0.0450  0.1232
  172SOPE  H14R19477   0.108   6.227   8.292 -2.2515  0.7325  2.7359
  172SOPE  H14S19478  -0.011   6.335   8.237  0.4301  1.4369 -0.3868
  172SOPE  C21519479   0.150   6.418   8.360 -0.3243  0.6138  0.6021
  172SOPE  H15R19480   0.134   6.522   8.326  0.3255  0.2905 -0.7768
  172SOPE  H15S19481   0.260   6.411   8.374  0.0936  2.4041 -1.2938
  172SOPE  C21619482   0.070   6.404   8.498 -0.3733 -0.8000 -0.4113
  172SOPE  H16R19483   0.129   6.468   8.568 -1.3648  0.8451 -1.0271
  172SOPE  H16S19484   0.063   6.296   8.521  0.8944 -0.6416  0.8665
  172SOPE  C21719485  -0.068   6.464   8.496  0.8623 -0.1905  0.0285
  172SOPE  H17R19486  -0.135   6.434   8.413  0.5494 -0.7279  0.4653
  172SOPE  H17S19487  -0.049   6.574   8.497 -0.1877  0.0414  2.2689
  172SOPE  C21819488  -0.153   6.444   8.622  0.0456 -0.2403 -0.4454
  172SOPE  H18R19489  -0.144   6.344   8.669  3.4408  0.2383  0.1058
  172SOPE  H18S19490  -0.258   6.475   8.601 -0.1986 -0.9955 -0.3743
  172SOPE  H18T19491  -0.119   6.517   8.698  1.3892 -1.1947 -0.1053
  172SOPE   C3319492   0.339   6.636   7.323 -0.3451 -0.0646 -0.1792
  172SOPE   H3X19493   0.239   6.645   7.276 -0.4133  0.5282  0.0770
  172SOPE   H3Y19494   0.388   6.735   7.313  0.1876 -0.3330 -0.3071
  172SOPE   C3419495   0.325   6.610   7.473 -1.0145 -0.4665  0.5327
  172SOPE   H4X19496   0.263   6.519   7.487 -1.2450 -0.4343 -0.2427
  172SOPE   H4Y19497   0.261   6.693   7.511  1.6570  1.7078  0.6242
  172SOPE   C3519498   0.457   6.597   7.556 -1.0833  0.5293  0.9738
  172SOPE   H5X19499   0.512   6.692   7.537 -2.1868  0.7718 -1.4561
  172SOPE   H5Y19500   0.510   6.513   7.506 -0.7693  1.4336 -0.2640
  172SOPE   C3619501   0.451   6.577   7.703 -0.0235 -0.0209  0.3085
  172SOPE   H6X19502   0.390   6.489   7.733  3.0542 -1.3747  3.2829
  172SOPE   H6Y19503   0.395   6.658   7.754  0.1092 -0.1426  0.6499
  172SOPE   C3719504   0.582   6.588   7.777  0.5547  0.4528  0.4971
  172SOPE   H7X19505   0.640   6.675   7.741  0.8697 -0.3524 -1.0252
  172SOPE   H7Y19506   0.638   6.495   7.754 -2.7422 -1.5040 -0.3671
  172SOPE   C3819507   0.567   6.603   7.930  0.9030  0.6818 -0.5632
  172SOPE   H8X19508   0.512   6.525   7.987  0.8310  0.8266 -0.4326
  172SOPE   H8Y19509   0.510   6.696   7.951  1.6550  1.0860 -0.2792
  172SOPE   C3919510   0.699   6.624   8.002 -0.4074  0.0027 -0.4543
  172SOPE   H9X19511   0.774   6.680   7.942  0.1558  0.1888  0.3951
  172SOPE   H9Y19512   0.739   6.525   8.034  1.5938  0.8353 -0.2372
  172SOPE  C31019513   0.693   6.698   8.144 -0.2759  0.5399 -0.1530
  172SOPE  H10X19514   0.650   6.792   8.104  0.3171  0.7606 -0.2876
  172SOPE  H10Y19515   0.794   6.715   8.187 -0.3131  2.4760 -0.7271
  172SOPE  C31119516   0.599   6.652   8.255 -0.3359  0.3126  0.1342
  172SOPE  H11X19517   0.656   6.570   8.304 -1.3192  0.0601  0.8701
  172SOPE  H11Y19518   0.511   6.606   8.206  0.1950 -0.9672  0.3322
  172SOPE  C31219519   0.564   6.760   8.362 -0.3547  0.1258  0.0766
  172SOPE  H12X19520   0.482   6.828   8.329 -1.1779 -0.7052  0.3549
  172SOPE  H12Y19521   0.657   6.818   8.380 -0.0482 -0.6742  1.1667
  172SOPE  C31319522   0.499   6.701   8.486  0.4172  0.4705 -0.4113
  172SOPE  H13X19523   0.579   6.630   8.517  0.4565 -0.4336 -2.4331
  172SOPE  H13Y19524   0.410   6.642   8.456  1.6791 -2.4170  1.1211
  172SOPE  C31419525   0.464   6.793   8.610 -0.2602  0.4678  0.6112
  172SOPE  H14X19526   0.398   6.869   8.564 -0.3517 -0.8961 -1.6566
  172SOPE  H14Y19527   0.554   6.844   8.651 -1.7456  3.0527  0.8238
  172SOPE  C31519528   0.388   6.701   8.706  0.2636 -0.6926 -0.0551
  172SOPE  H15X19529   0.294   6.675   8.654 -1.6985  4.0090  0.6126
  172SOPE  H15Y19530   0.346   6.753   8.795 -0.0282 -0.7983 -0.1303
  172SOPE  C31619531   0.445   6.565   8.756  0.2425 -0.2831 -0.4410
  172SOPE  H16X19532   0.544   6.579   8.805  0.2415 -0.3957 -0.4064
  172SOPE  H16Y19533   0.463   6.488   8.678 -0.0760 -1.8938  1.0284
  172SOPE  C31719534   0.370   6.495   8.875 -0.1323 -0.3009  0.6428
  172SOPE  H17X19535   0.375   6.573   8.953 -2.2230  1.6312 -1.0208
  172SOPE  H17Y19536   0.436   6.406   8.886  0.2643 -0.4925 -2.3159
  172SOPE  C31819537   0.231   6.463   8.851  0.0195  0.0479  0.0195
  172SOPE  H18X19538   0.220   6.372   8.788 -1.1065  0.0594  0.1853
  172SOPE  H18Y19539   0.178   6.553   8.813  1.3601  0.6355 -0.5353
  172SOPE  H18Z19540   0.181   6.448   8.949  0.3006  2.4222  0.5898
  173SAPI   C1219541   2.239   3.356  11.052 -0.4277  0.0568 -0.0436
  173SAPI    H219542   2.302   3.277  11.007 -0.7572 -0.7556  0.8654
  173SAPI    O219543   2.222   3.319  11.194  0.3016  0.0452  0.2118
  173SAPI   HO219544   2.171   3.238  11.191 -0.1845  0.3186  0.8441
  173SAPI   C1319545   2.316   3.485  11.047 -0.3773  0.1645 -0.6224
  173SAPI    H319546   2.326   3.523  10.943  1.1884  0.3579 -0.4176
  173SAPI    O319547   2.449   3.472  11.095 -0.2426 -0.1958 -0.1821
  173SAPI   HO319548   2.447   3.470  11.191  0.0845 -1.0711 -0.1843
  173SAPI   C1419549   2.250   3.592  11.123  0.4497 -1.3285  1.1681
  173SAPI    H419550   2.236   3.555  11.227 -3.0954 -1.4515  0.7518
  173SAPI    O419551   2.326   3.716  11.103 -0.1526  0.1085  0.2150
  173SAPI   HO419552   2.373   3.709  11.020 -0.9640  1.6511 -0.4247
  173SAPI   C1519553   2.105   3.605  11.068  0.6874 -0.0199  0.1165
  173SAPI    H519554   2.112   3.649  10.966 -1.9499 -0.7454 -0.4416
  173SAPI    O519555   2.036   3.697  11.153  1.0972  0.4478 -0.3521
  173SAPI   HO519556   1.953   3.723  11.113  0.0047 -1.0850  0.7913
  173SAPI   C1619557   2.027   3.473  11.043  0.5656 -0.4783  0.8763
  173SAPI    H619558   2.000   3.428  11.140 -3.0902 -1.6907 -0.5356
  173SAPI    O619559   1.909   3.496  10.975  0.1720 -0.3581 -0.3309
  173SAPI   HO619560   1.899   3.437  10.900  1.2894 -0.1163 -0.6811
  173SAPI   C1119561   2.118   3.372  10.970  0.5478  0.4769 -0.3141
  173SAPI    H119562   2.143   3.422  10.874 -0.1389  1.5665  0.0571
  173SAPI     P19563   2.018   3.187  10.810  0.1517 -0.1214  0.4487
  173SAPI   O1319564   1.927   3.075  10.829  0.1217  0.7536  0.3004
  173SAPI   O1419565   2.136   3.174  10.721 -0.0041  0.7842  0.3297
  173SAPI   O1219566   2.052   3.246  10.964 -0.0990  0.3797  0.4799
  173SAPI   O1119567   1.924   3.301  10.765 -0.2526  0.0564 -0.4107
  173SAPI    C119568   1.805   3.268  10.696  0.2084  0.5334  0.4959
  173SAPI    HA19569   1.794   3.160  10.670  2.8864 -0.2145  2.0844
  173SAPI    HB19570   1.720   3.289  10.765 -0.2968  1.3311 -0.3496
  173SAPI    C219571   1.807   3.331  10.553 -0.4047 -1.0396  0.7673
  173SAPI    HS19572   1.904   3.311  10.502 -0.3477  0.6126  0.1517
  173SAPI   O2119573   1.782   3.475  10.564  0.0311 -0.8803 -0.6026
  173SAPI   C2119574   1.890   3.559  10.572 -0.2398  0.7669 -0.7428
  173SAPI   O2219575   2.007   3.512  10.568 -0.0138 -0.3580 -0.1628
  173SAPI   C2219576   1.849   3.702  10.579  0.5235  0.0138 -0.2793
  173SAPI   H2R19577   1.777   3.700  10.664  1.3246  0.5739  0.4253
  173SAPI   H2S19578   1.931   3.765  10.619  0.1961 -0.7444  1.7006
  173SAPI    C319579   1.691   3.276  10.475 -0.1763 -0.2821 -0.7514
  173SAPI    HX19580   1.611   3.336  10.523  1.7171  0.9096  1.0982
  173SAPI    HY19581   1.673   3.167  10.487  1.3376 -0.2630  2.9864
  173SAPI   O3119582   1.687   3.318  10.336 -0.0562 -0.0240 -0.4940
  173SAPI   C3119583   1.760   3.239  10.261  0.1933  0.0006  0.9427
  173SAPI   O3219584   1.824   3.147  10.301  0.9223  0.7353  0.3411
  173SAPI   C3219585   1.742   3.289  10.111  0.4699 -0.3896 -0.8770
  173SAPI   H2X19586   1.701   3.393  10.113 -1.8192 -1.2138  1.5866
  173SAPI   H2Y19587   1.666   3.233  10.053 -1.2277  2.1383 -1.2948
  173SAPI   C2319588   1.780   3.757  10.454 -0.0393 -0.2049  0.4961
  173SAPI   H3R19589   1.714   3.842  10.482 -1.2515 -0.4935 -1.3223
  173SAPI   H3S19590   1.723   3.674  10.407  1.0958 -1.2539  0.9206
  173SAPI   C2419591   1.866   3.816  10.343 -0.2292 -0.3701 -0.1649
  173SAPI   H4R19592   1.942   3.881  10.390 -2.1616  0.8873  1.3893
  173SAPI   H4S19593   1.805   3.877  10.274 -0.6311 -0.3765  0.1817
  173SAPI   C2519594   1.935   3.700  10.275  0.4634 -0.3346  0.2489
  173SAPI   H5R19595   1.997   3.628  10.330  1.4238 -0.3372 -0.7967
  173SAPI   C2619596   1.936   3.669  10.141  0.1822 -0.3732 -0.1439
  173SAPI   H6R19597   1.972   3.568  10.117 -2.0580 -1.2923  0.1008
  173SAPI   C2719598   1.871   3.752  10.026 -0.6144  0.5167  0.6967
  173SAPI   H7R19599   1.862   3.862  10.041 -0.2424  0.4193  1.6953
  173SAPI   H7S19600   1.763   3.727  10.016 -0.4129 -0.0193 -0.2268
  173SAPI   C2819601   1.948   3.720   9.898  0.3554  0.1567 -0.2562
  173SAPI   H8R19602   2.003   3.625   9.888  0.9959  0.7131 -2.6463
  173SAPI   C2919603   1.960   3.801   9.792 -0.0558 -0.1330  0.1506
  173SAPI   H9R19604   2.017   3.764   9.706  0.0227 -1.6888  0.8465
  173SAPI  C21019605   1.902   3.937   9.776  0.8351  0.2356 -0.1149
  173SAPI  H10R19606   1.832   3.951   9.861  0.7036 -0.0759 -0.1698
  173SAPI  H10S19607   1.837   3.938   9.685  0.8389 -1.1466 -0.1566
  173SAPI  C21119608   2.014   4.038   9.778 -0.1667 -0.0630 -0.6831
  173SAPI  H11R19609   2.087   4.026   9.860  1.6241  1.3987 -1.9619
  173SAPI  C21219610   2.043   4.117   9.678 -0.4500 -0.7595  0.7188
  173SAPI  H12R19611   2.108   4.201   9.704  1.6398 -1.8377 -0.7398
  173SAPI  C21319612   1.958   4.127   9.555  0.3327  0.2427  0.0683
  173SAPI  H13R19613   1.872   4.189   9.586 -0.2388 -0.6944  0.4040
  173SAPI  H13S19614   1.926   4.030   9.511  2.7205  0.5137 -2.5824
  173SAPI  C21419615   2.027   4.207   9.444  0.6054  0.0228 -0.6716
  173SAPI  H14R19616   2.134   4.188   9.427  1.5925  3.5779  0.6219
  173SAPI  C21519617   1.970   4.292   9.356  0.0971 -0.0833 -1.0838
  173SAPI  H15R19618   2.033   4.329   9.274  2.7687 -2.1319 -0.0989
  173SAPI  C21619619   1.822   4.320   9.352 -0.2920 -0.3501 -0.7052
  173SAPI  H16R19620   1.798   4.421   9.390  1.8154 -0.0802  0.0267
  173SAPI  H16S19621   1.760   4.256   9.419  0.9475  0.5332  1.3927
  173SAPI  C21719622   1.762   4.332   9.211  0.3845 -0.6025  0.3053
  173SAPI  H17R19623   1.651   4.330   9.202  0.4414  0.4760 -1.1187
  173SAPI  H17S19624   1.794   4.241   9.158  0.1767 -0.9820  0.8242
  173SAPI  C21819625   1.804   4.455   9.137 -0.6982 -0.0583 -0.2023
  173SAPI  H18R19626   1.909   4.489   9.146 -0.6200  0.2711 -2.0335
  173SAPI  H18S19627   1.739   4.536   9.176  1.6180  1.6566  0.2692
  173SAPI  C21919628   1.785   4.445   8.983 -0.1094  0.0152  0.5527
  173SAPI  H19R19629   1.856   4.369   8.943 -1.1744  0.1063 -1.6473
  173SAPI  H19S19630   1.807   4.545   8.939 -2.0194 -0.4793 -1.6803
  173SAPI  C22019631   1.654   4.402   8.922  0.2227 -0.2548  0.3194
  173SAPI  H20R19632   1.644   4.438   8.817  0.6644  0.5613  0.5507
  173SAPI  H20S19633   1.569   4.445   8.979 -0.6626  0.3771 -1.4117
  173SAPI  H20T19634   1.650   4.291   8.916  0.6265 -0.3675  1.8184
  173SAPI   C3319635   1.870   3.291  10.030 -0.2822 -0.6224 -0.1923
  173SAPI   H3X19636   1.917   3.190  10.025  0.6377 -0.2517  0.5016
  173SAPI   H3Y19637   1.948   3.345  10.088  0.8533 -3.2736  0.8759
  173SAPI   C3419638   1.850   3.336   9.881  0.0171  0.3434 -0.3164
  173SAPI   H4X19639   1.796   3.432   9.889 -1.0609 -0.3434  0.9877
  173SAPI   H4Y19640   1.790   3.258   9.829 -1.3746  1.1985 -0.0331
  173SAPI   C3519641   1.982   3.342   9.808 -0.7254 -0.8279  0.8345
  173SAPI   H5X19642   2.018   3.237   9.811  2.7567  0.2353  0.2253
  173SAPI   H5Y19643   2.059   3.404   9.859 -1.8451  0.6364  0.8174
  173SAPI   C3619644   1.982   3.384   9.656  0.5677 -0.6197 -0.4316
  173SAPI   H6X19645   2.087   3.372   9.624  1.5485  1.9923  1.4170
  173SAPI   H6Y19646   1.965   3.494   9.645  1.4171 -0.5487 -1.0720
  173SAPI   C3719647   1.881   3.304   9.567 -0.6404 -0.4547  0.7383
  173SAPI   H7X19648   1.781   3.297   9.614 -1.2260  0.5807 -0.3054
  173SAPI   H7Y19649   1.920   3.200   9.564 -2.2410 -1.0554 -0.7893
  173SAPI   C3819650   1.861   3.365   9.429 -0.7575  0.1120  0.3189
  173SAPI   H8X19651   1.910   3.464   9.423  0.1278 -0.3249  0.1900
  173SAPI   H8Y19652   1.754   3.378   9.402 -0.7568  1.8107  1.0230
  173SAPI   C3919653   1.934   3.271   9.328 -0.5606  0.6553 -0.1986
  173SAPI   H9X19654   1.883   3.173   9.314  2.6517 -1.4362  1.4093
  173SAPI   H9Y19655   2.039   3.256   9.364 -0.6780  1.9031  0.7253
  173SAPI  C31019656   1.957   3.329   9.185  0.2747  0.4406  0.1879
  173SAPI  H10X19657   2.010   3.258   9.119 -2.0381 -1.2812  0.0748
  173SAPI  H10Y19658   2.022   3.418   9.200 -1.0434  1.5304 -0.3403
  173SAPI  C31119659   1.825   3.372   9.122 -0.3321  0.8200  0.4923
  173SAPI  H11X19660   1.787   3.457   9.183 -0.2633 -0.6697  2.7239
  173SAPI  H11Y19661   1.756   3.285   9.121 -0.2901  0.7892  0.3658
  173SAPI  C31219662   1.849   3.425   8.980  0.6558  0.4059  0.4910
  173SAPI  H12X19663   1.749   3.435   8.933  1.0369  3.5790  0.1509
  173SAPI  H12Y19664   1.911   3.352   8.923  0.0671  1.9407 -2.3131
  173SAPI  C31319665   1.907   3.567   8.974  0.9351  0.0421  0.1730
  173SAPI  H13X19666   2.002   3.574   9.031  1.3811  0.3366 -0.5914
  173SAPI  H13Y19667   1.825   3.632   9.013 -0.1909 -1.1215 -0.2133
  173SAPI  C31419668   1.932   3.608   8.825  0.0627  1.6973 -0.0397
  173SAPI  H14X19669   1.832   3.616   8.778 -1.0646 -0.2392  1.8533
  173SAPI  H14Y19670   1.992   3.532   8.770  0.0228  1.7468 -0.1519
  173SAPI  C31519671   2.015   3.739   8.813 -0.5290  0.3781 -0.2242
  173SAPI  H15X19672   2.048   3.748   8.707 -0.0558 -1.6352 -0.3031
  173SAPI  H15Y19673   2.106   3.716   8.873 -0.6322 -0.6948 -0.4557
  173SAPI  C31619674   1.943   3.863   8.867 -0.1412  0.8961 -0.3571
  173SAPI  H16X19675   1.912   3.824   8.967  0.6768 -2.4969 -1.2840
  173SAPI  H16Y19676   1.848   3.869   8.809  0.5147 -0.9810 -1.7305
  173SAPI  C31719677   2.019   3.992   8.863  0.0388 -0.1309 -0.8183
  173SAPI  H17X19678   2.056   4.016   8.762 -1.1498  1.5464 -0.8997
  173SAPI  H17Y19679   2.101   3.983   8.938  1.2865  2.3853 -1.7610
  173SAPI  C31819680   1.936   4.108   8.918  0.9654  0.1657  0.4572
  173SAPI  H18X19681   1.999   4.194   8.949 -2.4586  2.3888  1.8835
  173SAPI  H18Y19682   1.885   4.067   9.008 -1.2567 -2.2366 -1.7522
  173SAPI  H18Z19683   1.862   4.146   8.845  0.9591 -0.5027  0.1103
  174SAPI   C1219684   5.484   4.352  11.215  0.5324 -0.1064  0.5583
  174SAPI    H219685   5.467   4.253  11.262 -0.8072 -0.6278 -0.9262
  174SAPI    O219686   5.356   4.420  11.211 -0.3314  0.0623  0.1712
  174SAPI   HO219687   5.294   4.362  11.167  0.1480  0.3220 -0.8726
  174SAPI   C1319688   5.588   4.435  11.291  0.7129 -0.4348 -0.9098
  174SAPI    H319689   5.684   4.380  11.302  0.1918 -1.3493 -0.8392
  174SAPI    O319690   5.553   4.449  11.428  0.5369  0.5702 -0.5198
  174SAPI   HO319691   5.630   4.442  11.484  0.6902 -2.8451 -0.9816
  174SAPI   C1419692   5.619   4.568  11.228  0.3627  0.6554 -0.4036
  174SAPI    H419693   5.530   4.631  11.249 -0.1463 -0.6398  1.6339
  174SAPI    O419694   5.734   4.644  11.284  0.3771  0.6390  0.0388
  174SAPI   HO419695   5.702   4.735  11.279 -0.7547  0.1866 -2.4882
  174SAPI   C1519696   5.623   4.571  11.076 -0.5070  1.0456 -0.2415
  174SAPI    H519697   5.732   4.555  11.057 -0.8741 -0.4148 -1.3309
  174SAPI    O519698   5.579   4.690  11.019  0.5601 -0.3054 -0.1691
  174SAPI   HO519699   5.658   4.729  10.982  0.0324  0.2689 -0.7176
  174SAPI   C1619700   5.561   4.452  10.994 -0.4437 -0.2791  0.1193
  174SAPI    H619701   5.463   4.490  10.958  0.5264  1.7342 -0.5388
  174SAPI    O619702   5.645   4.430  10.879 -0.2556 -0.1651  0.0801
  174SAPI   HO619703   5.586   4.384  10.819 -1.0901  0.0253  0.7328
  174SAPI   C1119704   5.542   4.327  11.071  0.1390  0.2684  0.0141
  174SAPI    H119705   5.641   4.281  11.092  0.4918  1.0107  0.0106
  174SAPI     P19706   5.511   4.116  10.906 -0.2115  0.1763  0.3291
  174SAPI   O1319707   5.411   3.999  10.902  0.0612 -0.4135 -0.0950
  174SAPI   O1419708   5.653   4.082  10.936 -0.2366  0.8429  0.2254
  174SAPI   O1219709   5.461   4.234  11.007 -0.0290  0.2669 -0.0744
  174SAPI   O1119710   5.504   4.198  10.768 -0.0227 -0.4659  0.0537
  174SAPI    C119711   5.384   4.243  10.715  0.0323 -0.6420 -0.4263
  174SAPI    HA19712   5.304   4.241  10.793 -0.1716 -0.4697 -0.6320
  174SAPI    HB19713   5.393   4.347  10.675 -1.7694  0.3210  1.4418
  174SAPI    C219714   5.328   4.155  10.601 -0.5495  0.4718 -0.1089
  174SAPI    HS19715   5.355   4.055  10.641  1.3699  1.1443  0.3882
  174SAPI   O2119716   5.411   4.183  10.485  0.0967 -0.0001  0.4552
  174SAPI   C2119717   5.420   4.096  10.391  0.9233 -0.4091 -0.6574
  174SAPI   O2219718   5.401   3.979  10.401  0.1399  0.1219 -0.1047
  174SAPI   C2219719   5.469   4.173  10.259 -0.1701 -0.6934 -0.6161
  174SAPI   H2R19720   5.441   4.281  10.265  0.1634 -0.6525  0.4542
  174SAPI   H2S19721   5.579   4.169  10.251 -0.1783  0.5603 -1.7434
  174SAPI    C319722   5.183   4.171  10.583  0.0632  0.2626 -0.0309
  174SAPI    HX19723   5.137   4.131  10.676 -2.4670 -0.5465 -1.5218
  174SAPI    HY19724   5.149   4.117  10.493  2.5213  0.4789 -1.1635
  174SAPI   O3119725   5.160   4.309  10.567  0.2834 -0.3789 -0.0023
  174SAPI   C3119726   5.157   4.354  10.438 -0.6764 -0.0484  0.8269
  174SAPI   O3219727   5.181   4.285  10.342  0.2116  0.7844 -0.0590
  174SAPI   C3219728   5.116   4.504  10.434 -0.1754  0.2304 -0.1168
  174SAPI   H2X19729   5.188   4.576  10.479  0.7788  0.3471 -1.7416
  174SAPI   H2Y19730   5.020   4.512  10.490 -0.2987  3.5183 -0.5549
  174SAPI   C2319731   5.402   4.116  10.130 -0.9389 -0.2340  0.5315
  174SAPI   H3R19732   5.294   4.099  10.151 -0.7785 -1.1989  0.6255
  174SAPI   H3S19733   5.454   4.024  10.096  1.9633  1.4723  0.0048
  174SAPI   C2419734   5.420   4.218  10.024  0.0147 -0.7415  0.0380
  174SAPI   H4R19735   5.382   4.314  10.064 -0.1894 -0.6584 -0.3487
  174SAPI   H4S19736   5.352   4.205   9.937 -0.8814 -0.6783  0.7235
  174SAPI   C2519737   5.560   4.238   9.978 -0.6932 -0.4854  0.9280
  174SAPI   H5R19738   5.631   4.270  10.055  0.9550 -4.6558  1.4083
  174SAPI   C2619739   5.614   4.222   9.854  0.6168 -0.3482  0.1331
  174SAPI   H6R19740   5.718   4.253   9.832  1.1545 -3.0228 -1.6851
  174SAPI   C2719741   5.529   4.195   9.727 -0.1856  0.6117 -0.5842
  174SAPI   H7R19742   5.468   4.104   9.745  0.0723  0.2378 -1.5896
  174SAPI   H7S19743   5.596   4.166   9.644  2.0396 -0.1260  1.3485
  174SAPI   C2819744   5.437   4.307   9.678 -0.3882  0.2102 -0.7709
  174SAPI   H8R19745   5.335   4.305   9.719 -1.0263  1.4757 -2.1583
  174SAPI   C2919746   5.460   4.403   9.585  0.1706 -0.4555 -0.3998
  174SAPI   H9R19747   5.386   4.479   9.556  0.8127  0.2110 -0.3040
  174SAPI  C21019748   5.584   4.444   9.520  0.1799  0.8812 -0.0852
  174SAPI  H10R19749   5.652   4.358   9.538 -2.6636 -1.1714  1.7419
  174SAPI  H10S19750   5.625   4.535   9.569  0.5333  0.5647  0.2098
  174SAPI  C21119751   5.574   4.482   9.375 -0.3521  0.2646  0.6381
  174SAPI  H11R19752   5.605   4.586   9.353  0.6469  0.3041  2.1110
  174SAPI  C21219753   5.565   4.398   9.275 -0.0474  0.6397  0.2001
  174SAPI  H12R19754   5.567   4.436   9.172 -1.1796  1.4214  0.4526
  174SAPI  C21319755   5.546   4.246   9.290 -0.3271 -0.1762 -0.3950
  174SAPI  H13R19756   5.534   4.206   9.393  0.2919 -1.9942 -0.9835
  174SAPI  H13S19757   5.644   4.197   9.271 -0.3040 -0.3193  0.0731
  174SAPI  C21419758   5.441   4.196   9.195  0.7141  0.0966  0.5752
  174SAPI  H14R19759   5.339   4.207   9.234  0.3871 -2.3512  0.6059
  174SAPI  C21519760   5.460   4.147   9.072  0.2389 -0.5436 -0.3821
  174SAPI  H15R19761   5.373   4.135   9.007  1.4414 -1.1503 -1.9599
  174SAPI  C21619762   5.584   4.120   8.999  0.3702  0.4010 -0.4098
  174SAPI  H16R19763   5.589   4.010   8.995  1.5877  0.4757 -1.5439
  174SAPI  H16S19764   5.677   4.159   9.047  1.0656  0.5984 -1.8798
  174SAPI  C21719765   5.608   4.190   8.862 -0.0752  0.4923  0.1433
  174SAPI  H17R19766   5.690   4.138   8.809  1.1806  1.3773  1.1473
  174SAPI  H17S19767   5.638   4.297   8.873  0.8968  0.1580  0.9431
  174SAPI  C21819768   5.485   4.171   8.772 -0.5315  0.6044 -0.0519
  174SAPI  H18R19769   5.403   4.220   8.829 -1.0568  0.7486 -0.9156
  174SAPI  H18S19770   5.444   4.068   8.764 -2.3392  1.2854 -0.1411
  174SAPI  C21919771   5.494   4.233   8.638  0.1905  0.7262  0.5828
  174SAPI  H19R19772   5.562   4.319   8.655  1.6492 -0.4462  0.8874
  174SAPI  H19S19773   5.387   4.254   8.615 -0.4877 -0.7530  2.2107
  174SAPI  C22019774   5.556   4.139   8.528  0.0600 -0.4462 -0.1035
  174SAPI  H20R19775   5.568   4.189   8.430  1.6788 -0.8702 -0.1605
  174SAPI  H20S19776   5.501   4.043   8.523  2.1988 -1.7870  0.6736
  174SAPI  H20T19777   5.659   4.108   8.557 -0.2319  0.8782  2.7483
  174SAPI   C3319778   5.107   4.557  10.289 -0.3701  0.4894 -0.6007
  174SAPI   H3X19779   5.206   4.540  10.241 -0.9947 -2.5567 -0.9547
  174SAPI   H3Y19780   5.082   4.662  10.316  0.4210  0.5515 -0.0967
  174SAPI   C3419781   4.999   4.492  10.210 -0.2802  0.8696 -0.1669
  174SAPI   H4X19782   4.906   4.480  10.269 -1.0688 -0.5713 -1.6267
  174SAPI   H4Y19783   5.022   4.386  10.184 -1.2130  0.7456 -0.5111
  174SAPI   C3519784   4.981   4.566  10.081  0.5280 -0.1586  0.4874
  174SAPI   H5X19785   4.917   4.652  10.111  1.6441  0.0021  2.6221
  174SAPI   H5Y19786   4.913   4.510  10.014 -1.2293  3.9771 -1.5273
  174SAPI   C3619787   5.104   4.598   9.993 -0.1865 -0.7975 -1.1249
  174SAPI   H6X19788   5.159   4.503   9.980  1.0497 -0.2070 -0.3294
  174SAPI   H6Y19789   5.178   4.667  10.037  0.2010 -0.5980 -2.0686
  174SAPI   C3719790   5.086   4.669   9.853  0.9007 -0.0770  0.5126
  174SAPI   H7X19791   5.068   4.777   9.873 -0.4150  0.0133 -0.9842
  174SAPI   H7Y19792   4.999   4.621   9.803  0.5524  0.0175  1.0069
  174SAPI   C3819793   5.207   4.655   9.760 -0.0313 -0.1276  0.3165
  174SAPI   H8X19794   5.217   4.547   9.735  0.6276 -0.2400  0.9924
  174SAPI   H8Y19795   5.299   4.692   9.811  0.7998 -2.9256  1.0664
  174SAPI   C3919796   5.187   4.727   9.623  0.1189  0.4570 -0.1948
  174SAPI   H9X19797   5.127   4.818   9.642  0.4913  1.1234 -2.0443
  174SAPI   H9Y19798   5.132   4.660   9.553  0.1327  0.2910 -0.0486
  174SAPI  C31019799   5.323   4.769   9.570  0.3328  0.1530 -0.3675
  174SAPI  H10X19800   5.379   4.677   9.539 -0.3269  0.1521 -1.6483
  174SAPI  H10Y19801   5.376   4.836   9.640 -2.3559  0.8360  1.1502
  174SAPI  C31119802   5.315   4.832   9.430 -0.4437  0.2444  0.1924
  174SAPI  H11X19803   5.417   4.866   9.402 -1.6331  2.5339 -1.7529
  174SAPI  H11Y19804   5.265   4.931   9.433 -1.1177  0.0309 -2.3590
  174SAPI  C31219805   5.251   4.748   9.327  0.4199  0.4425 -0.3006
  174SAPI  H12X19806   5.151   4.710   9.357  2.1034 -3.8520  0.5024
  174SAPI  H12Y19807   5.308   4.657   9.301 -1.1073 -0.8895  0.8538
  174SAPI  C31319808   5.217   4.826   9.197 -0.3545  0.0866 -0.3578
  174SAPI  H13X19809   5.179   4.926   9.227  0.1988  0.0031  0.6725
  174SAPI  H13Y19810   5.135   4.775   9.142  0.0685 -2.1486  0.9523
  174SAPI  C31419811   5.338   4.839   9.105 -0.1076  0.4457 -0.0934
  174SAPI  H14X19812   5.434   4.848   9.160  0.1141  0.4376 -0.4725
  174SAPI  H14Y19813   5.341   4.933   9.045  1.2220  0.4681 -0.0024
  174SAPI  C31519814   5.345   4.716   9.004 -0.0016  0.8423 -0.4295
  174SAPI  H15X19815   5.267   4.710   8.926 -1.3350 -2.2082  0.9523
  174SAPI  H15Y19816   5.325   4.629   9.072  0.1770 -0.8588 -2.4493
  174SAPI  C31619817   5.484   4.706   8.929 -0.0021 -0.3758  0.2070
  174SAPI  H16X19818   5.561   4.742   9.001  1.2147 -0.2176 -1.1433
  174SAPI  H16Y19819   5.469   4.774   8.843  2.1337 -0.5996 -0.3856
  174SAPI  C31719820   5.520   4.568   8.872 -0.8282 -0.3310  0.0301
  174SAPI  H17X19821   5.431   4.519   8.828 -0.0230 -3.4462  1.5717
  174SAPI  H17Y19822   5.549   4.501   8.956 -0.1687 -0.9445 -0.6728
  174SAPI  C31819823   5.630   4.579   8.767  0.4989 -0.5877 -1.3643
  174SAPI  H18X19824   5.608   4.669   8.706 -0.7915  0.1925  0.1929
  174SAPI  H18Y19825   5.643   4.489   8.703  1.8592 -1.1654 -0.3221
  174SAPI  H18Z19826   5.728   4.597   8.817  0.3301 -0.6286 -1.0221
  175SAPI   C1219827   0.975   2.917   6.092 -0.4115  0.5683 -0.3879
  175SAPI    H219828   0.884   2.972   6.123  0.0479  1.0344  0.1507
  175SAPI    O219829   0.972   2.780   6.138 -0.1598  0.1453 -0.3442
  175SAPI   HO219830   0.896   2.777   6.197 -0.8457 -0.9959 -1.2443
  175SAPI   C1319831   0.982   2.920   5.941  0.0463 -0.1431 -0.4702
  175SAPI    H319832   0.996   3.027   5.915  0.8549  0.2312  1.3130
  175SAPI    O319833   0.855   2.884   5.893  0.0993 -0.2488 -0.1496
  175SAPI   HO319834   0.842   2.789   5.889  2.2701 -0.6129  0.3007
  175SAPI   C1419835   1.094   2.835   5.889 -0.6345  0.4982 -0.4778
  175SAPI    H419836   1.081   2.728   5.915  3.3330 -0.9201 -3.3401
  175SAPI    O419837   1.101   2.848   5.743  0.2078 -0.4023 -0.1300
  175SAPI   HO419838   1.112   2.942   5.725  0.2770 -0.4209 -0.1849
  175SAPI   C1519839   1.231   2.879   5.961  1.0234  0.9551  0.1039
  175SAPI    H519840   1.245   2.981   5.918 -0.1828  0.4007 -1.7461
  175SAPI    O519841   1.331   2.792   5.911  0.1423  0.2860  0.2277
  175SAPI   HO519842   1.379   2.819   5.833  0.1675 -1.2147 -0.3221
  175SAPI   C1619843   1.230   2.909   6.109  0.1267  0.0153  0.2844
  175SAPI    H619844   1.240   2.811   6.160  1.3653  0.0686  0.1763
  175SAPI    O619845   1.353   2.981   6.145 -0.1738 -0.8832 -0.5873
  175SAPI   HO619846   1.394   2.938   6.220  2.1571  1.8491 -0.0973
  175SAPI   C1119847   1.102   2.983   6.153 -0.0475 -0.2401 -0.4334
  175SAPI    H119848   1.108   3.087   6.112 -0.2061 -0.1895 -0.3261
  175SAPI     P19849   1.009   3.099   6.377  0.3334 -0.0770  0.3946
  175SAPI   O1319850   0.960   3.035   6.503 -0.4537  0.3199 -0.0958
  175SAPI   O1419851   0.909   3.172   6.292  0.3161  0.0319 -0.3282
  175SAPI   O1219852   1.094   2.983   6.292  0.4403 -0.3947 -0.3063
  175SAPI   O1119853   1.127   3.198   6.415 -0.9340  0.0977  0.4953
  175SAPI    C119854   1.240   3.163   6.500 -0.0176  0.8418 -0.5944
  175SAPI    HA19855   1.259   3.053   6.496  1.9219  1.1812 -3.5670
  175SAPI    HB19856   1.331   3.213   6.463  0.4194  1.3170  1.0317
  175SAPI    C219857   1.238   3.229   6.646 -0.0803 -0.4453  0.0525
  175SAPI    HS19858   1.232   3.148   6.721  1.3299  0.5610  1.3194
  175SAPI   O2119859   1.133   3.331   6.660 -0.2663  0.9403  0.4736
  175SAPI   C2119860   1.016   3.290   6.704 -0.8710 -0.0132  0.0761
  175SAPI   O2219861   0.989   3.175   6.733  0.2747  0.4375 -0.5006
  175SAPI   C2219862   0.933   3.418   6.737 -0.0303  0.2221  0.1833
  175SAPI   H2R19863   0.906   3.461   6.638  1.1728  0.7201  0.0608
  175SAPI   H2S19864   0.841   3.381   6.788  0.5937 -3.5512 -1.1873
  175SAPI    C319865   1.381   3.292   6.684  0.2406  0.2789  0.3237
  175SAPI    HX19866   1.394   3.371   6.607  1.0139  1.8824  2.0202
  175SAPI    HY19867   1.462   3.219   6.662 -0.2210  0.1799 -1.1671
  175SAPI   O3119868   1.394   3.357   6.813  0.1520 -0.4923 -0.7890
  175SAPI   C3119869   1.394   3.276   6.920  0.3416 -0.7251 -0.4698
  175SAPI   O3219870   1.370   3.159   6.917  0.6911 -0.4625 -0.5024
  175SAPI   C3219871   1.430   3.353   7.048  0.8133  0.1590 -0.2499
  175SAPI   H2X19872   1.340   3.410   7.081  0.7135 -0.9169  1.4370
  175SAPI   H2Y19873   1.519   3.417   7.029  1.3552 -0.3397  0.5828
  175SAPI   C2319874   0.999   3.529   6.819 -0.0696  0.0196 -0.6841
  175SAPI   H3R19875   0.926   3.612   6.822  0.6093  0.6437 -1.1388
  175SAPI   H3S19876   1.085   3.575   6.767 -2.2210  3.1533 -1.7729
  175SAPI   C2419877   1.041   3.482   6.955 -0.0408 -0.0952 -0.5612
  175SAPI   H4R19878   1.118   3.402   6.946 -0.7612 -0.7534 -0.9438
  175SAPI   H4S19879   0.958   3.419   6.993  0.0752 -0.1562 -0.4095
  175SAPI   C2519880   1.079   3.593   7.048 -0.3895  0.3894 -0.5469
  175SAPI   H5R19881   1.126   3.678   6.998  1.4047  0.3332  0.9608
  175SAPI   C2619882   1.049   3.595   7.178  0.6863 -0.2500  0.1898
  175SAPI   H6R19883   1.092   3.684   7.227 -0.2743  2.3707 -3.3074
  175SAPI   C2719884   0.978   3.495   7.257 -0.4935  0.3137 -0.4858
  175SAPI   H7R19885   0.959   3.407   7.191 -3.3252  1.1420 -0.9108
  175SAPI   H7S19886   0.879   3.535   7.288 -1.1920 -1.3775 -0.3887
  175SAPI   C2819887   1.055   3.435   7.370  0.1422  0.2790  0.0409
  175SAPI   H8R19888   1.158   3.402   7.351 -0.6399 -2.2246 -0.2165
  175SAPI   C2919889   1.004   3.412   7.494  0.0389  1.0193 -0.2844
  175SAPI   H9R19890   1.075   3.371   7.567 -0.4772  0.7717  0.0809
  175SAPI  C21019891   0.870   3.450   7.543  0.9756 -0.0532 -0.2213
  175SAPI  H10R19892   0.790   3.443   7.467  1.8393  2.8122 -1.5120
  175SAPI  H10S19893   0.868   3.561   7.546  0.6935 -0.0536 -0.3958
  175SAPI  C21119894   0.817   3.393   7.675  0.2115 -0.0034  0.2223
  175SAPI  H11R19895   0.826   3.460   7.761 -1.6266  1.5729 -0.7529
  175SAPI  C21219896   0.770   3.272   7.691  0.7220  0.3447  0.1438
  175SAPI  H12R19897   0.719   3.253   7.786  0.9248  0.5841  0.3000
  175SAPI  C21319898   0.728   3.178   7.581  0.5192 -0.1445 -0.0927
  175SAPI  H13R19899   0.816   3.149   7.520  1.2009  1.3886  0.1178
  175SAPI  H13S19900   0.675   3.230   7.498  0.6515  0.7262  0.3581
  175SAPI  C21419901   0.653   3.056   7.622  0.0693 -0.0779  0.1913
  175SAPI  H14R19902   0.720   2.969   7.635  1.0441  0.6355  0.0848
  175SAPI  C21519903   0.516   3.038   7.644 -0.3370  0.2519  0.9157
  175SAPI  H15R19904   0.475   2.940   7.672  0.3014  0.1504  1.5171
  175SAPI  C21619905   0.423   3.147   7.641  0.4555 -0.1174 -0.2264
  175SAPI  H16R19906   0.350   3.126   7.560  1.2555  1.5892 -1.4331
  175SAPI  H16S19907   0.462   3.246   7.610 -0.6503  0.4246  0.0657
  175SAPI  C21719908   0.343   3.167   7.772 -0.7669 -0.4677 -0.0606
  175SAPI  H17R19909   0.300   3.066   7.790 -1.5616 -0.2319 -0.5833
  175SAPI  H17S19910   0.261   3.239   7.750  0.9495  1.4912 -0.4022
  175SAPI  C21819911   0.421   3.219   7.891  0.3754 -0.5081  0.0453
  175SAPI  H18R19912   0.467   3.319   7.877 -0.0799 -0.3876 -0.6273
  175SAPI  H18S19913   0.512   3.158   7.911  0.6480 -0.7528 -1.8038
  175SAPI  C21919914   0.339   3.208   8.022 -0.1216 -0.2370 -0.4212
  175SAPI  H19R19915   0.408   3.246   8.100 -0.6499  2.7249 -1.2580
  175SAPI  H19S19916   0.329   3.103   8.056 -0.4186  0.0346  0.3593
  175SAPI  C22019917   0.210   3.286   8.032  0.1689 -0.8206  0.1428
  175SAPI  H20R19918   0.136   3.253   7.956 -0.6707 -1.8331  1.3550
  175SAPI  H20S19919   0.234   3.394   8.032 -0.8139 -0.5846  0.7980
  175SAPI  H20T19920   0.149   3.268   8.123 -0.6591  1.8738  0.2195
  175SAPI   C3319921   1.464   3.271   7.182 -0.4108  0.2815  0.6798
  175SAPI   H3X19922   1.568   3.235   7.169 -0.0094  1.9765 -1.4370
  175SAPI   H3Y19923   1.388   3.192   7.199  1.0592 -1.3621 -0.1124
  175SAPI   C3419924   1.465   3.359   7.305 -0.0465 -0.4743  0.2992
  175SAPI   H4X19925   1.367   3.409   7.313  0.3195  0.2389  0.4116
  175SAPI   H4Y19926   1.538   3.442   7.291 -0.1111 -0.5307 -0.4184
  175SAPI   C3519927   1.499   3.283   7.426 -0.6004 -0.0534 -0.3552
  175SAPI   H5X19928   1.594   3.226   7.413  0.9278  1.8997  1.5515
  175SAPI   H5Y19929   1.413   3.216   7.448 -0.0894 -1.0704 -1.3602
  175SAPI   C3619930   1.518   3.370   7.549  0.1384  0.0018  0.0297
  175SAPI   H6X19931   1.441   3.451   7.554 -1.4305 -1.4504  0.1398
  175SAPI   H6Y19932   1.616   3.421   7.558  0.1174  0.0479  0.0001
  175SAPI   C3719933   1.484   3.289   7.682 -0.2304  0.2529 -0.2762
  175SAPI   H7X19934   1.499   3.361   7.765 -0.2904  0.4854 -0.4669
  175SAPI   H7Y19935   1.549   3.200   7.698 -1.1685 -0.1515  1.4967
  175SAPI   C3819936   1.335   3.247   7.691  0.0214 -0.9126  0.0959
  175SAPI   H8X19937   1.319   3.168   7.614 -0.9303 -1.4412  0.8153
  175SAPI   H8Y19938   1.280   3.335   7.653  0.5847 -0.4696  0.3024
  175SAPI   C3919939   1.290   3.228   7.830  0.0650  0.4033  0.1897
  175SAPI   H9X19940   1.342   3.301   7.897  0.6206  0.2486 -0.0673
  175SAPI   H9Y19941   1.326   3.127   7.856 -1.1637 -0.6968 -2.0914
  175SAPI  C31019942   1.140   3.243   7.841 -0.3721  0.2626 -0.4519
  175SAPI  H10X19943   1.094   3.198   7.750 -0.9939  1.9777 -1.0251
  175SAPI  H10Y19944   1.121   3.352   7.830  2.0537  0.7732 -0.0765
  175SAPI  C31119945   1.079   3.188   7.963  0.0427  0.7761  0.3319
  175SAPI  H11X19946   0.969   3.180   7.953  0.2708 -1.4707 -0.8770
  175SAPI  H11Y19947   1.110   3.246   8.053  0.9870  0.4983  0.1924
  175SAPI  C31219948   1.125   3.042   8.008  0.6540 -0.0131 -0.8762
  175SAPI  H12X19949   1.234   3.041   8.028  0.7780  0.0232 -1.5083
  175SAPI  H12Y19950   1.105   2.972   7.924  0.5177 -0.5386 -0.4139
  175SAPI  C31319951   1.045   2.984   8.122  0.2086 -0.1066  0.6146
  175SAPI  H13X19952   0.935   2.994   8.107  0.3526 -0.8751 -1.3150
  175SAPI  H13Y19953   1.071   3.053   8.205 -1.9281  2.0234 -0.3338
  175SAPI  C31419954   1.082   2.834   8.154 -0.3305  0.1376 -0.4985
  175SAPI  H14X19955   1.042   2.799   8.252 -1.2061 -0.8768 -1.1905
  175SAPI  H14Y19956   1.193   2.833   8.159 -0.3051  1.1944 -0.6060
  175SAPI  C31519957   1.027   2.723   8.064 -0.2662  0.5286  0.2956
  175SAPI  H15X19958   0.989   2.764   7.968  1.1500 -2.2282 -1.5721
  175SAPI  H15Y19959   0.945   2.663   8.110  0.3583  0.0675  0.8287
  175SAPI  C31619960   1.143   2.632   8.024  0.7111  0.3647 -0.3952
  175SAPI  H16X19961   1.203   2.609   8.115  2.3712  2.1949 -0.9693
  175SAPI  H16Y19962   1.207   2.694   7.959  0.1697 -0.1733 -1.4605
  175SAPI  C31719963   1.110   2.496   7.952  0.1665  0.2144 -0.6429
  175SAPI  H17X19964   1.041   2.498   7.865 -1.3803  0.4092  0.5565
  175SAPI  H17Y19965   1.061   2.440   8.034 -0.4035  1.3652 -0.1841
  175SAPI  C31819966   1.228   2.409   7.910  0.6291 -0.0767 -0.0133
  175SAPI  H18X19967   1.295   2.410   7.999 -2.0041  3.6893  2.2482
  175SAPI  H18Y19968   1.272   2.462   7.823 -1.8041  2.6360  0.2514
  175SAPI  H18Z19969   1.196   2.305   7.892 -0.8044  0.6220 -1.8248
  176SAPI   C1219970   0.583   1.555   6.578  0.2946 -0.1237 -0.7780
  176SAPI    H219971   0.633   1.591   6.671 -0.0172  0.3787 -0.8005
  176SAPI    O219972   0.552   1.415   6.594  0.2556 -0.5689 -0.2430
  176SAPI   HO219973   0.632   1.371   6.626 -0.1523 -0.3416  1.1549
  176SAPI   C1319974   0.446   1.627   6.556 -0.7766 -0.3167 -1.0980
  176SAPI    H319975   0.467   1.732   6.526  1.5324  0.0836  1.4590
  176SAPI    O319976   0.380   1.641   6.683 -0.6322  0.0581 -0.4290
  176SAPI   HO319977   0.362   1.554   6.720 -1.3583  0.4396  0.1107
  176SAPI   C1419978   0.363   1.557   6.452 -0.0149 -0.1777  0.2841
  176SAPI    H419979   0.338   1.452   6.477 -0.2623 -0.0800  0.4563
  176SAPI    O419980   0.244   1.623   6.429  1.1028  0.2308 -0.0537
  176SAPI   HO419981   0.179   1.553   6.442  0.2762  1.2724  1.9751
  176SAPI   C1519982   0.445   1.562   6.317 -0.5542 -0.9977  0.2749
  176SAPI    H519983   0.422   1.661   6.271 -1.4681 -2.6418 -3.0889
  176SAPI    O519984   0.399   1.474   6.222 -0.4528  0.1664 -0.2367
  176SAPI   HO519985   0.308   1.452   6.244  0.4910 -1.0063  3.2715
  176SAPI   C1619986   0.606   1.564   6.327  0.2689  0.0140  0.9450
  176SAPI    H619987   0.621   1.459   6.294 -1.8266 -0.2506  0.6760
  176SAPI    O619988   0.673   1.640   6.227 -0.1133  0.0046 -0.1587
  176SAPI   HO619989   0.659   1.733   6.247 -0.3534 -0.5303  2.4813
  176SAPI   C1119990   0.680   1.576   6.456 -0.7496  0.0600 -0.1119
  176SAPI    H119991   0.698   1.684   6.468 -3.5590  0.3692  3.0413
  176SAPI     P19992   0.896   1.473   6.599  0.1849 -0.0725  0.1281
  176SAPI   O1319993   0.932   1.599   6.665 -0.2146 -0.1539  0.4226
  176SAPI   O1419994   1.008   1.404   6.540 -0.0634  0.1225 -0.2346
  176SAPI   O1219995   0.796   1.501   6.471  0.3479  0.1898  0.2506
  176SAPI   O1119996   0.815   1.383   6.694 -0.3904  0.3028 -0.6435
  176SAPI    C119997   0.865   1.295   6.795  0.6312  0.4814  0.6826
  176SAPI    HA19998   0.781   1.223   6.795  1.2216 -0.2962 -1.7928
  176SAPI    HB19999   0.959   1.250   6.755 -0.3009 -0.4024 -0.5818
  176SAPI    C220000   0.877   1.365   6.940 -0.1232  0.0075 -0.1911
  176SAPI    HS20001   0.889   1.282   7.012 -1.8747 -0.9900 -0.9747
  176SAPI   O2120002   0.766   1.453   6.968 -0.2042  0.3991 -0.0112
  176SAPI   C2120003   0.647   1.396   6.972  0.1653  0.1582 -1.0623
  176SAPI   O2220004   0.630   1.277   6.972 -0.1925  0.5558 -0.1937
  176SAPI   C2220005   0.542   1.500   7.002  0.8209 -0.3425 -0.1966
  176SAPI   H2R20006   0.551   1.564   6.911  2.2708  0.4104  0.4401
  176SAPI   H2S20007   0.445   1.447   7.014 -0.1957  1.4078 -0.3621
  176SAPI    C320008   1.006   1.447   6.953  0.3332 -0.0381 -0.5474
  176SAPI    HX20009   0.993   1.535   6.887 -2.5691 -0.0197 -0.0748
  176SAPI    HY20010   1.094   1.399   6.905  1.1165 -0.5863  1.3269
  176SAPI   O3120011   1.018   1.497   7.089  0.6927  0.0756 -0.3212
  176SAPI   C3120012   0.975   1.621   7.112 -0.1151 -0.3655  0.9050
  176SAPI   O3220013   0.939   1.705   7.029 -0.0980  0.3165  0.6919
  176SAPI   C3220014   0.970   1.649   7.255  0.2861  0.2211 -0.3949
  176SAPI   H2X20015   1.074   1.642   7.293  0.0268  1.3243  0.5622
  176SAPI   H2Y20016   0.897   1.578   7.298 -2.7250  2.0617 -2.1379
  176SAPI   C2320017   0.576   1.564   7.134  0.2496 -0.9234 -0.4129
  176SAPI   H3R20018   0.683   1.594   7.131  0.6028 -1.9312  0.9336
  176SAPI   H3S20019   0.580   1.491   7.218  1.4974 -0.0486  0.3199
  176SAPI   C2420020   0.504   1.700   7.164 -0.6806 -1.0309 -0.0198
  176SAPI   H4R20021   0.566   1.778   7.114  1.3181 -1.7755  1.1675
  176SAPI   H4S20022   0.518   1.708   7.274 -0.5685 -2.4362  0.0898
  176SAPI   C2520023   0.366   1.704   7.105 -0.2650 -0.2165 -0.6328
  176SAPI   H5R20024   0.367   1.680   6.997  1.9200  1.2999 -1.0181
  176SAPI   C2620025   0.257   1.724   7.179 -1.1730 -0.4368  0.2770
  176SAPI   H6R20026   0.156   1.712   7.136 -2.4100 -1.3456  3.2122
  176SAPI   C2720027   0.256   1.766   7.328 -0.7324  0.5533  0.5626
  176SAPI   H7R20028   0.197   1.859   7.341  1.8652  2.3304  0.2524
  176SAPI   H7S20029   0.359   1.804   7.347  0.5576 -1.3940 -1.9238
  176SAPI   C2820030   0.235   1.651   7.421  0.1193  0.2009 -0.2755
  176SAPI   H8R20031   0.228   1.549   7.380  0.9035 -0.1621  0.4560
  176SAPI   C2920032   0.186   1.670   7.546 -0.0061 -0.7900  0.3509
  176SAPI   H9R20033   0.166   1.579   7.606  2.3806 -1.4512  0.2465
  176SAPI  C21020034   0.183   1.795   7.634 -0.3418  0.0520  0.3547
  176SAPI  H10R20035   0.211   1.891   7.584  0.6528  1.0260  2.6256
  176SAPI  H10S20036   0.259   1.777   7.714  3.1797  1.0544 -2.4751
  176SAPI  C21120037   0.043   1.823   7.687 -0.4741  0.8738  0.0205
  176SAPI  H11R20038  -0.029   1.866   7.616 -0.5616  0.7650  0.0428
  176SAPI  C21220039   0.013   1.816   7.817  0.3822 -0.2258 -0.4228
  176SAPI  H12R20040  -0.085   1.857   7.846  0.2164 -0.7284 -0.2698
  176SAPI  C21320041   0.093   1.773   7.938 -0.7634 -0.4751 -0.2490
  176SAPI  H13R20042   0.195   1.743   7.908 -1.4045 -1.7865 -1.2558
  176SAPI  H13S20043   0.047   1.685   7.990  0.5538 -0.9711  0.1050
  176SAPI  C21420044   0.096   1.895   8.029 -0.5527 -0.7894 -0.2434
  176SAPI  H14R20045   0.025   1.978   8.014  0.3022 -0.3382 -2.0806
  176SAPI  C21520046   0.182   1.908   8.129  0.4642  0.6097 -0.0609
  176SAPI  H15R20047   0.190   2.003   8.184  0.4067  1.9832 -2.2815
  176SAPI  C21620048   0.284   1.818   8.176 -0.1461 -0.1124  0.1110
  176SAPI  H16R20049   0.373   1.883   8.189 -1.1862  1.5852 -0.9001
  176SAPI  H16S20050   0.297   1.735   8.103 -3.6008 -0.9525  0.2771
  176SAPI  C21720051   0.241   1.766   8.317  0.1865  0.2157  0.0037
  176SAPI  H17R20052   0.161   1.694   8.291 -0.5305  0.8494  0.4240
  176SAPI  H17S20053   0.198   1.840   8.388 -2.5999 -2.3002  1.1404
  176SAPI  C21820054   0.351   1.687   8.386 -0.6893 -0.3855  0.0383
  176SAPI  H18R20055   0.424   1.657   8.309 -0.6018  0.5293 -0.2435
  176SAPI  H18S20056   0.314   1.590   8.426  0.4969 -0.6082  0.6321
  176SAPI  C21920057   0.419   1.771   8.496  0.3368  0.0942 -0.1780
  176SAPI  H19R20058   0.496   1.718   8.556 -0.8590  0.1336  1.4678
  176SAPI  H19S20059   0.345   1.791   8.577 -1.2061  0.0842 -1.5235
  176SAPI  C22020060   0.489   1.896   8.450 -0.3386 -0.4588 -0.5811
  176SAPI  H20R20061   0.421   1.959   8.389  3.0144  3.3240 -0.8323
  176SAPI  H20S20062   0.573   1.880   8.380 -0.4051  1.0139 -1.0474
  176SAPI  H20T20063   0.531   1.956   8.533 -0.5963  2.0494 -2.1477
  176SAPI   C3320064   0.916   1.794   7.293  0.3591 -0.1481 -0.3571
  176SAPI   H3X20065   0.826   1.817   7.233 -0.3850  1.0101  1.1221
  176SAPI   H3Y20066   0.979   1.880   7.262  1.0486 -0.4352  0.2215
  176SAPI   C3420067   0.886   1.806   7.446 -0.3556 -0.7793  0.5704
  176SAPI   H4X20068   0.860   1.913   7.462  0.0964 -0.5495 -0.1986
  176SAPI   H4Y20069   0.978   1.781   7.501  0.3703 -0.1782 -0.3386
  176SAPI   C3520070   0.768   1.730   7.495  0.5784 -0.3374 -0.4733
  176SAPI   H5X20071   0.777   1.622   7.470 -1.7078 -0.0233 -3.1184
  176SAPI   H5Y20072   0.677   1.768   7.446  0.9862  1.1759 -0.1145
  176SAPI   C3620073   0.738   1.745   7.645 -0.7326  0.2008 -0.0094
  176SAPI   H6X20074   0.704   1.848   7.668 -1.5409 -0.0004 -0.2837
  176SAPI   H6Y20075   0.835   1.727   7.696 -1.6194 -0.0888  1.6219
  176SAPI   C3720076   0.615   1.667   7.700 -0.3260 -0.3479  0.4880
  176SAPI   H7X20077   0.625   1.559   7.676  4.0907 -0.1587  0.6562
  176SAPI   H7Y20078   0.534   1.704   7.634  0.4848 -1.1727 -1.0409
  176SAPI   C3820079   0.588   1.682   7.856 -0.5400 -0.1435  0.4876
  176SAPI   H8X20080   0.479   1.662   7.863 -0.3841 -0.7234  1.4022
  176SAPI   H8Y20081   0.604   1.789   7.881  0.9792  0.3241 -2.1563
  176SAPI   C3920082   0.681   1.603   7.947  0.5052 -0.0315  0.5119
  176SAPI   H9X20083   0.788   1.609   7.917  0.4835  0.0756  0.4555
  176SAPI   H9Y20084   0.651   1.498   7.926  1.0537 -0.2375  0.7564
  176SAPI  C31020085   0.662   1.637   8.096 -0.3762 -0.3001  0.1665
  176SAPI  H10X20086   0.559   1.617   8.132 -0.3194 -1.3178 -0.2097
  176SAPI  H10Y20087   0.684   1.746   8.093  0.6634 -0.4561  1.4541
  176SAPI  C31120088   0.768   1.567   8.184 -0.0133 -0.0306 -0.1989
  176SAPI  H11X20089   0.872   1.602   8.165  1.4076 -2.6276  2.1170
  176SAPI  H11Y20090   0.760   1.459   8.159  0.5432 -0.3292  0.8632
  176SAPI  C31220091   0.744   1.565   8.336  0.7935 -0.2268  0.1441
  176SAPI  H12X20092   0.640   1.531   8.353  0.4023 -0.5536 -2.5227
  176SAPI  H12Y20093   0.774   1.664   8.375 -1.1693 -0.0683  1.3485
  176SAPI  C31320094   0.840   1.472   8.420  0.2061 -0.3313 -0.0506
  176SAPI  H13X20095   0.943   1.512   8.403  0.7749 -0.7897  2.0519
  176SAPI  H13Y20096   0.818   1.370   8.382  0.7962 -1.1234  1.6409
  176SAPI  C31420097   0.801   1.475   8.558 -0.5851  0.8193 -0.4464
  176SAPI  H14X20098   0.693   1.461   8.577  0.0213 -0.9732  2.3516
  176SAPI  H14Y20099   0.837   1.572   8.599 -1.1537  0.5991  0.6339
  176SAPI  C31520100   0.863   1.370   8.651 -0.1379 -0.0071 -0.1559
  176SAPI  H15X20101   0.969   1.390   8.675  1.4339 -3.4635 -3.1094
  176SAPI  H15Y20102   0.867   1.271   8.599 -0.7274 -1.4410  2.3797
  176SAPI  C31620103   0.778   1.380   8.781 -0.1519  0.3676  0.1560
  176SAPI  H16X20104   0.687   1.317   8.786  0.2564 -0.1355  3.4139
  176SAPI  H16Y20105   0.740   1.484   8.772 -3.0263 -0.7521 -3.7100
  176SAPI  C31720106   0.868   1.357   8.906 -1.1051 -0.0532 -0.4993
  176SAPI  H17X20107   0.818   1.395   8.998 -1.8210 -0.0777 -0.8741
  176SAPI  H17Y20108   0.961   1.419   8.905 -0.0597 -1.4416  1.8181
  176SAPI  C31820109   0.907   1.213   8.929 -0.7002 -0.4542 -0.3357
  176SAPI  H18X20110   0.821   1.153   8.962 -1.1975  0.2301 -0.3691
  176SAPI  H18Y20111   0.974   1.211   9.018 -1.6794  0.2853  0.4443
  176SAPI  H18Z20112   0.959   1.172   8.840  1.5357  1.9972 -0.2882
  177SLPC     N20113   6.804   5.189  11.086 -0.6669 -0.8030  0.0190
  177SLPC   C1320114   6.802   5.325  11.043 -0.4442 -0.0708  0.1120
  177SLPC  H13A20115   6.743   5.390  11.107 -0.4769 -0.9902  1.0513
  177SLPC  H13B20116   6.903   5.361  11.054  0.3554 -2.6736  2.8315
  177SLPC  H13C20117   6.764   5.341  10.943  0.1734  0.4998 -0.0330
  177SLPC   C1420118   6.814   5.185  11.238  0.5403  0.0910  0.5170
  177SLPC  H14A20119   6.833   5.092  11.291 -1.1235 -0.6162 -0.0487
  177SLPC  H14B20120   6.887   5.258  11.270  2.0898 -0.8849 -0.6348
  177SLPC  H14C20121   6.716   5.209  11.277 -0.2542 -0.3793 -1.0809
  177SLPC   C1520122   6.918   5.116  11.022 -0.5255  0.1039  0.4024
  177SLPC  H15A20123   6.915   5.009  11.037 -0.8700 -0.1051 -1.0134
  177SLPC  H15B20124   6.915   5.127  10.915  2.2807  3.2971  0.5021
  177SLPC  H15C20125   7.016   5.145  11.055 -0.0390 -2.5058  1.4914
  177SLPC   C1220126   6.680   5.112  11.051  0.8246 -0.3280  0.6461
  177SLPC  H12A20127   6.668   5.122  10.944  2.5455 -0.1973  0.4373
  177SLPC  H12B20128   6.597   5.168  11.091  2.9439  2.8041  1.0449
  177SLPC   C1120129   6.658   4.969  11.093 -0.6175  0.9369  0.0558
  177SLPC  H11A20130   6.552   4.939  11.078 -1.2540  1.5908  2.6038
  177SLPC  H11B20131   6.672   4.952  11.202  0.5775  1.3623 -0.0182
  177SLPC     P20132   6.699   4.800  10.901  0.2605 -0.1300 -0.1884
  177SLPC   O1320133   6.815   4.726  10.840 -0.4621 -0.0773  0.5613
  177SLPC   O1420134   6.582   4.721  10.951 -0.1442 -0.3945 -0.1601
  177SLPC   O1220135   6.751   4.886  11.017  0.2807 -0.3329  0.1813
  177SLPC   O1120136   6.647   4.909  10.801  0.2601 -0.1420  0.2658
  177SLPC    C120137   6.746   4.994  10.743  0.2148 -0.0353  0.0593
  177SLPC    HA20138   6.707   5.098  10.739 -1.0415 -0.5366 -1.3307
  177SLPC    HB20139   6.838   5.011  10.805 -0.1070  1.5083  0.1660
  177SLPC    C220140   6.782   4.954  10.594 -0.2890 -0.7480 -0.2161
  177SLPC    HS20141   6.860   4.875  10.594 -0.0995 -0.5625 -0.0436
  177SLPC   O2120142   6.824   5.075  10.526  0.3973  0.0510  0.6616
  177SLPC   C2120143   6.946   5.123  10.561 -0.2307  0.3233  0.4297
  177SLPC   O2220144   7.015   5.077  10.643 -0.3637  0.2166  0.2367
  177SLPC   C2220145   6.980   5.231  10.465 -0.6123 -1.0214  0.4478
  177SLPC   H2R20146   6.933   5.328  10.491  0.8207  0.3938 -1.8817
  177SLPC   H2S20147   7.091   5.243  10.469 -0.3441 -2.0784 -1.9334
  177SLPC    C320148   6.659   4.900  10.519  0.3226  0.3456  0.2763
  177SLPC    HX20149   6.576   4.970  10.543  0.1554  0.0734  0.5079
  177SLPC    HY20150   6.627   4.798  10.549  0.6054  0.1273 -0.1510
  177SLPC   O3120151   6.697   4.892  10.385  0.2832  0.5698 -0.1844
  177SLPC   C3120152   6.623   4.958  10.290  0.1649  0.1290 -0.3752
  177SLPC   O3220153   6.537   5.037  10.325  0.1456  0.1767  0.4445
  177SLPC   C3220154   6.679   4.917  10.154  0.1591  0.2434  0.5896
  177SLPC   H2X20155   6.690   4.807  10.157 -1.3714  0.0720  0.8831
  177SLPC   H2Y20156   6.779   4.964  10.150  0.6059 -0.6370  1.0644
  177SLPC   C2320157   6.945   5.208  10.317  0.2363 -0.2632  0.0785
  177SLPC   H3R20158   6.839   5.182  10.298  0.5127 -0.3218 -1.5194
  177SLPC   H3S20159   6.998   5.114  10.289  1.2065  0.1558  0.4659
  177SLPC   C2420160   6.992   5.328  10.230 -0.4865 -0.4154  0.0420
  177SLPC   H4R20161   7.093   5.357  10.264  1.1928 -2.8882 -2.4459
  177SLPC   H4S20162   6.939   5.424  10.250  2.5614  1.2714  0.5604
  177SLPC   C2520163   7.005   5.296  10.081 -0.0426  0.0447 -0.4169
  177SLPC   H5R20164   6.913   5.246  10.042  0.3600 -0.4267 -0.7671
  177SLPC   H5S20165   7.085   5.219  10.077  1.3010  1.3864 -0.0115
  177SLPC   C2620166   7.060   5.403   9.992 -0.8536  1.0356 -0.6204
  177SLPC   H6R20167   7.138   5.460  10.047  0.1739 -1.8014  1.0939
  177SLPC   H6S20168   6.979   5.472   9.961 -0.2163  1.9523 -0.2877
  177SLPC   C2720169   7.110   5.359   9.854  0.3952 -0.4598  0.2599
  177SLPC   H7R20170   7.048   5.278   9.811  0.7817 -0.7975  0.3248
  177SLPC   H7S20171   7.214   5.319   9.859  0.5619 -0.4190 -2.1205
  177SLPC   C2820172   7.115   5.473   9.746  0.3866  0.5246 -1.0130
  177SLPC   H8R20173   7.022   5.533   9.749  0.3807  0.4847 -0.0181
  177SLPC   H8S20174   7.123   5.424   9.646  1.9124  0.7236 -1.0201
  177SLPC   C2920175   7.231   5.555   9.781 -0.7352  0.5955 -0.3192
  177SLPC   H9R20176   7.239   5.579   9.888  1.3209  1.6132 -0.6328
  177SLPC  C21020177   7.322   5.605   9.699  0.3484 -0.1404  0.3525
  177SLPC  H10R20178   7.405   5.656   9.750  0.1009  1.5678 -0.8503
  177SLPC  C21120179   7.330   5.576   9.544  0.0129  0.3554 -0.4803
  177SLPC  H11R20180   7.244   5.519   9.503  0.3040 -0.0321 -0.5610
  177SLPC  H11S20181   7.320   5.673   9.490  1.3788  0.1501 -1.1614
  177SLPC  C21220182   7.450   5.499   9.497  0.6809 -1.0491  0.2441
  177SLPC  H12R20183   7.484   5.420   9.566  0.0377 -2.6394 -1.2040
  177SLPC  C21320184   7.520   5.529   9.384  0.0189  0.5944 -0.0394
  177SLPC  H13R20185   7.603   5.460   9.362 -0.4343  0.1292 -0.3187
  177SLPC  C21420186   7.504   5.640   9.282  0.5562  0.5507  0.0928
  177SLPC  H14R20187   7.586   5.712   9.304  1.0223 -0.5948  2.4847
  177SLPC  H14S20188   7.414   5.700   9.303  0.2716  0.2449 -0.2266
  177SLPC  C21520189   7.497   5.595   9.135 -0.3380 -0.0551  0.0055
  177SLPC  H15R20190   7.444   5.497   9.130 -0.6008  0.0374  0.7835
  177SLPC  H15S20191   7.602   5.590   9.098  0.1832  1.4338  1.1860
  177SLPC  C21620192   7.442   5.696   9.044  0.0252  0.0897  0.7194
  177SLPC  H16R20193   7.479   5.799   9.063  0.0238  0.0700  0.8321
  177SLPC  H16S20194   7.335   5.713   9.070 -0.2726  0.6084 -0.7359
  177SLPC  C21720195   7.451   5.658   8.894  0.0077  1.0872 -0.2109
  177SLPC  H17R20196   7.388   5.574   8.860  0.7388  0.7624 -0.7988
  177SLPC  H17S20197   7.560   5.643   8.875 -0.5104 -1.0891 -1.9452
  177SLPC  C21820198   7.405   5.769   8.805  0.1696  0.1115  0.4434
  177SLPC  H18R20199   7.463   5.863   8.817  2.1321 -0.8460 -0.9986
  177SLPC  H18S20200   7.298   5.794   8.822  0.2490  0.8749 -0.1168
  177SLPC  H18T20201   7.418   5.741   8.699 -0.1194 -0.5248  0.5769
  177SLPC   C3320202   6.603   4.976  10.035 -0.0054 -0.0937 -0.3290
  177SLPC   H3X20203   6.574   5.083  10.049  0.1504  0.0485 -1.0436
  177SLPC   H3Y20204   6.506   4.927  10.011 -0.4984 -0.9240  2.8187
  177SLPC   C3420205   6.679   4.976   9.903 -0.2340 -0.1981 -0.4156
  177SLPC   H4X20206   6.774   5.031   9.920 -0.5015  0.1235  0.0813
  177SLPC   H4Y20207   6.616   5.025   9.825  1.0729  1.4043 -0.5286
  177SLPC   C3520208   6.718   4.837   9.852 -0.4600 -0.6879 -0.4056
  177SLPC   H5X20209   6.624   4.779   9.842 -1.3301 -0.1158  3.1472
  177SLPC   H5Y20210   6.773   4.782   9.931 -1.2219  0.4416  0.9543
  177SLPC   C3620211   6.810   4.857   9.728  0.4711 -0.9410 -0.4100
  177SLPC   H6X20212   6.867   4.764   9.710  0.5274 -0.7779 -1.0840
  177SLPC   H6Y20213   6.892   4.927   9.755  0.4211 -0.7266 -0.8161
  177SLPC   C3720214   6.724   4.894   9.602  0.1093 -0.0666 -0.0694
  177SLPC   H7X20215   6.661   4.980   9.633  1.2750  0.4562  0.9569
  177SLPC   H7Y20216   6.648   4.820   9.570 -0.2046  0.8888 -1.6638
  177SLPC   C3820217   6.813   4.938   9.480 -0.0099 -0.9327  0.1250
  177SLPC   H8X20218   6.883   4.858   9.450  0.3972 -1.3518  2.0654
  177SLPC   H8Y20219   6.864   5.030   9.516 -1.3712 -0.7450  1.7003
  177SLPC   C3920220   6.724   4.961   9.353 -0.5033 -0.5203  0.1496
  177SLPC   H9X20221   6.635   5.026   9.371 -1.9405 -2.2328 -0.5030
  177SLPC   H9Y20222   6.693   4.863   9.310 -0.4713  0.0859 -1.3126
  177SLPC  C31020223   6.801   5.027   9.234 -0.2042 -0.2231 -0.1733
  177SLPC  H10X20224   6.868   4.952   9.186  3.0271  1.0436  2.0087
  177SLPC  H10Y20225   6.881   5.097   9.267 -0.5334  0.0252  0.1102
  177SLPC  C31120226   6.704   5.102   9.144 -0.3136 -0.3138  0.0168
  177SLPC  H11X20227   6.651   5.176   9.208  0.3682 -1.2032  1.6538
  177SLPC  H11Y20228   6.630   5.026   9.110 -1.4655  0.9614 -0.4297
  177SLPC  C31220229   6.763   5.177   9.024  0.5490 -0.2177 -0.2142
  177SLPC  H12X20230   6.816   5.108   8.954 -0.3160  0.1518 -1.2683
  177SLPC  H12Y20231   6.832   5.258   9.055  0.2817 -0.7206  1.8115
  177SLPC  C31320232   6.642   5.234   8.941 -0.4852 -0.2136  0.9982
  177SLPC  H13X20233   6.566   5.284   9.005  0.3401  3.3700 -0.5190
  177SLPC  H13Y20234   6.588   5.154   8.885  1.4604 -0.3523 -0.8059
  177SLPC  C31420235   6.682   5.334   8.828  0.6173 -0.1600  1.1017
  177SLPC  H14X20236   6.749   5.278   8.760  1.0088 -1.2630  2.3441
  177SLPC  H14Y20237   6.740   5.417   8.872  4.4446 -1.7284 -0.5441
  177SLPC  C31520238   6.552   5.387   8.757 -0.5061  0.0176  0.2283
  177SLPC  H15X20239   6.493   5.448   8.828 -1.5632  0.7900 -1.2643
  177SLPC  H15Y20240   6.483   5.308   8.721  1.1488 -0.7473 -1.4204
  177SLPC  C31620241   6.589   5.470   8.633  0.2058 -0.5356  0.6654
  177SLPC  H16X20242   6.624   5.393   8.562  1.3056 -1.6652  2.3673
  177SLPC  H16Y20243   6.673   5.540   8.652 -1.2391  2.7460 -3.4521
  177SLPC  C31720244   6.467   5.543   8.581  0.2696  0.7551  0.3394
  177SLPC  H17X20245   6.391   5.480   8.531  0.8853  0.3164 -0.0629
  177SLPC  H17Y20246   6.511   5.597   8.495  2.1746 -2.9118 -1.1934
  177SLPC  C31820247   6.407   5.638   8.680 -0.0339 -0.4690 -0.4937
  177SLPC  H18X20248   6.477   5.716   8.717  2.3627 -2.7919  0.1411
  177SLPC  H18Y20249   6.352   5.587   8.761 -1.2964 -2.5570 -2.5277
  177SLPC  H18Z20250   6.325   5.691   8.627  0.1906  1.3951  0.9205
  178SLPC     N20251   2.808   0.506  11.031  0.4564 -0.0344 -0.0563
  178SLPC   C1320252   2.778   0.364  11.071 -0.5217  0.6110  0.5581
  178SLPC  H13A20253   2.797   0.288  10.997 -1.5872  1.9951 -1.2387
  178SLPC  H13B20254   2.833   0.340  11.160  0.9077  2.7533  0.3519
  178SLPC  H13C20255   2.674   0.346  11.097 -0.9627 -0.2236 -1.5470
  178SLPC   C1420256   2.955   0.528  11.022  0.8266  0.1096  0.2773
  178SLPC  H14A20257   3.009   0.493  11.109  1.7628 -0.4867 -0.5165
  178SLPC  H14B20258   2.994   0.465  10.943  1.3276  1.0305 -0.2305
  178SLPC  H14C20259   2.977   0.630  10.994  2.2530 -0.5972 -1.3437
  178SLPC   C1520260   2.752   0.592  11.143 -0.1591 -0.6752  0.9248
  178SLPC  H15A20261   2.805   0.683  11.168  0.4313 -0.8986  0.4974
  178SLPC  H15B20262   2.648   0.615  11.127  0.0136 -0.9035 -0.6254
  178SLPC  H15C20263   2.756   0.541  11.239 -0.4019  0.0583  1.3340
  178SLPC   C1220264   2.736   0.550  10.901 -0.0696 -0.2503  0.2115
  178SLPC  H12A20265   2.775   0.498  10.815  1.9051  1.2156  0.1405
  178SLPC  H12B20266   2.751   0.655  10.883 -1.5132  0.4673  2.7334
  178SLPC   C1120267   2.591   0.530  10.899 -0.0022  0.3141  0.5041
  178SLPC  H11A20268   2.568   0.428  10.937  0.4904 -0.8162 -2.0583
  178SLPC  H11B20269   2.551   0.507  10.798 -0.7828 -0.4670  0.9673
  178SLPC     P20270   2.514   0.779  10.928  0.5265  0.0286 -0.1055
  178SLPC   O1320271   2.488   0.851  11.050  0.2197  0.1103  0.6520
  178SLPC   O1420272   2.637   0.817  10.853  0.4050  0.4520  0.2700
  178SLPC   O1220273   2.513   0.624  10.966 -0.3482 -0.4696 -0.3787
  178SLPC   O1120274   2.392   0.804  10.832  0.7930  0.2352 -0.1186
  178SLPC    C120275   2.263   0.749  10.860 -0.2848  0.6213 -0.0767
  178SLPC    HA20276   2.255   0.702  10.960  0.8062  0.7543  0.0821
  178SLPC    HB20277   2.182   0.825  10.869 -1.1441 -0.2440 -0.2545
  178SLPC    C220278   2.212   0.651  10.753 -0.1864 -0.0488 -0.4180
  178SLPC    HS20279   2.297   0.584  10.726  0.1692  0.5878 -0.8809
  178SLPC   O2120280   2.158   0.728  10.644  0.1790 -0.3465 -0.9680
  178SLPC   C2120281   2.184   0.689  10.517  0.7626 -0.4883 -0.6841
  178SLPC   O2220282   2.228   0.586  10.486  0.0755  0.0210  0.7250
  178SLPC   C2220283   2.161   0.807  10.421  0.7798 -0.1084 -0.0549
  178SLPC   H2R20284   2.059   0.844  10.440  1.5057  1.9265  0.1241
  178SLPC   H2S20285   2.229   0.883  10.464 -1.7308  1.6858  0.9635
  178SLPC    C320286   2.101   0.558  10.815 -0.1809 -0.0624  0.2101
  178SLPC    HX20287   2.016   0.604  10.869  0.7298  1.4652  0.3974
  178SLPC    HY20288   2.147   0.505  10.902 -1.5608 -0.5931  0.6559
  178SLPC   O3120289   2.047   0.459  10.729  0.5285 -0.6593  0.0982
  178SLPC   C3120290   1.970   0.476  10.628 -0.5392 -0.5270 -0.5416
  178SLPC   O3220291   1.915   0.582  10.597  0.0184  0.1511 -0.8598
  178SLPC   C3220292   1.973   0.345  10.550 -0.8055 -0.4114  0.2623
  178SLPC   H2X20293   1.909   0.282  10.616  0.8012 -1.4486  0.8980
  178SLPC   H2Y20294   2.075   0.306  10.531 -0.5910  0.1787  0.1878
  178SLPC   C2320295   2.183   0.776  10.272  0.2021  0.5277 -0.3157
  178SLPC   H3R20296   2.105   0.711  10.226  1.1159  0.5265 -1.9416
  178SLPC   H3S20297   2.281   0.724  10.264 -0.0085 -0.7452  3.3500
  178SLPC   C2420298   2.185   0.903  10.181  1.3850  0.6967 -0.5144
  178SLPC   H4R20299   2.288   0.944  10.195  1.2694  0.9968 -0.5227
  178SLPC   H4S20300   2.106   0.969  10.222  2.8130  0.7091  2.4760
  178SLPC   C2520301   2.138   0.877  10.034  0.0326 -0.2182 -0.8576
  178SLPC   H5R20302   2.135   0.969   9.971 -0.4542  0.2191 -0.2044
  178SLPC   H5S20303   2.036   0.834  10.035 -1.1150  2.0235  3.5813
  178SLPC   C2620304   2.236   0.790   9.951 -0.8328 -0.3526  0.3804
  178SLPC   H6R20305   2.243   0.692  10.003  1.3548 -0.2585  0.3416
  178SLPC   H6S20306   2.339   0.831   9.937 -1.4921  0.6826 -2.1389
  178SLPC   C2720307   2.190   0.768   9.807 -0.2172  1.1659 -0.8106
  178SLPC   H7R20308   2.165   0.864   9.756  0.9176  2.3264  0.7316
  178SLPC   H7S20309   2.093   0.714   9.803 -1.1385  2.5295  1.4367
  178SLPC   C2820310   2.285   0.681   9.716  0.0354 -0.2263 -0.6495
  178SLPC   H8R20311   2.308   0.591   9.777 -2.0256 -0.0630  0.4449
  178SLPC   H8S20312   2.380   0.738   9.707 -0.5610  0.9629  0.3183
  178SLPC   C2920313   2.223   0.632   9.584 -0.0255  0.0396 -0.3289
  178SLPC   H9R20314   2.202   0.525   9.573 -1.5751  0.1460  1.2039
  178SLPC  C21020315   2.181   0.713   9.488 -0.6332  0.4427  0.7874
  178SLPC  H10R20316   2.133   0.660   9.405  1.9345 -0.9413  0.0796
  178SLPC  C21120317   2.202   0.865   9.460  0.3820  0.7459 -0.8411
  178SLPC  H11R20318   2.304   0.877   9.416  0.4082  0.5022 -0.8486
  178SLPC  H11S20319   2.206   0.919   9.557  1.5065 -2.2915  0.9582
  178SLPC  C21220320   2.093   0.922   9.378 -0.3229 -0.0218  0.3645
  178SLPC  H12R20321   1.992   0.940   9.420 -0.4509 -0.9794  0.4784
  178SLPC  C21320322   2.105   0.944   9.245 -0.3608 -0.6841 -0.7230
  178SLPC  H13R20323   2.013   0.987   9.202 -0.9845 -2.8440 -1.6726
  178SLPC  C21420324   2.219   0.899   9.154 -0.6701 -0.5100  0.0184
  178SLPC  H14R20325   2.176   0.830   9.079 -0.4979 -2.6899  1.7995
  178SLPC  H14S20326   2.298   0.851   9.216 -0.8045  2.6247  2.9100
  178SLPC  C21520327   2.277   1.020   9.079 -1.0901 -0.3424  0.5570
  178SLPC  H15R20328   2.353   0.970   9.015 -2.0485 -2.0681  0.6964
  178SLPC  H15S20329   2.337   1.078   9.152  2.4797 -0.6740 -1.8476
  178SLPC  C21620330   2.185   1.117   9.003 -0.2920 -0.3759  0.1980
  178SLPC  H16R20331   2.124   1.169   9.080 -0.7083 -1.1739  0.4097
  178SLPC  H16S20332   2.110   1.056   8.947 -0.3351 -2.9231  2.8099
  178SLPC  C21720333   2.279   1.207   8.926  0.5756  0.4806  0.3187
  178SLPC  H17R20334   2.349   1.160   8.853  0.0639 -0.7740  0.6056
  178SLPC  H17S20335   2.352   1.251   8.998  1.5026 -0.3837 -0.0614
  178SLPC  C21820336   2.203   1.328   8.869  0.3902  0.0105  0.3979
  178SLPC  H18R20337   2.097   1.303   8.846  0.2354  0.2659  0.8196
  178SLPC  H18S20338   2.252   1.379   8.784  0.6715 -0.0456  0.5257
  178SLPC  H18T20339   2.207   1.399   8.955 -2.0450  0.6129  0.1053
  178SLPC   C3320340   1.896   0.358  10.420  0.9419  0.7613  0.1014
  178SLPC   H3X20341   1.794   0.400  10.420  0.3324 -0.6380 -1.2269
  178SLPC   H3Y20342   1.886   0.254  10.383 -0.3762  1.6983 -2.3520
  178SLPC   C3420343   1.979   0.436  10.318  0.1891  0.7123 -0.3025
  178SLPC   H4X20344   2.078   0.386  10.311 -1.2553 -2.3345 -0.3462
  178SLPC   H4Y20345   2.001   0.540  10.351 -0.4390  0.6508  0.3302
  178SLPC   C3520346   1.921   0.419  10.180  1.1449 -0.5208  0.9750
  178SLPC   H5X20347   1.894   0.312  10.167  1.5315 -0.7485  1.9186
  178SLPC   H5Y20348   1.994   0.433  10.098  0.2404  0.0870  0.2582
  178SLPC   C3620349   1.804   0.516  10.161 -0.2508  0.0834  0.2744
  178SLPC   H6X20350   1.839   0.620  10.178 -1.2547  0.4968 -0.1712
  178SLPC   H6Y20351   1.727   0.498  10.240  0.1055 -1.2777  0.3365
  178SLPC   C3720352   1.746   0.520  10.019  0.1263  0.1196 -0.3326
  178SLPC   H7X20353   1.706   0.624  10.014  0.7261  0.3963  0.5316
  178SLPC   H7Y20354   1.668   0.444   9.994  2.3230 -2.6895  0.8530
  178SLPC   C3820355   1.837   0.513   9.895  0.7011 -0.0120  0.3031
  178SLPC   H8X20356   1.898   0.419   9.893  2.7763  1.2691  0.2591
  178SLPC   H8Y20357   1.913   0.594   9.893  0.7481 -0.0580 -1.4800
  178SLPC   C3920358   1.759   0.528   9.772  0.5217 -0.1767 -0.5995
  178SLPC   H9X20359   1.693   0.617   9.772 -0.5870 -0.9496  0.8766
  178SLPC   H9Y20360   1.685   0.448   9.749 -0.5724  0.3825  0.8616
  178SLPC  C31020361   1.848   0.545   9.643  0.1834 -0.3645 -0.4067
  178SLPC  H10X20362   1.936   0.477   9.649  0.4146 -0.1781 -1.4865
  178SLPC  H10Y20363   1.896   0.645   9.645  1.2335 -0.8480 -0.8242
  178SLPC  C31120364   1.777   0.537   9.504  0.3138  0.3744 -0.1182
  178SLPC  H11X20365   1.692   0.609   9.495 -0.6798 -0.6519  0.6972
  178SLPC  H11Y20366   1.730   0.437   9.494 -1.5427  1.2081 -0.1636
  178SLPC  C31220367   1.876   0.567   9.394  0.6052  0.1644  0.5904
  178SLPC  H12X20368   1.977   0.523   9.411  1.1422  1.6407  1.4468
  178SLPC  H12Y20369   1.902   0.675   9.387  3.8914 -0.5849 -0.2928
  178SLPC  C31320370   1.849   0.512   9.255  0.4032 -0.5352 -0.4491
  178SLPC  H13X20371   1.848   0.402   9.265 -3.3451 -0.6638 -0.8472
  178SLPC  H13Y20372   1.928   0.525   9.178  0.2284 -1.8725 -0.8791
  178SLPC  C31420373   1.707   0.562   9.207 -0.4747 -0.8078 -0.7634
  178SLPC  H14X20374   1.695   0.672   9.213  1.7707 -0.5826  0.6738
  178SLPC  H14Y20375   1.638   0.502   9.269  0.9827 -0.4882  1.2491
  178SLPC  C31520376   1.696   0.531   9.053 -0.3813 -0.3520  0.6187
  178SLPC  H15X20377   1.755   0.444   9.019  1.1172  0.7475  0.3143
  178SLPC  H15Y20378   1.592   0.509   9.021 -0.7346  0.5816  1.0758
  178SLPC  C31620379   1.748   0.652   8.964 -0.2081  0.5619  0.2458
  178SLPC  H16X20380   1.784   0.613   8.867  0.9453 -1.5386  1.4234
  178SLPC  H16Y20381   1.837   0.694   9.017 -0.9011 -0.6572  2.5393
  178SLPC  C31720382   1.639   0.762   8.936 -1.0056  0.8674 -0.0626
  178SLPC  H17X20383   1.610   0.809   9.033  0.0947  0.1976  0.6136
  178SLPC  H17Y20384   1.549   0.712   8.894  0.5105 -1.4978 -0.7158
  178SLPC  C31820385   1.680   0.873   8.838  0.4483 -0.2238  0.1212
  178SLPC  H18X20386   1.597   0.926   8.786  2.1522  1.5178 -0.9500
  178SLPC  H18Y20387   1.750   0.836   8.760 -0.7010 -0.6231 -0.7554
  178SLPC  H18Z20388   1.739   0.952   8.890  2.2314 -1.3722 -0.0941
  179SLPC     N20389   3.036   4.232  10.384 -0.2766 -0.2090  0.1281
  179SLPC   C1320390   2.970   4.312  10.489  0.0488  0.0889  0.1984
  179SLPC  H13A20391   2.876   4.273  10.525 -0.5029  1.2510  0.0494
  179SLPC  H13B20392   3.039   4.316  10.573 -1.4350  0.8407  1.4200
  179SLPC  H13C20393   2.951   4.415  10.465 -0.5077  0.2434  1.2806
  179SLPC   C1420394   3.175   4.301  10.366 -0.1575 -0.5413  0.3085
  179SLPC  H14A20395   3.226   4.246  10.288 -2.0681  0.1818 -1.5609
  179SLPC  H14B20396   3.161   4.399  10.323  0.9311 -0.8322 -0.7463
  179SLPC  H14C20397   3.226   4.299  10.461  1.5629  3.3480 -0.3411
  179SLPC   C1520398   2.959   4.238  10.269  0.6806  0.1975 -0.1963
  179SLPC  H15A20399   2.939   4.338  10.234  1.5792  0.2735 -0.5109
  179SLPC  H15B20400   3.004   4.183  10.187  1.1291 -0.3924  0.4434
  179SLPC  H15C20401   2.869   4.185  10.296  0.2944  1.4614  1.1035
  179SLPC   C1220402   3.049   4.086  10.434 -0.7391  0.3915  0.0387
  179SLPC  H12A20403   2.948   4.052  10.447 -0.9557  1.0706  0.1707
  179SLPC  H12B20404   3.103   4.105  10.526 -2.0673  0.1132  0.9111
  179SLPC   C1120405   3.134   3.983  10.350  0.0890 -0.4354 -0.3781
  179SLPC  H11A20406   3.109   3.999  10.242  2.0105 -0.2086 -0.8242
  179SLPC  H11B20407   3.105   3.881  10.384  0.5288 -0.3712  0.2024
  179SLPC     P20408   3.385   3.909  10.312  0.0428  0.0165 -0.2080
  179SLPC   O1320409   3.515   3.960  10.359  0.4043  0.2253  0.2711
  179SLPC   O1420410   3.351   3.768  10.333  0.1340  0.1205 -0.3158
  179SLPC   O1220411   3.271   4.001  10.373 -0.6263  0.0983 -0.2919
  179SLPC   O1120412   3.367   3.943  10.155 -0.3463  0.5874  0.1463
  179SLPC    C120413   3.406   4.075  10.114 -0.5159 -0.1049 -0.4618
  179SLPC    HA20414   3.369   4.150  10.187 -1.2734  1.3139 -2.2073
  179SLPC    HB20415   3.515   4.096  10.102 -0.2710 -0.8911  0.2762
  179SLPC    C220416   3.329   4.109   9.980  0.7416  0.1413 -0.3371
  179SLPC    HS20417   3.230   4.064  10.002  1.6509 -1.7583  0.0717
  179SLPC   O2120418   3.399   4.058   9.860 -0.1926 -0.2859 -0.4284
  179SLPC   C2120419   3.304   4.000   9.779  0.7754  0.5402  0.1829
  179SLPC   O2220420   3.181   3.995   9.799  0.1545  0.3353  0.1639
  179SLPC   C2220421   3.378   3.931   9.663 -0.4389  0.1656  0.0165
  179SLPC   H2R20422   3.480   3.975   9.659  0.1138 -1.1862 -2.6820
  179SLPC   H2S20423   3.381   3.822   9.684 -0.2682  0.2736  0.5767
  179SLPC    C320424   3.308   4.264   9.968  0.1531 -0.2884 -0.3262
  179SLPC    HX20425   3.403   4.312   9.936  0.7247 -1.2052 -0.0469
  179SLPC    HY20426   3.270   4.306  10.064  0.3019 -1.5221  0.2920
  179SLPC   O3120427   3.208   4.286   9.861 -0.4270  0.2848  0.0174
  179SLPC   C3120428   3.080   4.268   9.885 -0.7517  0.6822  0.2120
  179SLPC   O3220429   3.043   4.218   9.991  0.3238  0.4068 -0.1160
  179SLPC   C3220430   2.997   4.307   9.756 -0.3124 -0.0146 -0.6030
  179SLPC   H2X20431   3.027   4.412   9.734  0.5749  0.3624  2.0536
  179SLPC   H2Y20432   2.892   4.316   9.792 -0.3466 -0.9157 -0.4571
  179SLPC   C2320433   3.299   3.949   9.531  0.2000  0.2070  0.4954
  179SLPC   H3R20434   3.286   4.058   9.511 -2.5137  0.6179  3.6479
  179SLPC   H3S20435   3.191   3.925   9.541 -0.0685  1.4395  0.7476
  179SLPC   C2420436   3.372   3.885   9.408 -0.1602  0.6443 -0.2627
  179SLPC   H4R20437   3.362   3.777   9.432  1.4362 -0.1544 -2.7841
  179SLPC   H4S20438   3.481   3.908   9.411  0.1216 -0.3090 -2.0958
  179SLPC   C2520439   3.311   3.912   9.271  0.0395  0.2631  0.5935
  179SLPC   H5R20440   3.280   4.018   9.266  0.0028  0.2264 -4.1334
  179SLPC   H5S20441   3.209   3.868   9.278 -0.2664  0.6411 -1.1581
  179SLPC   C2620442   3.386   3.871   9.143  0.2467 -0.6411  0.0283
  179SLPC   H6R20443   3.422   3.767   9.160 -1.0715 -0.9933  0.8551
  179SLPC   H6S20444   3.479   3.923   9.114 -1.2420  0.1754 -3.9554
  179SLPC   C2720445   3.284   3.884   9.029 -0.0824 -0.4069  0.1112
  179SLPC   H7R20446   3.184   3.870   9.075 -0.4149  0.5803 -0.2752
  179SLPC   H7S20447   3.319   3.808   8.955  2.0434  1.6229 -1.1313
  179SLPC   C2820448   3.301   4.025   8.975  0.3947  0.2570 -0.0948
  179SLPC   H8R20449   3.411   4.045   8.978  0.1224  1.7808  0.6415
  179SLPC   H8S20450   3.256   4.103   9.040 -0.7167  0.8848 -1.5661
  179SLPC   C2920451   3.247   4.052   8.841 -1.1319  0.2765 -0.1404
  179SLPC   H9R20452   3.139   4.070   8.839 -1.3691 -1.0439 -0.3411
  179SLPC  C21020453   3.318   4.098   8.735  0.3930  0.0331 -0.4295
  179SLPC  H10R20454   3.260   4.121   8.644 -2.8467  1.0924  1.7145
  179SLPC  C21120455   3.466   4.087   8.719 -0.5317 -0.2301 -0.7368
  179SLPC  H11R20456   3.490   4.046   8.619  0.3917 -2.8716  0.4533
  179SLPC  H11S20457   3.503   4.009   8.789 -2.2386  0.0081  0.5009
  179SLPC  C21220458   3.537   4.217   8.740 -0.5979  0.8115  0.3674
  179SLPC  H12R20459   3.504   4.274   8.827 -2.4215  1.5671 -0.7707
  179SLPC  C21320460   3.630   4.285   8.670  0.7679 -0.0504  0.3724
  179SLPC  H13R20461   3.649   4.388   8.702 -1.1925  0.8543 -1.1117
  179SLPC  C21420462   3.688   4.249   8.535 -0.7993 -0.2896  0.5201
  179SLPC  H14R20463   3.660   4.331   8.465  1.4195  1.2250  1.2750
  179SLPC  H14S20464   3.641   4.156   8.498 -0.0578 -0.5325  0.1702
  179SLPC  C21520465   3.842   4.241   8.540 -0.2862 -0.1695  0.3653
  179SLPC  H15R20466   3.888   4.322   8.600 -1.9072  2.9117 -2.2622
  179SLPC  H15S20467   3.877   4.272   8.439 -0.8389 -0.4326  0.0888
  179SLPC  C21620468   3.898   4.109   8.587  0.7531  0.0646 -0.5738
  179SLPC  H16R20469   3.891   4.036   8.504 -1.6243  1.2082 -1.4602
  179SLPC  H16S20470   3.830   4.083   8.671  0.7121  2.2707  0.1271
  179SLPC  C21720471   4.033   4.124   8.652 -0.6192 -0.0749 -0.4818
  179SLPC  H17R20472   4.048   4.023   8.695 -0.2049  1.3491  3.0318
  179SLPC  H17S20473   4.037   4.201   8.732 -0.8128  0.1676 -0.7024
  179SLPC  C21820474   4.149   4.169   8.552 -0.0841  0.2581  0.1952
  179SLPC  H18R20475   4.143   4.274   8.515  3.6919  0.2107 -0.9710
  179SLPC  H18S20476   4.143   4.105   8.461 -2.5215  1.7176 -0.7650
  179SLPC  H18T20477   4.245   4.170   8.608 -0.2463  1.2316  0.4628
  179SLPC   C3320478   3.016   4.215   9.635 -0.1290 -0.8032 -0.0578
  179SLPC   H3X20479   2.985   4.115   9.671 -0.3064  0.1335  2.6128
  179SLPC   H3Y20480   3.126   4.213   9.621  0.0312 -0.1308  0.9683
  179SLPC   C3420481   2.939   4.247   9.515 -0.1696 -0.1587  0.3579
  179SLPC   H4X20482   2.950   4.356   9.498  1.2277 -0.1676  1.1324
  179SLPC   H4Y20483   2.834   4.211   9.523  0.1141 -1.9689 -2.4648
  179SLPC   C3520484   2.990   4.174   9.388 -0.2270  0.2685 -0.1837
  179SLPC   H5X20485   2.998   4.068   9.421  1.2635  0.0306 -1.1801
  179SLPC   H5Y20486   3.092   4.211   9.364 -1.1988  2.9134 -0.5761
  179SLPC   C3620487   2.901   4.188   9.272 -0.3207  0.6011  0.0151
  179SLPC   H6X20488   2.908   4.294   9.239  0.3509 -0.0654 -2.1439
  179SLPC   H6Y20489   2.796   4.173   9.305 -0.2440  1.0582  0.4737
  179SLPC   C3720490   2.940   4.104   9.157 -0.5006 -0.1117 -0.1551
  179SLPC   H7X20491   2.945   3.994   9.173 -2.0912 -0.2609 -0.5641
  179SLPC   H7Y20492   3.049   4.120   9.138 -0.1508 -0.7801  1.1667
  179SLPC   C3820493   2.872   4.141   9.032  1.3710 -0.5838  0.0315
  179SLPC   H8X20494   2.910   4.086   8.943  0.3678  0.3819 -1.0257
  179SLPC   H8Y20495   2.867   4.251   9.013  2.1388 -0.9133 -2.3636
  179SLPC   C3920496   2.720   4.108   9.039  0.2215  0.1673 -0.7648
  179SLPC   H9X20497   2.655   4.158   9.114  0.6778 -0.9333  0.4107
  179SLPC   H9Y20498   2.719   3.998   9.058  1.5359  0.4568  1.2346
  179SLPC  C31020499   2.653   4.142   8.906  0.4791  0.0027  0.2136
  179SLPC  H10X20500   2.733   4.135   8.830 -0.1282 -0.2935 -0.4126
  179SLPC  H10Y20501   2.613   4.244   8.918  2.0588  0.4675  1.9292
  179SLPC  C31120502   2.545   4.049   8.861  0.1703 -0.4917 -0.2770
  179SLPC  H11X20503   2.505   4.087   8.765 -0.2907 -2.5807 -0.9509
  179SLPC  H11Y20504   2.458   4.057   8.931  0.0196 -0.8855 -0.4151
  179SLPC  C31220505   2.581   3.907   8.832 -0.2279 -0.2180  0.4534
  179SLPC  H12X20506   2.598   3.859   8.931 -1.1008 -1.1926  0.1477
  179SLPC  H12Y20507   2.674   3.913   8.772  0.2214  0.2034  1.1739
  179SLPC  C31320508   2.485   3.816   8.753  0.1961  0.0487 -0.6059
  179SLPC  H13X20509   2.466   3.861   8.654 -2.3157  1.3326  0.3739
  179SLPC  H13Y20510   2.385   3.810   8.802  0.6978 -2.4631  0.2954
  179SLPC  C31420511   2.541   3.674   8.726 -0.2734  0.4478 -0.1267
  179SLPC  H14X20512   2.550   3.629   8.827  0.2553  1.0303  0.0864
  179SLPC  H14Y20513   2.637   3.698   8.677  1.1366  1.3857  2.8442
  179SLPC  C31520514   2.463   3.588   8.623  0.2498  0.6748  0.3076
  179SLPC  H15X20515   2.519   3.496   8.597 -0.1760  0.4073  0.3305
  179SLPC  H15Y20516   2.457   3.648   8.530  1.7136 -2.6082 -2.0961
  179SLPC  C31620517   2.328   3.540   8.675  0.1508 -0.0010 -0.4730
  179SLPC  H16X20518   2.254   3.623   8.673 -0.1030 -0.1394  1.2919
  179SLPC  H16Y20519   2.342   3.503   8.779 -4.9589  0.5473  0.6845
  179SLPC  C31720520   2.282   3.417   8.594 -0.2487  0.2756 -0.1027
  179SLPC  H17X20521   2.354   3.332   8.598 -0.1886  0.2126 -1.6635
  179SLPC  H17Y20522   2.291   3.453   8.489  0.3763  2.2860  0.6127
  179SLPC  C31820523   2.135   3.368   8.624 -0.7081 -0.0014  0.4869
  179SLPC  H18X20524   2.124   3.332   8.729 -0.8296 -1.5145 -0.0223
  179SLPC  H18Y20525   2.133   3.279   8.558  1.1251  0.2162  0.0942
  179SLPC  H18Z20526   2.065   3.447   8.589 -0.4391 -0.4396 -1.0846
  180SLPC     N20527   4.448   2.076  10.695 -0.5033  0.1172 -0.2420
  180SLPC   C1320528   4.428   2.192  10.786 -0.3027 -0.1904 -0.5627
  180SLPC  H13A20529   4.326   2.226  10.793  0.1979  1.0504  1.5229
  180SLPC  H13B20530   4.466   2.160  10.882  0.2523 -1.0150 -1.0454
  180SLPC  H13C20531   4.492   2.276  10.762  1.3928 -1.2162  0.1990
  180SLPC   C1420532   4.416   2.106  10.555 -0.4041 -0.2571 -0.2437
  180SLPC  H14A20533   4.478   2.186  10.517  0.6035 -0.7363  0.3257
  180SLPC  H14B20534   4.419   2.015  10.496  1.8558  0.2549 -1.0242
  180SLPC  H14C20535   4.316   2.145  10.544  1.3156  4.3925 -1.8675
  180SLPC   C1520536   4.349   1.979  10.746  1.0279  0.2280 -0.0932
  180SLPC  H15A20537   4.250   2.020  10.735  1.5034  1.9096  1.3501
  180SLPC  H15B20538   4.358   1.890  10.686  0.7931  0.1032  0.0547
  180SLPC  H15C20539   4.367   1.955  10.850 -0.5137 -1.6296 -0.1972
  180SLPC   C1220540   4.593   2.029  10.711 -0.6061  0.6937  0.8496
  180SLPC  H12A20541   4.659   2.109  10.681  0.4918 -0.3763  0.3514
  180SLPC  H12B20542   4.606   1.948  10.641 -2.5159  0.9684  0.1124
  180SLPC   C1120543   4.644   1.966  10.843  0.3383 -0.1365  0.4014
  180SLPC  H11A20544   4.613   2.044  10.917 -0.3797 -1.1356  1.1859
  180SLPC  H11B20545   4.755   1.965  10.836  0.4367  2.2007  0.6848
  180SLPC     P20546   4.616   1.715  10.801 -0.2891 -0.0366 -0.2291
  180SLPC   O1320547   4.663   1.609  10.890 -0.6974 -0.4149  0.7587
  180SLPC   O1420548   4.491   1.689  10.729 -0.8122 -0.5421 -0.5189
  180SLPC   O1220549   4.581   1.848  10.879 -0.2128 -0.2068  0.0657
  180SLPC   O1120550   4.731   1.755  10.698  0.1159 -0.7462 -0.4224
  180SLPC    C120551   4.789   1.654  10.621  0.1177  0.1204  0.9226
  180SLPC    HA20552   4.859   1.597  10.686  1.0736 -2.3236 -2.0224
  180SLPC    HB20553   4.712   1.581  10.586  1.4937 -1.2684  0.6503
  180SLPC    C220554   4.871   1.715  10.505 -0.4334  0.1929  0.0248
  180SLPC    HS20555   4.913   1.810  10.545  1.0317 -1.4263  2.6196
  180SLPC   O2120556   4.786   1.732  10.390  0.4438  0.3171  0.3462
  180SLPC   C2120557   4.755   1.862  10.365  0.3504  0.0348  0.8306
  180SLPC   O2220558   4.804   1.956  10.422  0.3119 -0.0317  0.0856
  180SLPC   C2220559   4.693   1.870  10.229  0.4963 -0.5452 -0.1017
  180SLPC   H2R20560   4.676   1.974  10.196  0.0029 -0.3937  0.5848
  180SLPC   H2S20561   4.764   1.822  10.159  0.6952  1.2116 -1.1630
  180SLPC    C320562   4.987   1.614  10.473 -1.1611  0.3950 -0.0837
  180SLPC    HX20563   5.057   1.611  10.560 -0.5483  1.4735 -0.5198
  180SLPC    HY20564   5.052   1.657  10.394  0.5613 -1.1127  0.4566
  180SLPC   O3120565   4.941   1.481  10.437  0.2522  0.0820  0.7639
  180SLPC   C3120566   4.919   1.469  10.308 -0.3669  0.6443  0.4576
  180SLPC   O3220567   4.951   1.546  10.220  0.2569  0.0924 -0.3860
  180SLPC   C3220568   4.853   1.333  10.285 -0.9241  0.5944 -0.5322
  180SLPC   H2X20569   4.796   1.350  10.191  0.0060  0.4431 -1.1368
  180SLPC   H2Y20570   4.788   1.301  10.369  0.2544  2.0598  1.0125
  180SLPC   C2320571   4.557   1.795  10.225  0.0655  0.0053  0.8892
  180SLPC   H3R20572   4.474   1.866  10.245  0.3616  0.5324  0.3035
  180SLPC   H3S20573   4.546   1.713  10.299 -2.8386 -0.1115  0.4379
  180SLPC   C2420574   4.536   1.733  10.082  0.1703  0.5738 -1.0355
  180SLPC   H4R20575   4.620   1.661  10.075  2.1195  2.3578  1.5334
  180SLPC   H4S20576   4.526   1.812  10.004 -0.4960  1.1923 -0.3426
  180SLPC   C2520577   4.402   1.665  10.060  0.5809 -0.0999  0.5470
  180SLPC   H5R20578   4.399   1.622   9.957  1.7013  0.3168  0.3190
  180SLPC   H5S20579   4.317   1.736  10.065 -0.7413 -1.6616  0.8779
  180SLPC   C2620580   4.388   1.553  10.167 -0.3306  0.0793  0.1932
  180SLPC   H6R20581   4.365   1.608  10.261  3.1554  1.8959  0.1226
  180SLPC   H6S20582   4.484   1.501  10.183  1.4861  2.5795 -1.7069
  180SLPC   C2720583   4.274   1.454  10.148  0.2363 -1.4712 -0.2048
  180SLPC   H7R20584   4.186   1.514  10.118 -0.4469 -2.4503 -0.1998
  180SLPC   H7S20585   4.251   1.423  10.252  3.2018  2.4662  1.8751
  180SLPC   C2820586   4.302   1.354  10.041  0.1105  1.4020 -0.2274
  180SLPC   H8R20587   4.320   1.401   9.943  2.8133 -0.3021 -0.6628
  180SLPC   H8S20588   4.210   1.291  10.038 -0.6064  2.3133  1.2509
  180SLPC   C2920589   4.420   1.274  10.088  0.2175 -0.2713  0.1785
  180SLPC   H9R20590   4.417   1.237  10.191 -0.7608 -0.5283  0.0696
  180SLPC  C21020591   4.519   1.224  10.014  0.3583  0.2725  0.2742
  180SLPC  H10R20592   4.610   1.186  10.064 -0.4060 -2.5645 -0.3196
  180SLPC  C21120593   4.545   1.242   9.866  0.1936  1.0551 -0.0982
  180SLPC  H11R20594   4.453   1.248   9.804 -0.5420  0.6946  0.9466
  180SLPC  H11S20595   4.593   1.145   9.838 -0.9873 -0.1714  1.8904
  180SLPC  C21220596   4.627   1.362   9.833 -0.0871  0.0311  0.4922
  180SLPC  H12R20597   4.666   1.431   9.909  0.2333  1.0722 -0.5897
  180SLPC  C21320598   4.672   1.389   9.709  0.5084  0.0872 -0.5157
  180SLPC  H13R20599   4.760   1.454   9.700  1.3494 -1.1138 -1.1441
  180SLPC  C21420600   4.653   1.315   9.582  0.7900 -0.2643 -0.8388
  180SLPC  H14R20601   4.547   1.309   9.551  0.8281  0.3574 -1.0930
  180SLPC  H14S20602   4.676   1.206   9.590 -1.0575 -0.6776 -0.6965
  180SLPC  C21520603   4.730   1.381   9.465 -0.1315  0.4456  0.4779
  180SLPC  H15R20604   4.839   1.383   9.487 -0.2271  1.4649  0.8763
  180SLPC  H15S20605   4.690   1.484   9.455 -2.0289 -0.3418 -0.4994
  180SLPC  C21620606   4.708   1.286   9.344  0.2766 -0.0436 -0.5425
  180SLPC  H16R20607   4.602   1.264   9.318  1.1126 -2.1844 -2.5343
  180SLPC  H16S20608   4.765   1.192   9.360  0.7853  0.4536  0.6832
  180SLPC  C21720609   4.767   1.343   9.221  0.2282 -0.5364  0.4758
  180SLPC  H17R20610   4.873   1.366   9.248  0.3295 -1.7774  1.1835
  180SLPC  H17S20611   4.711   1.436   9.201 -1.1958 -1.1862  1.3594
  180SLPC  C21820612   4.766   1.258   9.096 -0.1548  0.6875 -0.6265
  180SLPC  H18R20613   4.808   1.155   9.102  0.0674  0.8335  0.3940
  180SLPC  H18S20614   4.822   1.314   9.018  1.7421 -0.6992 -0.3482
  180SLPC  H18T20615   4.662   1.243   9.061  0.2368 -1.9361 -0.8750
  180SLPC   C3320616   4.959   1.218  10.268 -0.7262  0.1968  0.0517
  180SLPC   H3X20617   4.909   1.119  10.255 -0.1439  0.0743 -1.4518
  180SLPC   H3Y20618   5.013   1.215  10.366  0.3569 -2.3043 -0.5386
  180SLPC   C3420619   5.052   1.219  10.147 -0.4469  0.4229  0.0473
  180SLPC   H4X20620   5.129   1.139  10.152 -1.4832 -0.6147 -0.1931
  180SLPC   H4Y20621   5.100   1.319  10.138 -0.1971  0.2814 -0.2247
  180SLPC   C3520622   4.980   1.201  10.010  0.0872 -0.0099  0.0627
  180SLPC   H5X20623   4.925   1.295   9.991 -1.5105 -1.2439 -1.8296
  180SLPC   H5Y20624   4.889   1.138  10.012 -1.9530  2.7262  2.4044
  180SLPC   C3620625   5.077   1.178   9.892 -0.1036  0.7204 -0.1617
  180SLPC   H6X20626   5.121   1.078   9.913  0.5530  1.1307  0.4548
  180SLPC   H6Y20627   5.157   1.255   9.884 -0.1351  0.8435  0.6284
  180SLPC   C3720628   5.017   1.170   9.750  0.1980  0.0326 -0.2347
  180SLPC   H7X20629   4.988   1.271   9.713 -1.6573  0.2563  1.6551
  180SLPC   H7Y20630   4.928   1.107   9.768 -0.4758  1.2080  0.7191
  180SLPC   C3820631   5.104   1.120   9.633 -0.0687  0.1245  0.0263
  180SLPC   H8X20632   5.135   1.019   9.668 -1.0266 -0.7352 -1.5212
  180SLPC   H8Y20633   5.199   1.178   9.638  0.4616 -0.8222  3.0290
  180SLPC   C3920634   5.034   1.128   9.502  0.4942  0.1237  0.2665
  180SLPC   H9X20635   5.032   1.233   9.467  0.4117  0.0206 -0.0498
  180SLPC   H9Y20636   4.927   1.101   9.513  1.1554 -2.3863  1.2641
  180SLPC  C31020637   5.102   1.028   9.404  0.1676  0.1210  0.6927
  180SLPC  H10X20638   5.068   0.930   9.443  1.5102 -0.8514 -0.4792
  180SLPC  H10Y20639   5.213   1.031   9.418  0.1068 -0.4728  1.3686
  180SLPC  C31120640   5.056   1.058   9.260  0.3594 -0.3962 -0.7155
  180SLPC  H11X20641   5.083   1.164   9.245 -1.1172  0.7662  3.4243
  180SLPC  H11Y20642   4.945   1.061   9.257  0.1778 -3.5089 -1.0990
  180SLPC  C31220643   5.099   0.964   9.152 -0.6555 -0.2155  1.2063
  180SLPC  H12X20644   5.072   0.858   9.171 -2.9774  0.2918  1.0564
  180SLPC  H12Y20645   5.206   0.990   9.136 -1.3583  1.1442 -2.2684
  180SLPC  C31320646   5.053   0.992   8.998  0.3668 -0.8492 -0.7237
  180SLPC  H13X20647   5.093   1.091   8.968 -1.8513  0.3596  0.1422
  180SLPC  H13Y20648   4.944   0.978   8.985 -0.1329  2.2404 -0.6428
  180SLPC  C31420649   5.126   0.891   8.902  0.0419  0.1337 -0.0924
  180SLPC  H14X20650   5.093   0.791   8.937 -0.3826  1.0039  2.2146
  180SLPC  H14Y20651   5.233   0.914   8.922 -0.1600  0.2761  0.8948
  180SLPC  C31520652   5.091   0.918   8.751 -0.8752 -0.4753 -0.1363
  180SLPC  H15X20653   5.099   1.029   8.741  0.7334 -0.4498  0.9881
  180SLPC  H15Y20654   4.987   0.879   8.747 -0.5786 -1.3489  0.3985
  180SLPC  C31620655   5.170   0.830   8.653  0.7392  0.2144 -0.3440
  180SLPC  H16X20656   5.145   0.726   8.680 -0.4105  0.3683 -0.7508
  180SLPC  H16Y20657   5.277   0.860   8.653  0.5082  1.0976 -0.8243
  180SLPC  C31720658   5.117   0.852   8.513  0.1128  0.1097  0.0309
  180SLPC  H17X20659   5.009   0.826   8.511  0.3186 -0.7315 -1.0803
  180SLPC  H17Y20660   5.158   0.781   8.438 -0.1829  1.1640 -1.1692
  180SLPC  C31820661   5.127   0.988   8.445 -0.1543 -0.1250  0.5207
  180SLPC  H18X20662   5.230   1.031   8.447 -0.8397  1.7589 -1.1434
  180SLPC  H18Y20663   5.061   1.069   8.482 -1.4109  0.4191 -2.6156
  180SLPC  H18Z20664   5.112   0.986   8.335  0.0088  0.5492  0.4795
  181SLPC     N20665   0.579   5.289  11.398 -0.3547  0.1059 -1.0890
  181SLPC   C1320666   0.435   5.340  11.416 -0.0123 -0.3490  0.4508
  181SLPC  H13A20667   0.407   5.428  11.361 -0.2060 -0.4967  0.3096
  181SLPC  H13B20668   0.370   5.264  11.374  1.8130 -0.6752 -1.9872
  181SLPC  H13C20669   0.426   5.362  11.522  2.2141 -0.8680  0.7979
  181SLPC   C1420670   0.592   5.180  11.497 -0.0615  0.1238 -0.4519
  181SLPC  H14A20671   0.603   5.229  11.593 -0.2445  3.2140 -1.8735
  181SLPC  H14B20672   0.508   5.113  11.492 -1.0266  1.2409  0.1389
  181SLPC  H14C20673   0.686   5.129  11.487 -0.7092 -0.8181 -1.9572
  181SLPC   C1520674   0.678   5.397  11.432  0.4717  0.0347  0.4866
  181SLPC  H15A20675   0.681   5.462  11.345 -3.4055  0.1743  0.2554
  181SLPC  H15B20676   0.640   5.454  11.515  2.0881  1.8701  0.0540
  181SLPC  H15C20677   0.774   5.351  11.445 -0.2816 -2.2057 -1.2627
  181SLPC   C1220678   0.613   5.232  11.262  0.3248 -0.5586 -0.2239
  181SLPC  H12A20679   0.531   5.165  11.242 -1.2102  0.7558  1.3438
  181SLPC  H12B20680   0.697   5.164  11.260 -0.0951 -1.0805 -0.4428
  181SLPC   C1120681   0.622   5.334  11.145 -0.0305  0.2346  0.3124
  181SLPC  H11A20682   0.630   5.275  11.051  0.0513 -1.4611  1.3609
  181SLPC  H11B20683   0.723   5.381  11.155  0.0663 -0.0981  0.9380
  181SLPC     P20684   0.403   5.403  11.034  0.2278  0.0012  0.0990
  181SLPC   O1320685   0.391   5.255  11.024  0.2656 -0.3700  0.2194
  181SLPC   O1420686   0.283   5.482  11.050  1.0880 -0.0547  0.4991
  181SLPC   O1220687   0.516   5.432  11.142  0.4037 -0.1336  0.6047
  181SLPC   O1120688   0.472   5.450  10.901  0.6932  0.2352  0.8049
  181SLPC    C120689   0.570   5.548  10.885 -0.2119  0.0430 -0.6466
  181SLPC    HA20690   0.620   5.569  10.982 -0.1558  0.2821 -0.7302
  181SLPC    HB20691   0.652   5.514  10.819  1.1143 -1.9721  1.8394
  181SLPC    C220692   0.498   5.677  10.821  0.4699 -0.3923  0.1222
  181SLPC    HS20693   0.408   5.684  10.885  1.4393 -2.1195  1.7876
  181SLPC   O2120694   0.465   5.645  10.684 -0.1543  0.5059  0.5357
  181SLPC   C2120695   0.373   5.722  10.622 -0.2175 -0.4571 -0.7613
  181SLPC   O2220696   0.317   5.815  10.683  0.0602 -0.4877  0.2538
  181SLPC   C2220697   0.364   5.692  10.480  0.6711  0.4763  0.7531
  181SLPC   H2R20698   0.451   5.636  10.438  0.2002  3.1531 -4.6924
  181SLPC   H2S20699   0.286   5.614  10.471 -0.1286  1.3545 -0.2041
  181SLPC    C320700   0.581   5.803  10.839  0.0229  0.3304 -0.4479
  181SLPC    HX20701   0.629   5.797  10.939  0.9884 -1.3274 -0.9662
  181SLPC    HY20702   0.506   5.884  10.834 -0.1968  0.3126  1.5730
  181SLPC   O3120703   0.680   5.814  10.726 -0.1554  0.4033 -0.8096
  181SLPC   C3120704   0.803   5.776  10.752 -0.2686  0.3291  0.1211
  181SLPC   O3220705   0.854   5.760  10.860 -0.3830  0.1679  0.3597
  181SLPC   C3220706   0.874   5.764  10.612  1.3061  0.0191 -0.1102
  181SLPC   H2X20707   0.983   5.785  10.617  1.4115 -0.7553  1.3914
  181SLPC   H2Y20708   0.826   5.837  10.542  0.1763  1.1152  1.7274
  181SLPC   C2320709   0.339   5.818  10.395  0.5036 -0.3083 -0.7403
  181SLPC   H3R20710   0.432   5.878  10.406  0.2101 -0.2512  2.7509
  181SLPC   H3S20711   0.252   5.873  10.439  0.0933 -0.6442 -1.1328
  181SLPC   C2420712   0.310   5.787  10.244 -0.5018  0.4475  0.7063
  181SLPC   H4R20713   0.219   5.724  10.240  1.2283 -2.1947  0.8225
  181SLPC   H4S20714   0.399   5.731  10.209 -1.2761  0.0899 -0.7711
  181SLPC   C2520715   0.320   5.911  10.159  0.1253 -0.6643  0.4932
  181SLPC   H5R20716   0.418   5.961  10.175 -1.4257  2.2551  1.5351
  181SLPC   H5S20717   0.246   5.990  10.185  0.4180  0.3180 -1.4234
  181SLPC   C2620718   0.284   5.888  10.005  0.1612 -0.0842  0.6903
  181SLPC   H6R20719   0.348   5.810   9.959 -0.5311 -1.6687  2.3166
  181SLPC   H6S20720   0.300   5.987   9.956 -1.2186 -0.8749 -1.4932
  181SLPC   C2720721   0.137   5.852   9.977 -0.2658 -0.3884  0.0866
  181SLPC   H7R20722   0.073   5.938  10.008  0.3613  0.3646 -0.6258
  181SLPC   H7S20723   0.108   5.759  10.029 -0.2843 -0.7013 -0.4714
  181SLPC   C2820724   0.120   5.834   9.817 -0.4835 -0.3384  0.6662
  181SLPC   H8R20725   0.018   5.789   9.815  1.1770 -4.5908  1.1369
  181SLPC   H8S20726   0.203   5.768   9.782 -1.1485 -0.3758 -0.9087
  181SLPC   C2920727   0.115   5.963   9.748  0.2732 -0.0553  0.3505
  181SLPC   H9R20728   0.102   6.053   9.809  0.5229  0.0019  0.3234
  181SLPC  C21020729   0.121   5.972   9.616 -0.1722 -0.0073  0.0202
  181SLPC  H10R20730   0.122   6.070   9.567 -1.5874  0.4871  0.9327
  181SLPC  C21120731   0.134   5.858   9.515  0.3998 -0.1855  0.1063
  181SLPC  H11R20732   0.054   5.876   9.440 -0.8659 -0.3291  1.3566
  181SLPC  H11S20733   0.113   5.759   9.561 -0.0218  0.5033  1.4872
  181SLPC  C21220734   0.272   5.853   9.463 -0.1436  0.2234  0.7716
  181SLPC  H12R20735   0.345   5.843   9.545 -0.9580 -1.6165  1.3154
  181SLPC  C21320736   0.312   5.857   9.334  0.2531 -0.2540  0.2688
  181SLPC  H13R20737   0.415   5.852   9.298 -0.1198 -1.0690 -0.7435
  181SLPC  C21420738   0.217   5.866   9.215  0.2720 -0.6588  0.4458
  181SLPC  H14R20739   0.109   5.882   9.234 -0.5083 -1.2436 -2.8309
  181SLPC  H14S20740   0.218   5.764   9.169 -1.0299 -0.1230 -0.8327
  181SLPC  C21520741   0.279   5.968   9.111  0.6066  0.3738  0.2862
  181SLPC  H15R20742   0.386   5.950   9.090  0.0033 -1.3697 -1.6747
  181SLPC  H15S20743   0.280   6.068   9.158  2.7610 -0.2020  1.5738
  181SLPC  C21620744   0.197   5.958   8.978  0.3336 -0.0585 -0.0066
  181SLPC  H16R20745   0.087   5.961   8.995  0.2741 -2.4003  0.4023
  181SLPC  H16S20746   0.217   5.859   8.930  1.8900 -0.2990  1.0748
  181SLPC  C21720747   0.233   6.064   8.873 -0.5207 -0.2000 -0.0399
  181SLPC  H17R20748   0.342   6.053   8.860 -0.3105  0.9715  0.6306
  181SLPC  H17S20749   0.216   6.165   8.914  0.3535  0.0659 -0.3211
  181SLPC  C21820750   0.178   6.042   8.730 -0.3203  0.4340  0.9649
  181SLPC  H18R20751   0.067   6.033   8.718 -0.0938  0.3559 -1.6011
  181SLPC  H18S20752   0.246   5.963   8.693 -0.1836  1.5632 -1.3711
  181SLPC  H18T20753   0.211   6.125   8.664  3.0261 -0.0787  1.8581
  181SLPC   C3320754   0.847   5.621  10.548 -0.3888 -0.0838  0.3808
  181SLPC   H3X20755   0.743   5.580  10.546  0.0421 -1.2181  0.0681
  181SLPC   H3Y20756   0.902   5.547  10.610  0.3916  1.9387  2.2054
  181SLPC   C3420757   0.901   5.609  10.410  0.0693 -0.0679 -0.2399
  181SLPC   H4X20758   0.901   5.501  10.380 -0.3888 -0.4190  0.9933
  181SLPC   H4Y20759   1.005   5.646  10.410 -0.1375  0.5287  0.9505
  181SLPC   C3520760   0.818   5.683  10.293 -0.7759  0.4319 -0.3535
  181SLPC   H5X20761   0.820   5.791  10.317 -0.9020  0.7930 -1.9227
  181SLPC   H5Y20762   0.716   5.642  10.307 -0.3473 -0.3043  0.8146
  181SLPC   C3620763   0.870   5.651  10.156  0.6718  0.1838  0.8209
  181SLPC   H6X20764   0.866   5.541  10.149  0.4058  0.3188 -2.9038
  181SLPC   H6Y20765   0.976   5.679  10.139  0.2221  1.0160 -0.8286
  181SLPC   C3720766   0.789   5.700  10.033 -0.0502  0.0979 -0.5319
  181SLPC   H7X20767   0.685   5.671  10.059  0.4561 -1.8229 -0.4766
  181SLPC   H7Y20768   0.827   5.654   9.940 -0.0390  1.1893 -1.0752
  181SLPC   C3820769   0.792   5.852  10.010 -0.0760  0.3417 -0.5235
  181SLPC   H8X20770   0.890   5.870   9.961  0.1671 -1.1242 -0.5987
  181SLPC   H8Y20771   0.781   5.899  10.110  0.5836  1.0302 -0.7647
  181SLPC   C3920772   0.670   5.895   9.921  0.0311 -0.4817  0.6371
  181SLPC   H9X20773   0.640   5.999   9.944  0.5283  0.1260 -1.2998
  181SLPC   H9Y20774   0.584   5.827   9.937  0.3141 -0.9438  0.2309
  181SLPC  C31020775   0.724   5.912   9.773 -0.6890  0.6678  0.1373
  181SLPC  H10X20776   0.749   5.808   9.741 -1.4774  0.8262 -1.0304
  181SLPC  H10Y20777   0.819   5.970   9.770  0.2900 -0.7901  1.3915
  181SLPC  C31120778   0.633   5.963   9.672 -0.2053  0.2955  0.2814
  181SLPC  H11X20779   0.597   6.067   9.686 -1.2677  0.1857 -1.3733
  181SLPC  H11Y20780   0.539   5.903   9.672 -0.6803  1.0038  1.6129
  181SLPC  C31220781   0.690   5.941   9.528  0.5385 -0.1806 -0.6162
  181SLPC  H12X20782   0.611   5.948   9.450  0.0090  0.4744 -0.0415
  181SLPC  H12Y20783   0.731   5.838   9.534 -0.6137 -0.5978  0.6832
  181SLPC  C31320784   0.807   6.042   9.495  0.0989 -0.0682  0.2690
  181SLPC  H13X20785   0.883   6.039   9.576  0.4554  2.9333  0.1471
  181SLPC  H13Y20786   0.770   6.147   9.496  3.8871  1.4043  1.2073
  181SLPC  C31420787   0.870   6.018   9.364 -0.2622 -0.1001 -0.2875
  181SLPC  H14X20788   0.805   6.046   9.278  1.6760 -1.5640 -2.3607
  181SLPC  H14Y20789   0.909   5.915   9.351  1.9448  0.5071  1.0513
  181SLPC  C31520790   0.990   6.114   9.354  0.0041  0.4843  0.5414
  181SLPC  H15X20791   1.060   6.078   9.432  2.2798 -3.0527 -2.7765
  181SLPC  H15Y20792   0.955   6.211   9.394 -0.7010  1.0341 -1.2791
  181SLPC  C31620793   1.052   6.143   9.211 -0.0739  0.2448  0.0652
  181SLPC  H16X20794   1.137   6.215   9.218  0.0433  0.1164 -0.0467
  181SLPC  H16Y20795   0.971   6.192   9.153 -0.7264  0.1321  0.8626
  181SLPC  C31720796   1.105   6.016   9.145 -0.5980 -0.1690 -0.5774
  181SLPC  H17X20797   1.015   5.951   9.132 -0.1228 -1.3649  1.5678
  181SLPC  H17Y20798   1.165   5.978   9.230 -1.8429  2.1901  1.4597
  181SLPC  C31820799   1.179   6.036   9.013 -0.0771  0.0632  0.0084
  181SLPC  H18X20800   1.281   6.070   9.037 -0.9634  2.0074  1.2664
  181SLPC  H18Y20801   1.127   6.105   8.943  2.5953  3.6973  1.3146
  181SLPC  H18Z20802   1.191   5.937   8.963 -0.9536 -0.1204  0.1417
  182SLPC     N20803   5.929   6.072  10.887 -0.8889  0.2909 -0.0092
  182SLPC   C1320804   5.969   5.958  10.799 -0.1130  0.7602 -0.7177
  182SLPC  H13A20805   5.994   5.988  10.699 -0.0632 -0.8070 -1.1952
  182SLPC  H13B20806   6.055   5.909  10.842 -0.3984  0.6032 -0.3212
  182SLPC  H13C20807   5.896   5.880  10.788  2.1018 -1.5256  0.0240
  182SLPC   C1420808   5.866   6.011  11.016  0.1605 -0.1810 -0.2054
  182SLPC  H14A20809   5.822   6.087  11.079  2.2170  0.3314  0.7272
  182SLPC  H14B20810   5.787   5.941  10.992  0.2969  0.1130 -1.5846
  182SLPC  H14C20811   5.941   5.960  11.075  1.2429  0.1057 -1.2957
  182SLPC   C1520812   5.826   6.156  10.818 -0.5427  0.1948  0.6338
  182SLPC  H15A20813   5.785   6.238  10.875 -0.2923  1.2483 -0.6523
  182SLPC  H15B20814   5.872   6.187  10.726  0.0772 -2.8153 -0.1920
  182SLPC  H15C20815   5.739   6.100  10.786 -1.6325  2.1366  0.0737
  182SLPC   C1220816   6.050   6.155  10.931  0.9017 -0.8481 -0.8046
  182SLPC  H12A20817   6.110   6.092  10.994 -1.0622 -0.1383  1.9669
  182SLPC  H12B20818   6.010   6.236  10.991  0.1225 -2.0476  0.3599
  182SLPC   C1120819   6.125   6.216  10.810 -0.5393 -0.4996 -0.7396
  182SLPC  H11A20820   6.149   6.134  10.740 -1.7532  0.4193 -2.2975
  182SLPC  H11B20821   6.220   6.257  10.849 -0.8193  1.8049 -2.3192
  182SLPC     P20822   6.045   6.471  10.791 -0.1807  0.0467  0.2631
  182SLPC   O1320823   5.930   6.493  10.874  0.5101  0.2131  0.4115
  182SLPC   O1420824   6.174   6.502  10.860 -0.6690 -0.2965 -0.3603
  182SLPC   O1220825   6.050   6.319  10.742  0.4654 -0.2633  0.0782
  182SLPC   O1120826   6.038   6.566  10.659  0.2967  0.3855 -0.7406
  182SLPC    C120827   5.996   6.518  10.533 -0.2433 -0.0941 -0.3615
  182SLPC    HA20828   6.041   6.583  10.455  0.5877  1.4878  1.3621
  182SLPC    HB20829   6.028   6.415  10.506 -0.3760 -0.4023  0.6139
  182SLPC    C220830   5.839   6.530  10.523  0.2276 -0.1433  0.3671
  182SLPC    HS20831   5.793   6.460  10.595 -2.6182  0.2350 -0.9744
  182SLPC   O2120832   5.792   6.508  10.389  0.4000  0.1479  0.0578
  182SLPC   C2120833   5.648   6.512  10.377 -0.3071 -0.3055  0.1849
  182SLPC   O2220834   5.570   6.500  10.472  0.1145 -0.3934  0.0154
  182SLPC   C2220835   5.612   6.527  10.226  0.0121  0.4048 -0.1859
  182SLPC   H2R20836   5.501   6.515  10.230 -0.0094  0.5861 -0.2604
  182SLPC   H2S20837   5.622   6.632  10.192 -1.5227  0.6344 -0.0079
  182SLPC    C320838   5.809   6.669  10.584  0.0474 -0.0858 -0.6119
  182SLPC    HX20839   5.821   6.664  10.695  1.1924 -0.3990 -0.7461
  182SLPC    HY20840   5.699   6.682  10.572  0.1725 -0.5109 -2.4911
  182SLPC   O3120841   5.894   6.770  10.524  0.2480 -0.1381  0.5669
  182SLPC   C3120842   5.850   6.797  10.402 -0.2675 -0.5138  0.1369
  182SLPC   O3220843   5.731   6.782  10.363 -0.4616 -0.2049 -0.0621
  182SLPC   C3220844   5.967   6.846  10.319  0.0917 -0.1030  0.1491
  182SLPC   H2X20845   6.055   6.787  10.355  0.8955  0.9373 -0.0739
  182SLPC   H2Y20846   6.005   6.942  10.360  1.3408 -0.3432 -0.3792
  182SLPC   C2320847   5.677   6.430  10.121 -0.6268 -0.6761 -0.0252
  182SLPC   H3R20848   5.787   6.447  10.123 -0.2651 -2.7708  0.4561
  182SLPC   H3S20849   5.641   6.460  10.021 -2.1852 -0.9405  0.4345
  182SLPC   C2420850   5.649   6.282  10.133 -0.2463  0.2608  0.1149
  182SLPC   H4R20851   5.548   6.263  10.091 -0.1862 -1.6695  0.7274
  182SLPC   H4S20852   5.658   6.259  10.241 -2.5883 -1.2773  0.0457
  182SLPC   C2520853   5.757   6.192  10.060 -0.2594 -0.1288 -0.1754
  182SLPC   H5R20854   5.751   6.086  10.094 -0.8281 -0.4062 -1.1001
  182SLPC   H5S20855   5.857   6.224  10.095 -1.3365  2.7835  0.5524
  182SLPC   C2620856   5.752   6.186   9.909 -0.5793 -0.5511  0.6880
  182SLPC   H6R20857   5.752   6.281   9.851 -0.2167 -2.8179 -3.3774
  182SLPC   H6S20858   5.658   6.137   9.876  0.0080 -0.9251 -0.4946
  182SLPC   C2720859   5.874   6.122   9.845 -0.5897 -0.1388  0.6669
  182SLPC   H7R20860   5.966   6.178   9.874 -0.7438  1.6504 -1.9363
  182SLPC   H7S20861   5.873   6.146   9.737 -1.5937  0.8765  0.8900
  182SLPC   C2820862   5.901   5.973   9.871 -0.3791  0.2335  0.4699
  182SLPC   H8R20863   5.915   5.953   9.980  0.2600  0.0573  0.3640
  182SLPC   H8S20864   5.997   5.938   9.827 -1.4289 -0.2706 -1.5100
  182SLPC   C2920865   5.796   5.875   9.831  0.1082 -0.0093  0.2135
  182SLPC   H9R20866   5.725   5.836   9.906 -0.2312 -0.2831 -0.2431
  182SLPC  C21020867   5.777   5.825   9.707 -0.1616 -0.0287 -0.4566
  182SLPC  H10R20868   5.699   5.749   9.689 -0.5011 -0.4754  2.4752
  182SLPC  C21120869   5.851   5.868   9.585  0.3241 -0.2896 -0.1192
  182SLPC  H11R20870   5.860   5.774   9.525 -0.2366 -0.0878 -0.5339
  182SLPC  H11S20871   5.955   5.904   9.597  0.7833 -1.2028 -1.1205
  182SLPC  C21220872   5.765   5.970   9.516 -0.3876 -0.3442  0.4971
  182SLPC  H12R20873   5.729   6.053   9.577 -0.9212  0.2013 -0.5448
  182SLPC  C21320874   5.728   5.969   9.382 -0.4134  0.5684 -0.1000
  182SLPC  H13R20875   5.687   6.063   9.342 -1.1180  0.9054  1.3601
  182SLPC  C21420876   5.762   5.864   9.281  0.0131  0.0031  0.1217
  182SLPC  H14R20877   5.851   5.803   9.305  1.3427  2.0757  0.7150
  182SLPC  H14S20878   5.776   5.925   9.189 -1.7153  2.0441  1.1148
  182SLPC  C21520879   5.647   5.765   9.262 -0.2583  0.6603  0.1127
  182SLPC  H15R20880   5.552   5.808   9.224  0.3996  0.9948 -1.2370
  182SLPC  H15S20881   5.619   5.710   9.354 -1.0874  0.9452  0.0413
  182SLPC  C21620882   5.675   5.668   9.153  0.3031 -0.6771  0.4971
  182SLPC  H16R20883   5.590   5.596   9.153 -0.4838  0.2210  1.5940
  182SLPC  H16S20884   5.767   5.618   9.192 -0.5714 -3.3201 -0.5834
  182SLPC  C21720885   5.699   5.743   9.028 -0.5747  0.1224  0.1145
  182SLPC  H17R20886   5.800   5.791   9.020  0.2225 -1.5947 -0.6312
  182SLPC  H17S20887   5.627   5.827   9.016  0.3998  0.7395 -2.0108
  182SLPC  C21820888   5.683   5.647   8.914 -1.1755  0.5377 -0.1361
  182SLPC  H18R20889   5.695   5.705   8.820  0.6612 -2.2525 -1.7533
  182SLPC  H18S20890   5.591   5.586   8.903 -0.9135 -0.3677  2.0847
  182SLPC  H18T20891   5.769   5.577   8.921 -1.3341  0.4967  3.2518
  182SLPC   C3320892   5.961   6.849  10.163 -0.1837  0.6908  0.4407
  182SLPC   H3X20893   6.061   6.883  10.131  0.5252 -1.9311 -0.3545
  182SLPC   H3Y20894   5.888   6.922  10.123 -2.2139 -1.5782 -0.2642
  182SLPC   C3420895   5.947   6.707  10.096 -0.0808 -0.2012  0.6330
  182SLPC   H4X20896   5.846   6.670  10.125 -0.3073  0.9906  1.4616
  182SLPC   H4Y20897   6.020   6.638  10.144  1.6575 -0.6984 -2.4831
  182SLPC   C3520898   5.937   6.716   9.945  0.4587  0.3010 -0.4696
  182SLPC   H5X20899   6.037   6.750   9.910  1.6972 -0.1652  2.3260
  182SLPC   H5Y20900   5.864   6.797   9.927 -0.8552 -0.4910  1.0639
  182SLPC   C3620901   5.894   6.583   9.882  0.5509  0.1751 -0.4192
  182SLPC   H6X20902   5.794   6.543   9.912  1.1848 -0.1950  1.3158
  182SLPC   H6Y20903   5.957   6.502   9.924  0.8216 -1.0103 -2.9749
  182SLPC   C3720904   5.927   6.582   9.737  0.2344 -0.5778  0.5988
  182SLPC   H7X20905   6.037   6.597   9.724 -0.0180 -0.2391 -1.4707
  182SLPC   H7Y20906   5.879   6.667   9.685 -2.6849 -1.9742  0.8442
  182SLPC   C3820907   5.903   6.448   9.661  0.5265  0.2811  0.0578
  182SLPC   H8X20908   5.797   6.415   9.668  0.4618  0.5575  0.4290
  182SLPC   H8Y20909   5.961   6.362   9.701  0.6983  1.0331  1.5029
  182SLPC   C3920910   5.930   6.465   9.509  0.3106 -0.0472 -0.5913
  182SLPC   H9X20911   6.036   6.497   9.502  0.0355  0.8500 -0.7688
  182SLPC   H9Y20912   5.864   6.541   9.462  0.3085 -0.7104 -1.6859
  182SLPC  C31020913   5.895   6.335   9.444  0.2734  0.4539 -0.2295
  182SLPC  H10X20914   5.784   6.336   9.451  0.3200  3.0754  2.7222
  182SLPC  H10Y20915   5.938   6.253   9.505 -0.5700 -1.7198 -2.4207
  182SLPC  C31120916   5.952   6.329   9.304 -0.5834 -0.1440  0.2929
  182SLPC  H11X20917   6.059   6.358   9.315 -0.8639  0.7105  0.8994
  182SLPC  H11Y20918   5.905   6.409   9.243  1.9087  0.2200 -1.2994
  182SLPC  C31220919   5.937   6.196   9.236  0.4524 -0.1591  0.9054
  182SLPC  H12X20920   5.832   6.163   9.219 -0.2085  2.5654 -1.1265
  182SLPC  H12Y20921   5.999   6.122   9.289  0.3377  0.1673  1.5008
  182SLPC  C31320922   5.991   6.216   9.089 -0.5047  0.4857  1.4178
  182SLPC  H13X20923   6.096   6.250   9.086  0.4961 -2.3888  0.4011
  182SLPC  H13Y20924   5.925   6.292   9.042  0.0009  1.9110  2.9283
  182SLPC  C31420925   5.995   6.086   9.005 -0.4396 -0.0965  0.3068
  182SLPC  H14X20926   5.894   6.040   8.998 -0.3199 -0.2193 -0.7637
  182SLPC  H14Y20927   6.059   6.013   9.060 -2.1195 -0.0052  2.5443
  182SLPC  C31520928   6.042   6.101   8.857 -0.4092 -0.1335 -0.4434
  182SLPC  H15X20929   5.972   6.166   8.799 -2.3537 -2.2068 -0.5492
  182SLPC  H15Y20930   6.037   6.002   8.808 -2.0895 -0.1489 -0.3129
  182SLPC  C31620931   6.187   6.147   8.841 -0.8883 -0.1501  0.9840
  182SLPC  H16X20932   6.253   6.066   8.878 -1.4767 -0.4366  1.4085
  182SLPC  H16Y20933   6.194   6.234   8.909  0.6322  1.6008 -1.2463
  182SLPC  C31720934   6.226   6.182   8.701  0.1865  0.6425 -0.5278
  182SLPC  H17X20935   6.305   6.260   8.700  2.3933 -1.4634 -0.0144
  182SLPC  H17Y20936   6.141   6.220   8.640  0.0737  1.0482 -0.1253
  182SLPC  C31820937   6.297   6.073   8.618  0.6152  0.5035 -0.5435
  182SLPC  H18X20938   6.257   5.976   8.655  0.8821 -1.0701 -3.9547
  182SLPC  H18Y20939   6.405   6.080   8.642 -0.0515  0.5262  2.9351
  182SLPC  H18Z20940   6.279   6.090   8.509 -0.2718  0.7074 -0.3757
  183SLPC     N20941   1.043   1.278  11.057  0.3047 -0.0082  0.0769
  183SLPC   C1320942   1.143   1.264  11.163 -1.2534  0.0851 -0.2246
  183SLPC  H13A20943   1.125   1.328  11.248  0.8142  0.0497  0.2936
  183SLPC  H13B20944   1.137   1.167  11.210 -1.7241  0.9857  1.6625
  183SLPC  H13C20945   1.245   1.267  11.127 -0.5027 -0.0080  1.7437
  183SLPC   C1420946   0.921   1.213  11.109  0.1076 -0.0396  0.1180
  183SLPC  H14A20947   0.930   1.112  11.146  0.5139 -0.2074 -0.4326
  183SLPC  H14B20948   0.871   1.266  11.189  0.7484  0.9080 -0.1047
  183SLPC  H14C20949   0.851   1.217  11.026  0.5598  1.6117 -0.2199
  183SLPC   C1520950   1.087   1.208  10.937 -0.4205  0.5233 -0.4313
  183SLPC  H15A20951   1.080   1.102  10.953  0.8738  0.2500 -1.5639
  183SLPC  H15B20952   1.028   1.240  10.852  0.6994 -0.3590 -1.5656
  183SLPC  H15C20953   1.188   1.240  10.916  0.1381 -1.5669 -1.1059
  183SLPC   C1220954   1.015   1.426  11.027 -0.3615  0.5506  0.0129
  183SLPC  H12A20955   1.106   1.458  10.978  0.0916  0.0440  0.4997
  183SLPC  H12B20956   1.008   1.486  11.116 -1.4110  1.0642 -0.4070
  183SLPC   C1120957   0.888   1.457  10.942  0.2208  0.1002  0.2803
  183SLPC  H11A20958   0.894   1.565  10.917  0.1469  0.6949  2.5908
  183SLPC  H11B20959   0.802   1.455  11.013  1.2536 -0.3051  1.5472
  183SLPC     P20960   0.753   1.299  10.792  0.5610 -0.0511  0.0019
  183SLPC   O1320961   0.763   1.168  10.860  0.0143  0.2603 -0.0067
  183SLPC   O1420962   0.638   1.385  10.813 -0.2025 -0.0664 -0.8372
  183SLPC   O1220963   0.882   1.376  10.825  0.0259 -0.3682  0.2828
  183SLPC   O1120964   0.759   1.283  10.636  0.3672 -0.3598  0.0122
  183SLPC    C120965   0.651   1.213  10.579  0.5081  0.0163  1.2955
  183SLPC    HA20966   0.637   1.116  10.632  2.7411 -0.6917  0.7185
  183SLPC    HB20967   0.553   1.265  10.585 -0.0089 -0.5868 -0.9142
  183SLPC    C220968   0.676   1.179  10.426  0.1601 -0.2996 -0.2711
  183SLPC    HS20969   0.584   1.140  10.379  0.9203 -1.1971 -1.0459
  183SLPC   O2120970   0.784   1.088  10.425 -0.3070  0.4861 -0.1915
  183SLPC   C2120971   0.743   0.963  10.406 -0.5487 -1.0164  0.5873
  183SLPC   O2220972   0.627   0.928  10.406 -0.1478 -0.1822 -0.5987
  183SLPC   C2220973   0.862   0.881  10.357  0.2080 -0.2383 -0.5529
  183SLPC   H2R20974   0.924   0.868  10.448 -0.7201 -2.2033 -0.1598
  183SLPC   H2S20975   0.835   0.777  10.328 -0.1128 -0.3570  0.1633
  183SLPC    C320976   0.709   1.302  10.344  0.1357 -0.0014 -0.9941
  183SLPC    HX20977   0.799   1.337  10.399 -0.0792  0.0980 -0.7038
  183SLPC    HY20978   0.623   1.370  10.356 -0.3543 -0.5724 -1.2201
  183SLPC   O3120979   0.735   1.276  10.209  0.3907  0.7263 -0.4817
  183SLPC   C3120980   0.646   1.311  10.115  0.2853 -0.0029 -0.1223
  183SLPC   O3220981   0.540   1.366  10.144 -0.1275  0.2462 -0.2588
  183SLPC   C3220982   0.697   1.260   9.977  0.4584  0.1785 -0.1427
  183SLPC   H2X20983   0.690   1.151   9.992  0.2089  0.1976 -0.1271
  183SLPC   H2Y20984   0.804   1.290   9.966  0.3381  0.0957 -1.7247
  183SLPC   C2320985   0.956   0.932  10.241 -0.0349  0.1471 -0.4653
  183SLPC   H3R20986   1.043   0.863  10.231 -0.6992 -1.4184  2.9903
  183SLPC   H3S20987   0.984   1.035  10.273 -3.6857  0.8366  0.9404
  183SLPC   C2420988   0.895   0.932  10.100 -1.0575  0.3055  0.0241
  183SLPC   H4R20989   0.978   0.962  10.032  0.3777 -3.7871 -0.3029
  183SLPC   H4S20990   0.832   1.023  10.094 -0.1189  0.8761 -2.7922
  183SLPC   C2520991   0.830   0.797  10.061  0.0328  0.3227  1.6587
  183SLPC   H5R20992   0.731   0.805  10.111 -0.5661  0.9145  0.4423
  183SLPC   H5S20993   0.878   0.707  10.104  0.4684 -1.0524 -1.4505
  183SLPC   C2620994   0.810   0.776   9.903 -0.7122 -0.2223  0.6545
  183SLPC   H6R20995   0.790   0.671   9.873 -0.2454 -0.5633  1.4955
  183SLPC   H6S20996   0.910   0.786   9.854 -0.6789  0.2674  0.8173
  183SLPC   C2720997   0.728   0.878   9.831  0.6044  0.1468  0.5439
  183SLPC   H7R20998   0.788   0.971   9.819  1.6463 -0.7189 -1.3652
  183SLPC   H7S20999   0.637   0.908   9.887 -2.1762 -2.3603 -2.2159
  183SLPC   C2821000   0.669   0.859   9.684 -0.4651  0.1333 -0.6068
  183SLPC   H8R21001   0.753   0.864   9.611  0.1520 -0.4073  0.0475
  183SLPC   H8S21002   0.593   0.938   9.664 -0.3709  0.6046  0.8336
  183SLPC   C2921003   0.610   0.721   9.675  0.2322 -0.2029  0.1040
  183SLPC   H9R21004   0.644   0.654   9.755 -0.5835 -0.6319  0.0963
  183SLPC  C21021005   0.529   0.677   9.578  0.5880  0.2428  0.6997
  183SLPC  H10R21006   0.501   0.570   9.574 -2.3417  0.9674 -0.5280
  183SLPC  C21121007   0.473   0.755   9.453  0.0802  0.9382 -0.6945
  183SLPC  H11R21008   0.540   0.764   9.365 -1.2138  1.6297 -1.6465
  183SLPC  H11S21009   0.472   0.864   9.473  0.5239  0.4567  2.4163
  183SLPC  C21221010   0.343   0.698   9.400 -0.4405  0.2174  0.1994
  183SLPC  H12R21011   0.253   0.726   9.457 -0.8506  1.8245 -1.1560
  183SLPC  C21321012   0.330   0.605   9.305 -0.0217 -0.0349  0.8136
  183SLPC  H13R21013   0.230   0.560   9.294 -1.1940  2.7001 -0.5857
  183SLPC  C21421014   0.444   0.548   9.224  0.6097 -0.1806 -0.3206
  183SLPC  H14R21015   0.525   0.523   9.296 -0.6933 -0.4082  1.1054
  183SLPC  H14S21016   0.487   0.625   9.155  0.2461  0.2015 -0.1277
  183SLPC  C21521017   0.418   0.417   9.137  0.4560 -0.4119 -0.3697
  183SLPC  H15R21018   0.519   0.380   9.108  0.4207 -0.7282 -0.0970
  183SLPC  H15S21019   0.358   0.445   9.048  1.3901 -0.2708 -0.9695
  183SLPC  C21621020   0.345   0.310   9.220  0.1126  0.5154 -0.7103
  183SLPC  H16R21021   0.242   0.337   9.253  0.6793  3.8231 -1.3594
  183SLPC  H16S21022   0.396   0.289   9.316 -1.5757  1.1305  0.3499
  183SLPC  C21721023   0.340   0.173   9.150 -0.2573  0.0920 -0.1695
  183SLPC  H17R21024   0.286   0.104   9.218 -1.6576  0.4725 -0.8492
  183SLPC  H17S21025   0.431   0.111   9.133 -0.8017 -0.7392 -0.0789
  183SLPC  C21821026   0.257   0.178   9.018  0.0099 -0.4553  0.0151
  183SLPC  H18R21027   0.254   0.077   8.971  1.4664 -1.8071  2.5844
  183SLPC  H18S21028   0.301   0.241   8.938  0.2452 -1.0041 -0.2974
  183SLPC  H18T21029   0.155   0.212   9.042 -0.5363 -2.7559  1.3534
  183SLPC   C3321030   0.614   1.308   9.859  0.1869  0.9215 -0.1835
  183SLPC   H3X21031   0.626   1.417   9.843 -0.0939  0.9130 -0.4492
  183SLPC   H3Y21032   0.508   1.287   9.882  0.2519 -0.1384 -0.7922
  183SLPC   C3421033   0.650   1.244   9.723 -0.2174  0.7585  0.1817
  183SLPC   H4X21034   0.654   1.136   9.750 -3.8774  0.1512 -1.0821
  183SLPC   H4Y21035   0.748   1.288   9.697  1.2510 -2.3012  0.1348
  183SLPC   C3521036   0.536   1.285   9.633 -0.0902 -0.1342 -0.1167
  183SLPC   H5X21037   0.533   1.396   9.627  2.7149  0.0116 -0.1849
  183SLPC   H5Y21038   0.440   1.246   9.673  0.8012 -3.1205 -0.6060
  183SLPC   C3621039   0.566   1.234   9.491  0.3754 -0.4717  0.7948
  183SLPC   H6X21040   0.575   1.123   9.489 -2.1235 -0.7500  1.3567
  183SLPC   H6Y21041   0.665   1.279   9.468  0.6749 -1.0590  0.9093
  183SLPC   C3721042   0.454   1.268   9.398 -0.1124  0.1393  0.3378
  183SLPC   H7X21043   0.428   1.375   9.413  3.7902  0.9431  2.8685
  183SLPC   H7Y21044   0.363   1.215   9.434  1.6242 -2.5382  1.0189
  183SLPC   C3821045   0.473   1.226   9.255 -0.4849 -0.3445 -0.5843
  183SLPC   H8X21046   0.547   1.297   9.212 -0.2035 -0.5401 -0.4251
  183SLPC   H8Y21047   0.381   1.236   9.193 -0.8759 -1.1160 -0.1443
  183SLPC   C3921048   0.521   1.082   9.238 -0.3429  0.7583 -0.6428
  183SLPC   H9X21049   0.454   1.033   9.313 -1.6044  0.7537 -1.7417
  183SLPC   H9Y21050   0.625   1.083   9.279 -1.5130 -0.9448  2.7778
  183SLPC  C31021051   0.500   1.031   9.100  0.2394  0.4310  0.2921
  183SLPC  H10X21052   0.560   1.103   9.041 -0.4783 -0.3804 -1.5205
  183SLPC  H10Y21053   0.395   1.053   9.069  0.4230  2.2402  0.8638
  183SLPC  C31121054   0.539   0.883   9.092  0.0467 -0.1315 -0.1092
  183SLPC  H11X21055   0.463   0.830   9.152 -0.5346 -0.7945 -1.4044
  183SLPC  H11Y21056   0.642   0.875   9.135  0.2071  2.2653  0.1031
  183SLPC  C31221057   0.541   0.825   8.948  0.2133  0.5033 -0.2989
  183SLPC  H12X21058   0.547   0.714   8.949  0.5582  0.5016  1.6462
  183SLPC  H12Y21059   0.631   0.865   8.898  0.8455  1.0404  1.2254
  183SLPC  C31321060   0.426   0.871   8.853  0.3208 -0.1989 -0.3897
  183SLPC  H13X21061   0.436   0.833   8.749 -2.0797  1.5161 -1.3476
  183SLPC  H13Y21062   0.430   0.982   8.848 -0.6346 -0.1391 -0.0228
  183SLPC  C31421063   0.282   0.821   8.907  0.2293  0.2569  0.1972
  183SLPC  H14X21064   0.203   0.893   8.879  1.3496  0.5910 -2.4211
  183SLPC  H14Y21065   0.282   0.830   9.018  1.9917 -0.0174  0.2461
  183SLPC  C31521066   0.244   0.675   8.857  0.2670 -0.2172 -0.0952
  183SLPC  H15X21067   0.327   0.609   8.891  2.1265  1.1970 -1.6236
  183SLPC  H15Y21068   0.231   0.670   8.747 -1.0469 -2.2872  0.1125
  183SLPC  C31621069   0.120   0.628   8.937 -0.3955 -0.3185 -0.2498
  183SLPC  H16X21070   0.044   0.708   8.924  1.1379  0.9833 -1.5175
  183SLPC  H16Y21071   0.145   0.622   9.045 -2.2292 -1.7268  0.1626
  183SLPC  C31721072   0.055   0.497   8.886  0.5474 -0.2698 -0.7734
  183SLPC  H17X21073   0.135   0.420   8.878  1.5842  0.5235  1.2676
  183SLPC  H17Y21074   0.021   0.518   8.783  0.8927  1.0711 -0.6273
  183SLPC  C31821075  -0.068   0.466   8.980 -0.3359 -0.4063  0.0306
  183SLPC  H18X21076  -0.038   0.470   9.087 -0.5474  1.3253  0.0618
  183SLPC  H18Y21077  -0.118   0.371   8.954  0.6009 -0.5701 -1.2373
  183SLPC  H18Z21078  -0.148   0.543   8.976  0.0039 -0.0589 -0.1349
  184SLPC     N21079   2.484   5.830  10.775 -0.5129 -0.2082  0.1318
  184SLPC   C1321080   2.550   5.951  10.847 -0.1260 -0.5594  0.1250
  184SLPC  H13A21081   2.536   5.943  10.954 -0.7074 -2.3355 -0.0564
  184SLPC  H13B21082   2.649   5.982  10.818 -0.6567  2.1855  0.9957
  184SLPC  H13C21083   2.503   6.046  10.830 -0.2320  0.2637  4.1268
  184SLPC   C1421084   2.447   5.873  10.640  0.4711  0.1241 -0.0297
  184SLPC  H14A21085   2.530   5.931  10.602  1.4029 -1.3883 -0.4148
  184SLPC  H14B21086   2.419   5.787  10.581  0.7958 -1.6692  2.2767
  184SLPC  H14C21087   2.365   5.942  10.650  0.5865  0.0463  1.7631
  184SLPC   C1521088   2.363   5.778  10.856 -0.6201  0.6636  0.1756
  184SLPC  H15A21089   2.280   5.842  10.830 -0.5054  1.2459  1.2074
  184SLPC  H15B21090   2.331   5.685  10.812 -2.0459  1.7096 -1.0822
  184SLPC  H15C21091   2.388   5.765  10.960 -0.0752  2.4773  0.3116
  184SLPC   C1221092   2.590   5.723  10.775 -0.3508  0.2917 -0.8450
  184SLPC  H12A21093   2.543   5.638  10.728 -0.0864  0.6065 -1.6830
  184SLPC  H12B21094   2.611   5.679  10.872  0.3687  1.2147 -0.5728
  184SLPC   C1121095   2.724   5.745  10.707 -0.1000 -0.3253  0.5690
  184SLPC  H11A21096   2.793   5.812  10.762  0.3956 -0.4023  0.0530
  184SLPC  H11B21097   2.702   5.789  10.607  1.3943 -1.4944 -0.3062
  184SLPC     P21098   2.905   5.595  10.590  0.0856  0.0892  0.3958
  184SLPC   O1321099   3.015   5.683  10.648 -0.6253 -0.0362  0.0452
  184SLPC   O1421100   2.933   5.452  10.561  0.9201 -0.7595  0.1012
  184SLPC   O1221101   2.783   5.615  10.690 -0.1430  0.6342 -0.2260
  184SLPC   O1121102   2.853   5.656  10.452  0.3513  0.6645 -0.4009
  184SLPC    C121103   2.737   5.619  10.374 -0.3092 -0.3049  0.0619
  184SLPC    HA21104   2.656   5.615  10.449 -0.3796 -1.8794 -0.0536
  184SLPC    HB21105   2.707   5.698  10.302 -2.1056 -1.8322 -0.9466
  184SLPC    C221106   2.736   5.481  10.306 -0.2899 -0.1133  0.5796
  184SLPC    HS21107   2.727   5.406  10.387  0.2123 -2.1395 -1.1211
  184SLPC   O2121108   2.855   5.477  10.227 -0.4167  0.2175  0.1325
  184SLPC   C2121109   2.906   5.354  10.216 -0.6614 -0.4733  0.2063
  184SLPC   O2221110   2.886   5.259  10.284  0.3518  0.4755 -0.0448
  184SLPC   C2221111   2.995   5.353  10.090  1.0898 -0.2962  0.2809
  184SLPC   H2R21112   2.930   5.377  10.004  0.3974 -2.3970  0.1591
  184SLPC   H2S21113   3.076   5.428  10.101 -0.8453  1.8726  0.3904
  184SLPC    C321114   2.609   5.462  10.220  0.0859  0.0240  0.4140
  184SLPC    HX21115   2.620   5.507  10.119 -2.0334  0.0476  0.1573
  184SLPC    HY21116   2.535   5.526  10.272  0.9612  0.3435  1.3176
  184SLPC   O3121117   2.569   5.327  10.209 -0.1357 -0.4348  0.1278
  184SLPC   C3121118   2.457   5.304  10.134  0.5874  0.0321 -0.7328
  184SLPC   O3221119   2.389   5.395  10.097 -0.1277  0.8470  0.5657
  184SLPC   C3221120   2.439   5.154  10.107 -0.4043  1.3765 -0.0699
  184SLPC   H2X21121   2.341   5.122  10.148  1.4306 -3.4351  1.2514
  184SLPC   H2Y21122   2.515   5.104  10.171 -0.6025 -2.1268 -2.3167
  184SLPC   C2321123   3.050   5.212  10.078  0.3757 -0.6593 -0.6403
  184SLPC   H3R21124   2.963   5.143  10.080 -2.1735  2.3362  1.2658
  184SLPC   H3S21125   3.105   5.190  10.173  1.2718  1.8691 -0.5086
  184SLPC   C2421126   3.136   5.187   9.951  0.1944  0.7072 -0.1534
  184SLPC   H4R21127   3.198   5.098   9.970 -0.3211  0.9968  3.5614
  184SLPC   H4S21128   3.207   5.272   9.946  0.2983  0.6235 -0.1038
  184SLPC   C2521129   3.054   5.154   9.819 -0.1209 -0.0591 -0.3998
  184SLPC   H5R21130   3.004   5.245   9.779  0.9648  0.7322 -0.0115
  184SLPC   H5S21131   2.966   5.096   9.853 -1.4106  1.6895 -0.5834
  184SLPC   C2621132   3.135   5.076   9.720 -0.5260  0.8429  0.3997
  184SLPC   H6R21133   3.133   4.968   9.747 -0.2448  0.8888  0.6026
  184SLPC   H6S21134   3.239   5.113   9.735  0.0482 -0.9981  1.2366
  184SLPC   C2721135   3.074   5.086   9.584  0.5277  0.3000  0.8786
  184SLPC   H7R21136   3.084   5.185   9.534  2.3629 -0.4125 -0.2869
  184SLPC   H7S21137   2.966   5.058   9.576  0.6542  0.2499 -1.9610
  184SLPC   C2821138   3.125   4.976   9.488 -0.1538  0.1535 -0.4370
  184SLPC   H8R21139   3.068   4.973   9.392  0.7508  0.9623 -1.0198
  184SLPC   H8S21140   3.109   4.873   9.524 -2.6380  0.0900 -1.5213
  184SLPC   C2921141   3.273   5.003   9.444  0.1189 -0.3370 -0.7224
  184SLPC   H9R21142   3.345   5.005   9.527 -1.2504 -2.2415  0.6044
  184SLPC  C21021143   3.316   5.029   9.316  0.5423  0.4899  0.0745
  184SLPC  H10R21144   3.425   5.043   9.305  0.9950 -1.6098  1.2920
  184SLPC  C21121145   3.232   5.024   9.191 -0.6988  0.6135 -0.5566
  184SLPC  H11R21146   3.153   4.946   9.201  0.2555 -0.4159 -0.8012
  184SLPC  H11S21147   3.296   4.984   9.109 -1.4369 -1.5566 -0.1246
  184SLPC  C21221148   3.169   5.144   9.141  0.4373  0.0776  0.6736
  184SLPC  H12R21149   3.079   5.167   9.199  0.4037  0.6496  0.4057
  184SLPC  C21321150   3.207   5.225   9.038 -0.0391  0.3377  0.2539
  184SLPC  H13R21151   3.159   5.321   9.014  0.8146  0.1663 -2.5659
  184SLPC  C21421152   3.335   5.219   8.965  0.1163  0.9731 -0.0178
  184SLPC  H14R21153   3.397   5.131   8.992  0.3087  1.4349  1.1267
  184SLPC  H14S21154   3.401   5.304   8.996  1.4664  0.0113 -0.1428
  184SLPC  C21521155   3.314   5.224   8.813 -0.0026  0.1623 -0.3232
  184SLPC  H15R21156   3.254   5.315   8.792  2.5153  1.2907 -3.5554
  184SLPC  H15S21157   3.265   5.132   8.774 -1.4123  0.2304  1.1770
  184SLPC  C21621158   3.447   5.242   8.735  0.5981  0.3611 -0.2196
  184SLPC  H16R21159   3.473   5.349   8.749 -2.7292  1.2676 -0.1495
  184SLPC  H16S21160   3.418   5.225   8.629  0.5701 -1.4984  0.0444
  184SLPC  C21721161   3.554   5.143   8.772  0.2882  0.1036  0.3336
  184SLPC  H17R21162   3.513   5.040   8.778 -0.6496  0.4447 -0.0831
  184SLPC  H17S21163   3.588   5.167   8.875 -2.0316  3.0507  0.5221
  184SLPC  C21821164   3.673   5.154   8.668  0.6845  0.6247 -0.5294
  184SLPC  H18R21165   3.624   5.136   8.569  2.7326  1.3236 -1.7431
  184SLPC  H18S21166   3.754   5.080   8.684 -0.6956 -1.1228 -1.2622
  184SLPC  H18T21167   3.725   5.252   8.658 -1.3674  1.6639 -1.9682
  184SLPC   C3321168   2.448   5.114   9.960  0.6036 -0.3236  0.7150
  184SLPC   H3X21169   2.358   5.159   9.913  0.6615 -0.0623  0.8480
  184SLPC   H3Y21170   2.433   5.004   9.958 -1.5062 -0.0990  1.6858
  184SLPC   C3421171   2.581   5.162   9.899 -0.2021 -0.6562  0.0410
  184SLPC   H4X21172   2.672   5.124   9.951  2.0969  1.8229 -1.8657
  184SLPC   H4Y21173   2.596   5.272   9.894 -0.1935 -0.5982  1.0611
  184SLPC   C3521174   2.610   5.111   9.758  0.2116 -0.5963  0.0664
  184SLPC   H5X21175   2.596   5.001   9.762  1.7970 -0.7652  1.9812
  184SLPC   H5Y21176   2.713   5.123   9.719  0.2850 -2.6916 -0.5212
  184SLPC   C3621177   2.518   5.170   9.649 -0.4910  0.1376  0.5312
  184SLPC   H6X21178   2.525   5.279   9.669  2.5829 -0.1177  1.4281
  184SLPC   H6Y21179   2.413   5.135   9.658 -0.1365 -1.0069  0.4450
  184SLPC   C3721180   2.563   5.126   9.504 -0.7708  0.1444 -0.6357
  184SLPC   H7X21181   2.548   5.016   9.492 -1.7662  0.2197 -0.1641
  184SLPC   H7Y21182   2.670   5.146   9.481  0.0108 -1.3429  1.3709
  184SLPC   C3821183   2.484   5.204   9.400  0.2065  0.5314  0.0918
  184SLPC   H8X21184   2.538   5.300   9.385 -1.2697  1.3909  0.0266
  184SLPC   H8Y21185   2.381   5.228   9.434 -1.4953 -2.7816 -2.2126
  184SLPC   C3921186   2.485   5.127   9.265  0.3177 -0.4951  1.3245
  184SLPC   H9X21187   2.432   5.032   9.287  0.5019 -1.3059 -1.4378
  184SLPC   H9Y21188   2.589   5.111   9.231 -0.1507 -0.0677 -0.4035
  184SLPC  C31021189   2.405   5.195   9.153 -0.5745  0.2320  0.0100
  184SLPC  H10X21190   2.422   5.305   9.161  0.3050  0.1003 -0.0091
  184SLPC  H10Y21191   2.297   5.191   9.180  0.1098  0.9224  3.3264
  184SLPC  C31121192   2.439   5.132   9.014 -0.1567 -0.8917  0.0148
  184SLPC  H11X21193   2.433   5.022   9.026  2.5184 -0.8073  4.1269
  184SLPC  H11Y21194   2.546   5.151   8.991 -0.8014 -0.1178 -2.7031
  184SLPC  C31221195   2.339   5.172   8.909  0.0047  0.6522 -0.8640
  184SLPC  H12X21196   2.332   5.280   8.934  0.2730  0.0910  1.9483
  184SLPC  H12Y21197   2.240   5.127   8.929  0.4222 -0.8125 -1.8683
  184SLPC  C31321198   2.403   5.151   8.769  0.2509 -0.4785  0.2598
  184SLPC  H13X21199   2.380   5.051   8.727 -1.0720  0.8586 -2.4660
  184SLPC  H13Y21200   2.512   5.173   8.771 -0.0937  1.4336  1.9218
  184SLPC  C31421201   2.353   5.249   8.663  0.2122 -0.1637  0.8727
  184SLPC  H14X21202   2.352   5.348   8.715 -0.7973  0.3358 -0.0570
  184SLPC  H14Y21203   2.244   5.229   8.647  0.1767  1.1042 -0.7149
  184SLPC  C31521204   2.428   5.268   8.525  0.1959  0.1871  0.8508
  184SLPC  H15X21205   2.387   5.192   8.454 -0.7217  0.4314  1.1088
  184SLPC  H15Y21206   2.536   5.246   8.542  0.6388  1.0819 -0.6328
  184SLPC  C31621207   2.422   5.408   8.472  0.7543 -0.4391  0.1263
  184SLPC  H16X21208   2.434   5.486   8.551  1.0247 -1.0766  0.7257
  184SLPC  H16Y21209   2.327   5.428   8.419  1.1380 -0.9924 -0.7842
  184SLPC  C31721210   2.530   5.426   8.365  0.8015  0.4402  0.4660
  184SLPC  H17X21211   2.511   5.355   8.282  0.4093 -0.7709  1.5590
  184SLPC  H17Y21212   2.631   5.400   8.402  0.3041  0.7568  2.1059
  184SLPC  C31821213   2.533   5.567   8.304  0.2593 -0.3254 -0.4604
  184SLPC  H18X21214   2.554   5.644   8.381  1.8716 -1.4004  0.2302
  184SLPC  H18Y21215   2.439   5.600   8.256  1.4480  2.1483 -1.2866
  184SLPC  H18Z21216   2.619   5.575   8.234  0.0105 -0.3854 -0.7732
  185SLPC     N21217   1.083   1.730   6.318 -0.1174  0.1106  0.7138
  185SLPC   C1321218   1.004   1.628   6.241 -0.1205  0.5790  0.0695
  185SLPC  H13A21219   1.066   1.556   6.190  0.0017  1.2944 -0.8271
  185SLPC  H13B21220   0.952   1.571   6.316 -0.8888  4.2842  2.6151
  185SLPC  H13C21221   0.935   1.682   6.177  1.4163  3.0009  0.3274
  185SLPC   C1421222   0.983   1.814   6.390  0.2688 -0.3473 -0.0491
  185SLPC  H14A21223   0.912   1.753   6.444  0.8798  2.4801  4.5239
  185SLPC  H14B21224   1.039   1.873   6.461  2.7529 -1.3156 -1.1062
  185SLPC  H14C21225   0.933   1.882   6.323  2.5685 -0.4757 -2.0007
  185SLPC   C1521226   1.159   1.824   6.229  0.3120 -0.5115  0.3700
  185SLPC  H15A21227   1.238   1.789   6.164 -0.3255 -1.1377 -0.0933
  185SLPC  H15B21228   1.078   1.872   6.177 -1.6768 -1.4228  2.4357
  185SLPC  H15C21229   1.203   1.893   6.299 -2.3072  0.1634  1.4705
  185SLPC   C1221230   1.172   1.656   6.405  0.5792  0.8266  0.0333
  185SLPC  H12A21231   1.253   1.618   6.345  1.8270  4.9777 -1.2583
  185SLPC  H12B21232   1.130   1.566   6.448  2.6218 -0.4607 -0.5156
  185SLPC   C1121233   1.230   1.742   6.519 -0.8905 -0.0326  0.3136
  185SLPC  H11A21234   1.292   1.670   6.578  1.9700 -0.8225 -3.2986
  185SLPC  H11B21235   1.145   1.788   6.573  0.1314  3.4501 -0.7648
  185SLPC     P21236   1.467   1.862   6.477  0.4149  0.3039  0.3048
  185SLPC   O1321237   1.520   1.744   6.406 -0.1259 -0.3016  0.5129
  185SLPC   O1421238   1.504   1.998   6.432  0.1814  0.5938  0.4087
  185SLPC   O1221239   1.310   1.853   6.468 -0.6077  0.4627 -0.8193
  185SLPC   O1121240   1.505   1.845   6.627  0.3479 -0.2813  0.2659
  185SLPC    C121241   1.454   1.946   6.722 -0.4575 -0.0735 -0.3898
  185SLPC    HA21242   1.512   2.040   6.710  0.8787 -0.6274  1.4024
  185SLPC    HB21243   1.343   1.959   6.726 -0.3507  0.6652  0.6230
  185SLPC    C221244   1.469   1.902   6.870  0.4690 -0.2124  0.0829
  185SLPC    HS21245   1.577   1.887   6.893  0.6133 -0.6123 -0.7837
  185SLPC   O2121246   1.396   1.787   6.895  0.0140  0.2857  0.0063
  185SLPC   C2121247   1.457   1.671   6.907  0.1390  0.1774  0.1093
  185SLPC   O2221248   1.575   1.656   6.910 -0.1500  0.6802 -0.6033
  185SLPC   C2221249   1.346   1.562   6.906  0.1787  0.3743  0.7981
  185SLPC   H2R21250   1.252   1.618   6.926  0.6859  1.2625  0.7219
  185SLPC   H2S21251   1.345   1.525   6.801 -0.9996  2.9215 -0.1708
  185SLPC    C321252   1.418   2.014   6.964  0.2254  0.0817 -0.7261
  185SLPC    HX21253   1.312   2.035   6.941  0.4179 -0.1764 -1.9133
  185SLPC    HY21254   1.473   2.109   6.944  1.2036  0.1213  1.8238
  185SLPC   O3121255   1.454   1.988   7.101  0.0676  0.2708  0.0622
  185SLPC   C3121256   1.357   1.949   7.176  0.4652 -0.2143 -0.0925
  185SLPC   O3221257   1.240   1.928   7.138  0.0438  0.0947 -0.2718
  185SLPC   C3221258   1.420   1.913   7.312  0.3890  0.3287  0.0577
  185SLPC   H2X21259   1.397   2.001   7.376 -3.1602  0.0283 -0.6283
  185SLPC   H2Y21260   1.531   1.905   7.312  0.7862  3.7866 -1.2896
  185SLPC   C2321261   1.365   1.445   7.005 -0.5237  0.6913 -0.7432
  185SLPC   H3R21262   1.467   1.401   6.999  1.3747  4.5799  0.0405
  185SLPC   H3S21263   1.292   1.364   6.982  0.6016 -0.5423 -0.0874
  185SLPC   C2421264   1.353   1.489   7.152  0.2049 -0.1272 -0.2006
  185SLPC   H4R21265   1.267   1.555   7.174  0.0701  0.5512 -2.5091
  185SLPC   H4S21266   1.435   1.560   7.179 -0.6367  0.0415  2.1995
  185SLPC   C2521267   1.341   1.369   7.245  0.1335  0.3928 -0.5642
  185SLPC   H5R21268   1.439   1.346   7.291 -0.9878  1.4716  2.6230
  185SLPC   H5S21269   1.290   1.281   7.200 -1.0899  0.0394  1.3803
  185SLPC   C2621270   1.247   1.404   7.364 -0.0906 -0.5901 -0.0141
  185SLPC   H6R21271   1.148   1.428   7.319 -0.1322  2.9480  1.6198
  185SLPC   H6S21272   1.271   1.505   7.405 -1.0132 -0.6344  0.6644
  185SLPC   C2721273   1.222   1.304   7.477 -0.7391  0.2823 -0.3987
  185SLPC   H7R21274   1.267   1.205   7.451  0.8233  0.9854 -0.5256
  185SLPC   H7S21275   1.114   1.283   7.493 -0.8182 -0.3727 -1.6618
  185SLPC   C2821276   1.285   1.356   7.611  0.3016  0.9260 -1.0848
  185SLPC   H8R21277   1.393   1.376   7.593  0.5777  0.6625  0.1590
  185SLPC   H8S21278   1.286   1.272   7.684 -1.0300 -0.3421 -2.4567
  185SLPC   C2921279   1.208   1.471   7.668  0.3624 -0.7380 -0.6615
  185SLPC   H9R21280   1.165   1.544   7.598  0.1477  0.2070  0.4395
  185SLPC  C21021281   1.185   1.496   7.803 -0.4810 -0.5042  0.5191
  185SLPC  H10R21282   1.128   1.587   7.827  0.2250 -0.3176  1.5737
  185SLPC  C21121283   1.242   1.422   7.917  0.0029  0.1479 -0.2920
  185SLPC  H11R21284   1.333   1.363   7.897  0.0237 -0.2400  0.8930
  185SLPC  H11S21285   1.169   1.348   7.957  0.0294  1.4211  2.2887
  185SLPC  C21221286   1.278   1.523   8.023 -0.2850  0.0688  0.2550
  185SLPC  H12R21287   1.353   1.599   7.993  2.4608 -2.7593 -0.5610
  185SLPC  C21321288   1.242   1.513   8.149  0.4356  0.1301 -0.5127
  185SLPC  H13R21289   1.257   1.586   8.230 -0.0356  1.0116 -1.2071
  185SLPC  C21421290   1.157   1.399   8.206 -0.7325  0.3715 -0.1924
  185SLPC  H14R21291   1.102   1.337   8.131 -0.9594  0.0027  0.2735
  185SLPC  H14S21292   1.083   1.445   8.275  0.7654  0.8162  1.1559
  185SLPC  C21521293   1.231   1.297   8.298  0.2103  0.0851 -0.0911
  185SLPC  H15R21294   1.328   1.283   8.246 -0.2631 -0.4848 -0.8370
  185SLPC  H15S21295   1.167   1.206   8.301  1.3856 -0.9770 -3.2367
  185SLPC  C21621296   1.266   1.355   8.439  0.2883 -0.1370  0.4260
  185SLPC  H16R21297   1.172   1.402   8.477 -1.4147  0.0810 -3.6001
  185SLPC  H16S21298   1.351   1.426   8.440  0.1943  0.0383 -1.3744
  185SLPC  C21721299   1.317   1.236   8.526 -0.5294 -0.3866  0.2492
  185SLPC  H17R21300   1.363   1.281   8.617  0.9228 -2.1621  0.4507
  185SLPC  H17S21301   1.401   1.190   8.471  1.3540 -0.1428  2.7665
  185SLPC  C21821302   1.212   1.144   8.582 -0.7189 -0.8802  0.0355
  185SLPC  H18R21303   1.141   1.211   8.635  2.9055  2.2631  1.3629
  185SLPC  H18S21304   1.262   1.073   8.652 -1.9040 -0.3631  1.4646
  185SLPC  H18T21305   1.156   1.096   8.499 -0.7101  1.0009 -1.0982
  185SLPC   C3321306   1.355   1.795   7.387  0.0126  0.0137 -0.1002
  185SLPC   H3X21307   1.362   1.705   7.323 -0.8423 -1.1880  1.4157
  185SLPC   H3Y21308   1.249   1.812   7.414  0.4635 -1.6417  3.3408
  185SLPC   C3421309   1.426   1.767   7.514  0.6054  0.0368 -0.8630
  185SLPC   H4X21310   1.536   1.762   7.501  1.0265  1.9662  1.2353
  185SLPC   H4Y21311   1.388   1.666   7.541 -0.0313 -0.0268 -1.9396
  185SLPC   C3521312   1.407   1.878   7.624  0.9412  0.5216  0.3798
  185SLPC   H5X21313   1.300   1.902   7.637  0.3474 -1.3033 -0.8294
  185SLPC   H5Y21314   1.441   1.971   7.573 -1.9315  1.9561  0.8606
  185SLPC   C3621315   1.465   1.851   7.763 -0.6757  0.0349  0.0878
  185SLPC   H6X21316   1.571   1.816   7.755 -0.4925  0.5238  0.3342
  185SLPC   H6Y21317   1.400   1.781   7.819  1.7830 -2.4349  0.0812
  185SLPC   C3721318   1.482   1.985   7.841  0.0535  0.6422 -0.0387
  185SLPC   H7X21319   1.380   2.027   7.852  0.1708  1.3453 -1.4650
  185SLPC   H7Y21320   1.551   2.061   7.799  1.7109  0.4088  2.0836
  185SLPC   C3821321   1.555   1.969   7.974  0.0589  0.3441 -0.7322
  185SLPC   H8X21322   1.575   2.070   8.015  1.0033 -0.4805  0.9353
  185SLPC   H8Y21323   1.650   1.914   7.957  0.2547  0.9261 -1.5960
  185SLPC   C3921324   1.472   1.890   8.077  1.4473 -0.5764 -0.9711
  185SLPC   H9X21325   1.528   1.800   8.110  2.0454  1.0751  3.1758
  185SLPC   H9Y21326   1.374   1.859   8.036  0.9337  1.6758 -1.5446
  185SLPC  C31021327   1.441   1.976   8.206  1.6126  1.0329  0.1905
  185SLPC  H10X21328   1.408   2.080   8.185 -2.1828 -0.2324 -0.8649
  185SLPC  H10Y21329   1.538   1.994   8.258  1.2284 -0.5856  1.5820
  185SLPC  C31121330   1.335   1.902   8.303  0.7030 -0.3128  0.0267
  185SLPC  H11X21331   1.345   1.938   8.407 -0.7493 -0.3489  0.2073
  185SLPC  H11Y21332   1.354   1.793   8.305  1.2130 -0.2056  1.1218
  185SLPC  C31221333   1.186   1.931   8.270  0.3804  0.0286 -0.1750
  185SLPC  H12X21334   1.152   1.887   8.174 -0.1741 -0.1391  0.0929
  185SLPC  H12Y21335   1.176   2.040   8.251  0.3586  0.3581  1.5265
  185SLPC  C31321336   1.093   1.909   8.385 -0.4716 -0.4629 -0.6057
  185SLPC  H13X21337   0.985   1.913   8.360 -1.1493  0.4952  2.1416
  185SLPC  H13Y21338   1.112   1.984   8.465  1.4090  1.0385 -2.3589
  185SLPC  C31421339   1.120   1.773   8.456 -0.3044  0.4776  0.0321
  185SLPC  H14X21340   1.221   1.783   8.503 -0.7024  0.0378  1.0030
  185SLPC  H14Y21341   1.117   1.692   8.380  0.9657 -0.0547  0.5218
  185SLPC  C31521342   1.018   1.742   8.564 -0.0504  0.0768 -0.3536
  185SLPC  H15X21343   1.039   1.649   8.621  2.9974  1.4138  0.8981
  185SLPC  H15Y21344   0.918   1.725   8.519 -0.2692 -0.4579  0.3208
  185SLPC  C31621345   0.998   1.854   8.672 -0.0103  0.0184  0.4609
  185SLPC  H16X21346   0.960   1.945   8.621 -0.1167 -0.2805 -0.0007
  185SLPC  H16Y21347   1.090   1.871   8.732  1.1104 -2.8271 -0.2786
  185SLPC  C31721348   0.887   1.813   8.776  0.8219  0.6950  0.3694
  185SLPC  H17X21349   0.898   1.876   8.867  1.1474  2.8256 -1.0864
  185SLPC  H17Y21350   0.910   1.706   8.798 -0.7592  1.0351  4.8233
  185SLPC  C31821351   0.740   1.819   8.723 -0.3142  0.4069 -0.6371
  185SLPC  H18X21352   0.741   1.754   8.633  0.6335  0.0749 -0.3921
  185SLPC  H18Y21353   0.697   1.920   8.703 -1.3861 -0.0480 -0.6937
  185SLPC  H18Z21354   0.671   1.775   8.799  1.0648  0.8443  0.9174
  186SLPC     N21355   2.430   4.118   6.010  0.2985 -0.1903 -0.5301
  186SLPC   C1321356   2.539   4.115   5.916 -0.0104  0.2856 -0.0186
  186SLPC  H13A21357   2.602   4.030   5.938 -0.5972  0.4475  2.5695
  186SLPC  H13B21358   2.504   4.104   5.814  0.0491 -0.0438 -0.0048
  186SLPC  H13C21359   2.609   4.198   5.927 -0.8182  0.8764  0.8213
  186SLPC   C1421360   2.358   3.988   5.997 -0.1574 -0.4333 -0.5344
  186SLPC  H14A21361   2.411   3.902   6.037 -0.5975 -0.9222 -0.9940
  186SLPC  H14B21362   2.258   3.996   6.038 -0.5796 -0.7932 -1.4740
  186SLPC  H14C21363   2.340   3.954   5.897 -1.9114  0.7142 -0.6475
  186SLPC   C1521364   2.339   4.227   5.977 -0.8138 -0.0434  0.6199
  186SLPC  H15A21365   2.390   4.322   5.964  0.3818 -0.7809 -0.2263
  186SLPC  H15B21366   2.291   4.218   5.881  0.6547  1.9523 -0.3771
  186SLPC  H15C21367   2.258   4.234   6.049 -0.4530 -3.6445  1.5888
  186SLPC   C1221368   2.478   4.138   6.152 -0.7507 -0.3213  0.2291
  186SLPC  H12A21369   2.517   4.236   6.171  1.8272 -1.8677  4.0593
  186SLPC  H12B21370   2.565   4.078   6.174  0.5082  1.2209 -0.3906
  186SLPC   C1121371   2.383   4.136   6.271 -0.4342 -0.1114  0.4110
  186SLPC  H11A21372   2.439   4.160   6.364 -0.5596  0.7360  0.2775
  186SLPC  H11B21373   2.346   4.032   6.271  1.1490 -0.7133 -1.0375
  186SLPC     P21374   2.120   4.192   6.258  0.0636 -0.4253 -0.0397
  186SLPC   O1321375   2.035   4.312   6.226 -0.5376  0.1854 -0.5544
  186SLPC   O1421376   2.105   4.066   6.180 -0.2262 -0.0165  0.1962
  186SLPC   O1221377   2.278   4.232   6.262  0.2110  0.6561  0.6958
  186SLPC   O1121378   2.092   4.154   6.415 -0.3362  0.0413  0.4654
  186SLPC    C121379   2.176   4.208   6.515 -0.1315  0.7827 -0.3068
  186SLPC    HA21380   2.234   4.123   6.559 -1.1977  0.9278  1.4633
  186SLPC    HB21381   2.244   4.287   6.478 -0.7771  1.4226 -0.1383
  186SLPC    C221382   2.088   4.277   6.631  0.0713  0.4111 -0.3637
  186SLPC    HS21383   2.159   4.326   6.700  0.0573  0.1396 -0.1557
  186SLPC   O2121384   2.012   4.176   6.707 -0.6078 -0.4212  0.2398
  186SLPC   C2121385   2.097   4.102   6.784  0.8944  0.4332 -0.3526
  186SLPC   O2221386   2.211   4.126   6.800 -0.4291 -0.1346  0.1975
  186SLPC   C2221387   2.022   3.979   6.833 -0.2444 -0.0344  0.4537
  186SLPC   H2R21388   2.005   3.913   6.745 -0.4785 -0.4425  0.7999
  186SLPC   H2S21389   2.092   3.923   6.899 -0.3496 -1.3597 -0.5233
  186SLPC    C321390   1.986   4.372   6.565  0.2617 -0.4493  0.2516
  186SLPC    HX21391   1.923   4.315   6.493  1.1930 -1.4283  0.1848
  186SLPC    HY21392   2.050   4.439   6.503 -2.1644  0.6839 -1.1473
  186SLPC   O3121393   1.894   4.431   6.665  0.4088  0.3565 -0.0433
  186SLPC   C3121394   1.937   4.536   6.723 -0.2092 -0.5073  0.8974
  186SLPC   O3221395   2.037   4.600   6.699  0.1983  0.0963  0.3387
  186SLPC   C3221396   1.838   4.586   6.835  0.6901  0.4325  0.0498
  186SLPC   H2X21397   1.753   4.515   6.850 -0.3325  1.6874  0.3813
  186SLPC   H2Y21398   1.802   4.679   6.787  1.6543  0.4374 -0.6790
  186SLPC   C2321399   1.891   4.021   6.898  0.3276  0.2453  0.0259
  186SLPC   H3R21400   1.828   3.930   6.916 -0.8494  1.0974  0.3757
  186SLPC   H3S21401   1.828   4.084   6.832  2.0454  1.8210 -0.1624
  186SLPC   C2421402   1.903   4.082   7.044  0.3745 -0.7303  0.5000
  186SLPC   H4R21403   1.831   4.164   7.061  2.1044  0.6547  1.5176
  186SLPC   H4S21404   2.004   4.127   7.051  1.6285 -3.1233 -0.6590
  186SLPC   C2521405   1.903   3.985   7.161 -0.3584  0.0558 -0.2039
  186SLPC   H5R21406   1.991   3.921   7.144 -0.6360 -1.0324  2.0429
  186SLPC   H5S21407   1.813   3.920   7.151 -0.1577 -0.1162 -0.9589
  186SLPC   C2621408   1.911   4.032   7.308  0.6123 -0.2485  1.1908
  186SLPC   H6R21409   2.016   4.064   7.327  0.2188  0.2556  2.6699
  186SLPC   H6S21410   1.893   3.937   7.363  1.6384 -0.4918  1.1288
  186SLPC   C2721411   1.809   4.134   7.354 -0.2014 -0.6460  0.0296
  186SLPC   H7R21412   1.710   4.101   7.315  0.9970 -2.1828 -1.8938
  186SLPC   H7S21413   1.831   4.230   7.302  0.7334  0.2274  1.9403
  186SLPC   C2821414   1.816   4.168   7.509 -0.3632  1.1432 -0.2531
  186SLPC   H8R21415   1.923   4.157   7.536 -0.3214 -0.4981 -0.9502
  186SLPC   H8S21416   1.773   4.077   7.555 -0.8954  2.1966  1.4334
  186SLPC   C2921417   1.749   4.286   7.557 -0.0296  0.1866 -0.2015
  186SLPC   H9R21418   1.673   4.331   7.492 -0.5146 -0.3312 -0.0019
  186SLPC  C21021419   1.744   4.320   7.689  0.2968 -0.4597 -0.6816
  186SLPC  H10R21420   1.703   4.422   7.700  0.8787 -0.1351 -1.4285
  186SLPC  C21121421   1.797   4.267   7.818 -0.0256 -0.0444 -0.3446
  186SLPC  H11R21422   1.794   4.354   7.887  2.3072  0.8753 -1.2874
  186SLPC  H11S21423   1.904   4.240   7.807 -0.1427 -0.1209 -1.4339
  186SLPC  C21221424   1.727   4.141   7.866 -0.3060  0.1116 -0.2020
  186SLPC  H12R21425   1.730   4.059   7.793 -2.5154  1.0586 -1.4764
  186SLPC  C21321426   1.670   4.116   7.985 -0.2782 -0.5175  0.1332
  186SLPC  H13R21427   1.646   4.010   8.001  2.8129 -2.0944 -3.8854
  186SLPC  C21421428   1.664   4.213   8.101 -0.3121  0.2243 -0.1454
  186SLPC  H14R21429   1.572   4.182   8.154 -0.6426  0.4928 -0.5508
  186SLPC  H14S21430   1.661   4.320   8.070 -1.2423 -0.1409 -1.4287
  186SLPC  C21521431   1.778   4.187   8.194 -0.5678 -1.0100 -0.1954
  186SLPC  H15R21432   1.871   4.224   8.146 -1.5534  1.0384 -0.6485
  186SLPC  H15S21433   1.800   4.079   8.207  0.6939 -0.4560  3.1585
  186SLPC  C21621434   1.773   4.273   8.325 -0.1571 -0.3092  0.3650
  186SLPC  H16R21435   1.694   4.349   8.308  1.6878  1.3068 -1.5182
  186SLPC  H16S21436   1.867   4.330   8.342 -0.5891  0.5343 -0.0412
  186SLPC  C21721437   1.739   4.196   8.456  0.0807  0.6048  0.3535
  186SLPC  H17R21438   1.832   4.138   8.477  0.8881  1.5005 -0.6541
  186SLPC  H17S21439   1.653   4.129   8.432 -0.3929  1.8172 -1.4700
  186SLPC  C21821440   1.714   4.296   8.573  0.2257  0.0738  0.1825
  186SLPC  H18R21441   1.658   4.241   8.652 -0.1823  0.8385  0.4393
  186SLPC  H18S21442   1.633   4.365   8.542 -0.4093 -1.0645 -0.7724
  186SLPC  H18T21443   1.799   4.350   8.620  0.1003 -0.1405  0.6648
  186SLPC   C3321444   1.909   4.618   6.964 -0.1230 -0.2728 -0.4818
  186SLPC   H3X21445   1.834   4.650   7.039 -0.4823 -0.8221 -0.6007
  186SLPC   H3Y21446   1.979   4.703   6.950  1.0994 -0.8918  1.3794
  186SLPC   C3421447   1.987   4.502   7.031 -0.2708 -0.5575  0.5335
  186SLPC   H4X21448   2.079   4.502   6.970 -1.4692 -1.9270 -1.3798
  186SLPC   H4Y21449   1.954   4.397   7.018  3.2271 -1.9100  1.4594
  186SLPC   C3521450   2.012   4.529   7.174 -0.2222  0.4948 -0.0924
  186SLPC   H5X21451   1.920   4.513   7.236  0.7980 -1.4988  1.0260
  186SLPC   H5Y21452   2.049   4.633   7.186  1.8154 -0.0899 -0.9937
  186SLPC   C3621453   2.118   4.435   7.229  0.3318 -0.6190  0.6098
  186SLPC   H6X21454   2.204   4.438   7.158  0.7546 -0.4953  1.1257
  186SLPC   H6Y21455   2.083   4.330   7.223 -0.5995 -0.2335 -2.9497
  186SLPC   C3721456   2.164   4.479   7.365 -0.5441 -0.3776 -0.6604
  186SLPC   H7X21457   2.160   4.588   7.383 -1.7699 -0.6690  0.9905
  186SLPC   H7Y21458   2.268   4.443   7.379 -0.8907 -0.7127  1.3477
  186SLPC   C3821459   2.079   4.404   7.469 -1.1995 -0.2093 -0.3186
  186SLPC   H8X21460   2.095   4.294   7.461 -1.0901 -0.1570 -0.8387
  186SLPC   H8Y21461   1.973   4.431   7.450 -0.5196  2.2717 -0.9594
  186SLPC   C3921462   2.116   4.439   7.614  0.7158 -0.3391 -0.2734
  186SLPC   H9X21463   2.222   4.419   7.640  0.3475 -1.0413  0.7283
  186SLPC   H9Y21464   2.059   4.377   7.686  4.5457 -2.7443  0.9425
  186SLPC  C31021465   2.080   4.591   7.645  0.2602  0.0798 -1.0081
  186SLPC  H10X21466   1.984   4.621   7.596  0.2033 -1.0725 -1.6594
  186SLPC  H10Y21467   2.160   4.648   7.593 -0.1376  0.6462 -1.0050
  186SLPC  C31121468   2.078   4.636   7.794  0.1194 -0.3988 -1.0199
  186SLPC  H11X21469   2.078   4.746   7.814 -0.1743 -0.5557 -0.1116
  186SLPC  H11Y21470   2.176   4.603   7.835  1.2632  2.2774 -1.3793
  186SLPC  C31221471   1.973   4.588   7.893 -0.1671  0.2665  1.0529
  186SLPC  H12X21472   2.002   4.484   7.916  1.5873  1.0915  2.8891
  186SLPC  H12Y21473   1.874   4.589   7.841  0.1444 -0.6511  0.4200
  186SLPC  C31321474   1.979   4.653   8.036  0.1587 -0.2112  0.3413
  186SLPC  H13X21475   1.940   4.757   8.036 -0.2410 -0.3369  1.9972
  186SLPC  H13Y21476   2.087   4.655   8.062  1.2704  0.0732 -3.5835
  186SLPC  C31421477   1.907   4.580   8.140 -0.0609 -0.1400 -0.0456
  186SLPC  H14X21478   1.935   4.473   8.155 -1.2063 -0.2857  1.2097
  186SLPC  H14Y21479   1.800   4.562   8.115 -0.0011 -1.6317  0.6433
  186SLPC  C31521480   1.931   4.660   8.263 -0.6544 -0.2914  0.6178
  186SLPC  H15X21481   1.871   4.620   8.348 -0.3378  1.4746  1.7155
  186SLPC  H15Y21482   1.900   4.766   8.256 -0.3301  0.0507  3.4611
  186SLPC  C31621483   2.077   4.657   8.313 -0.0523 -0.4423  0.1265
  186SLPC  H16X21484   2.139   4.730   8.256  0.1973 -1.1220 -0.4890
  186SLPC  H16Y21485   2.119   4.559   8.285  1.1497 -0.0911  0.6407
  186SLPC  C31721486   2.086   4.662   8.468 -0.2747  0.5852 -0.2910
  186SLPC  H17X21487   2.193   4.654   8.494 -0.7669 -1.6725  1.3446
  186SLPC  H17Y21488   2.034   4.583   8.526  0.0112  1.2634  0.9304
  186SLPC  C31821489   2.045   4.806   8.524  0.0184 -0.3253  0.0716
  186SLPC  H18X21490   1.941   4.831   8.494 -0.8452 -0.9647  2.3613
  186SLPC  H18Y21491   2.103   4.894   8.490 -0.5847  1.0976  2.5091
  186SLPC  H18Z21492   2.047   4.805   8.635  0.8052  0.2423  0.0679
  187SLPC     N21493   2.484   1.068   6.200 -0.1866  0.3583  0.0561
  187SLPC   C1321494   2.430   1.014   6.072 -0.5233  0.2497  0.0455
  187SLPC  H13A21495   2.508   1.020   5.998 -0.5766 -0.5441 -0.0793
  187SLPC  H13B21496   2.377   0.920   6.076 -1.1179  0.5688 -0.2663
  187SLPC  H13C21497   2.362   1.083   6.023 -0.5187 -0.8079 -1.5078
  187SLPC   C1421498   2.368   1.123   6.277 -0.6644 -0.2066  0.3805
  187SLPC  H14A21499   2.319   1.199   6.218  2.9925  1.3973 -0.8716
  187SLPC  H14B21500   2.309   1.034   6.297 -0.3316 -0.9937 -1.9373
  187SLPC  H14C21501   2.399   1.156   6.375  0.3784 -1.8969  0.6531
  187SLPC   C1521502   2.570   1.189   6.165  0.0860 -0.6857 -0.0419
  187SLPC  H15A21503   2.506   1.254   6.107  1.9495 -0.0790 -1.5215
  187SLPC  H15B21504   2.604   1.233   6.258 -0.2520  0.3654 -0.3990
  187SLPC  H15C21505   2.650   1.161   6.098 -0.5179 -0.0919 -1.0501
  187SLPC   C1221506   2.556   0.963   6.285 -0.2113 -0.1242  0.0504
  187SLPC  H12A21507   2.614   0.899   6.221  1.1198  2.4107 -1.4406
  187SLPC  H12B21508   2.479   0.904   6.332 -0.4639  1.6636  2.0334
  187SLPC   C1121509   2.656   1.009   6.401 -0.4879 -0.6566  0.7044
  187SLPC  H11A21510   2.753   1.034   6.353 -0.9799 -0.0474  0.0099
  187SLPC  H11B21511   2.682   0.927   6.472 -2.8174  0.7463  3.3903
  187SLPC     P21512   2.684   1.211   6.564 -0.2562  0.6087  0.3823
  187SLPC   O1321513   2.825   1.201   6.523  0.0934 -0.2969 -0.0873
  187SLPC   O1421514   2.621   1.344   6.567 -0.6214 -0.4995  0.5074
  187SLPC   O1221515   2.609   1.127   6.468 -0.0991  0.1890  0.2736
  187SLPC   O1121516   2.664   1.144   6.702 -0.7424  0.5173 -0.0870
  187SLPC    C121517   2.551   1.075   6.742 -0.2772  0.6589 -1.1125
  187SLPC    HA21518   2.477   1.154   6.768 -1.4828 -0.7763  0.0187
  187SLPC    HB21519   2.508   1.007   6.666 -2.0404 -1.7299  1.7590
  187SLPC    C221520   2.578   0.982   6.867  0.0565  0.0655  0.8485
  187SLPC    HS21521   2.489   0.915   6.878  0.4574 -0.7734 -0.6577
  187SLPC   O2121522   2.603   1.054   6.994 -0.4022  0.4180 -0.0515
  187SLPC   C2121523   2.493   1.113   7.039 -0.3492 -0.6645  0.9708
  187SLPC   O2221524   2.383   1.121   6.982 -0.4517  0.1341 -0.2260
  187SLPC   C2221525   2.528   1.156   7.185 -0.2072 -0.2873  0.5358
  187SLPC   H2R21526   2.638   1.156   7.199 -0.5616 -0.6146  4.2683
  187SLPC   H2S21527   2.481   1.257   7.185  1.2918  0.5171 -2.5804
  187SLPC    C321528   2.701   0.887   6.844 -0.5454 -0.6785  0.5633
  187SLPC    HX21529   2.789   0.953   6.827 -1.0971 -0.0589  0.0685
  187SLPC    HY21530   2.679   0.845   6.744  1.3803  2.6405 -1.4470
  187SLPC   O3121531   2.703   0.786   6.942  0.2418  0.1299 -0.3168
  187SLPC   C3121532   2.816   0.765   7.004 -0.3931 -0.1763 -0.9039
  187SLPC   O3221533   2.923   0.814   6.986 -0.1300 -0.4559  0.0914
  187SLPC   C3221534   2.768   0.656   7.102  0.5981  0.1558  0.0591
  187SLPC   H2X21535   2.772   0.557   7.051  1.0477  0.1223  0.1506
  187SLPC   H2Y21536   2.665   0.677   7.138  1.1364  0.3819  1.5322
  187SLPC   C2321537   2.472   1.051   7.289 -0.0751 -0.3397  0.0022
  187SLPC   H3R21538   2.511   1.077   7.390  2.1931  4.2463 -1.7703
  187SLPC   H3S21539   2.511   0.955   7.248 -1.5408  0.0104 -2.4332
  187SLPC   C2421540   2.314   1.056   7.297  0.1377 -0.3846  0.2315
  187SLPC   H4R21541   2.275   0.983   7.372 -0.7138 -0.3295 -0.1395
  187SLPC   H4S21542   2.286   1.017   7.197 -1.0579  1.7627 -0.3368
  187SLPC   C2521543   2.247   1.192   7.320 -0.1142  0.1420  0.5788
  187SLPC   H5R21544   2.138   1.176   7.308  0.4889 -4.5884 -0.2310
  187SLPC   H5S21545   2.273   1.274   7.249 -0.4401  0.0452  0.3446
  187SLPC   C2621546   2.273   1.255   7.462  0.3809  0.0104  0.0340
  187SLPC   H6R21547   2.243   1.361   7.475 -1.4790 -0.4272 -0.4928
  187SLPC   H6S21548   2.383   1.246   7.480  0.5805 -0.3555 -1.2624
  187SLPC   C2721549   2.204   1.177   7.573 -0.4011  0.5049  1.0073
  187SLPC   H7R21550   2.256   1.079   7.576 -1.8586 -0.2830  1.2922
  187SLPC   H7S21551   2.101   1.165   7.533  0.7312 -0.7262 -1.8306
  187SLPC   C2821552   2.209   1.253   7.710  0.1800  0.3523  0.3050
  187SLPC   H8R21553   2.149   1.346   7.715  1.8551  1.4595  0.7016
  187SLPC   H8S21554   2.314   1.286   7.729  1.2462 -1.1987 -2.3538
  187SLPC   C2921555   2.153   1.157   7.815 -0.3036  0.4796  0.3709
  187SLPC   H9R21556   2.043   1.156   7.813 -0.4853  0.5867  3.6932
  187SLPC  C21021557   2.210   1.087   7.914 -0.1249  0.4706 -0.4939
  187SLPC  H10R21558   2.148   1.037   7.990  2.6018  0.9491  2.2541
  187SLPC  C21121559   2.359   1.058   7.938 -0.3261  0.1309 -0.1087
  187SLPC  H11R21560   2.404   1.036   7.838 -0.6931  1.2270 -0.5273
  187SLPC  H11S21561   2.360   0.965   7.998 -0.4094  0.2723  0.1135
  187SLPC  C21221562   2.452   1.157   7.999 -0.1400  0.3288  0.0902
  187SLPC  H12R21563   2.490   1.229   7.925 -1.2717  0.9062  0.0444
  187SLPC  C21321564   2.499   1.151   8.127  1.0425  0.2385 -0.6488
  187SLPC  H13R21565   2.562   1.230   8.171 -1.7749  1.3658  1.7102
  187SLPC  C21421566   2.450   1.046   8.224 -0.2390  0.4636  0.1043
  187SLPC  H14R21567   2.506   0.952   8.204  1.0006  0.9753  1.0667
  187SLPC  H14S21568   2.346   1.017   8.196  0.1730  0.2031 -1.2155
  187SLPC  C21521569   2.460   1.088   8.373 -0.7548  0.9796  0.0477
  187SLPC  H15R21570   2.410   1.185   8.391  1.8681  2.3287  0.6200
  187SLPC  H15S21571   2.566   1.110   8.396 -0.6988 -0.6454  1.5908
  187SLPC  C21621572   2.405   0.977   8.469  0.3245  0.0966  0.0839
  187SLPC  H16R21573   2.444   0.975   8.573 -1.1907  1.3415  0.7120
  187SLPC  H16S21574   2.458   0.887   8.434  0.3029 -0.2285  0.8585
  187SLPC  C21721575   2.251   0.961   8.471 -0.3994 -0.0781 -0.5618
  187SLPC  H17R21576   2.214   0.942   8.368  0.6500 -0.2354 -0.9203
  187SLPC  H17S21577   2.204   1.051   8.516  0.0695 -0.3828  0.5627
  187SLPC  C21821578   2.197   0.844   8.556  0.3319 -0.2005  0.3923
  187SLPC  H18R21579   2.092   0.829   8.523  1.2759 -1.4860 -2.3006
  187SLPC  H18S21580   2.212   0.874   8.662  0.9745 -2.1984  0.9121
  187SLPC  H18T21581   2.250   0.750   8.531  0.2021  0.3502 -2.1927
  187SLPC   C3321582   2.849   0.655   7.230 -0.2989 -0.0234 -0.2131
  187SLPC   H3X21583   2.841   0.749   7.289 -1.1741  0.2307 -0.7006
  187SLPC   H3Y21584   2.957   0.634   7.220 -0.5869 -0.9666 -1.5996
  187SLPC   C3421585   2.797   0.550   7.332 -0.4918 -0.5631  0.6764
  187SLPC   H4X21586   2.827   0.448   7.301 -0.7085 -0.2681 -0.5606
  187SLPC   H4Y21587   2.687   0.566   7.335 -0.5659 -1.0048  0.3352
  187SLPC   C3521588   2.872   0.575   7.465 -0.7050  0.3108 -0.4097
  187SLPC   H5X21589   2.872   0.682   7.495 -1.7680  0.2796 -0.2546
  187SLPC   H5Y21590   2.976   0.546   7.438 -0.0394  1.1238  1.1700
  187SLPC   C3621591   2.820   0.487   7.580 -0.2535 -0.9729  0.6139
  187SLPC   H6X21592   2.791   0.391   7.534 -2.3085  0.2584 -0.8426
  187SLPC   H6Y21593   2.730   0.537   7.622 -0.2588 -0.2125 -0.2595
  187SLPC   C3721594   2.920   0.469   7.694  0.1453 -0.2510  0.1144
  187SLPC   H7X21595   3.007   0.408   7.662  1.2913 -0.0152  2.5122
  187SLPC   H7Y21596   2.942   0.569   7.738 -0.9302  0.4550 -0.8899
  187SLPC   C3821597   2.853   0.393   7.806 -0.8010 -0.5414 -0.1582
  187SLPC   H8X21598   2.801   0.298   7.781 -0.8492 -0.2945 -1.0397
  187SLPC   H8Y21599   2.776   0.454   7.858 -0.1680 -0.2588  0.4592
  187SLPC   C3921600   2.962   0.363   7.914  0.5970 -0.4731 -0.0589
  187SLPC   H9X21601   2.992   0.461   7.956 -0.3519 -0.4376  0.5687
  187SLPC   H9Y21602   3.041   0.304   7.863  0.0070  0.1252 -1.7490
  187SLPC  C31021603   2.912   0.284   8.040  0.3797 -0.5018  0.1519
  187SLPC  H10X21604   2.861   0.199   7.989  0.1925  0.7874 -1.9628
  187SLPC  H10Y21605   2.831   0.339   8.093 -0.5223  0.0478 -1.6936
  187SLPC  C31121606   3.024   0.234   8.128  0.0842 -0.5532 -0.6575
  187SLPC  H11X21607   3.093   0.317   8.155 -1.1908  0.0274  0.9967
  187SLPC  H11Y21608   3.086   0.161   8.072 -1.4980 -1.3306 -1.4625
  187SLPC  C31221609   2.968   0.157   8.246 -0.3614  0.1985 -0.7628
  187SLPC  H12X21610   3.051   0.105   8.298  2.2904  4.7647  0.1283
  187SLPC  H12Y21611   2.906   0.081   8.195  0.1515  0.6964 -2.2113
  187SLPC  C31321612   2.898   0.247   8.346 -0.0965 -0.4719  0.2408
  187SLPC  H13X21613   2.805   0.279   8.294  0.4740  1.6134  0.3769
  187SLPC  H13Y21614   2.951   0.343   8.369 -0.9253  0.2813 -0.8930
  187SLPC  C31421615   2.864   0.173   8.475  0.0266 -0.8243  0.2179
  187SLPC  H14X21616   2.969   0.147   8.501  0.5024 -0.4442 -1.2171
  187SLPC  H14Y21617   2.800   0.084   8.456 -2.6702  1.3088 -1.4329
  187SLPC  C31521618   2.780   0.259   8.572 -0.2315  0.7054  0.1700
  187SLPC  H15X21619   2.679   0.261   8.526  0.0506 -1.9161 -0.6944
  187SLPC  H15Y21620   2.827   0.360   8.572  1.2289  0.0878 -1.2580
  187SLPC  C31621621   2.759   0.200   8.715 -0.0409  0.1425  0.3829
  187SLPC  H16X21622   2.740   0.091   8.708 -0.5433  0.3125 -1.5179
  187SLPC  H16Y21623   2.664   0.249   8.745 -0.6694  0.5069 -2.0004
  187SLPC  C31721624   2.878   0.235   8.805  0.3887 -0.5276 -0.4521
  187SLPC  H17X21625   2.869   0.344   8.825  2.6492  0.1690 -2.7365
  187SLPC  H17Y21626   2.975   0.214   8.756  0.9774  0.7789  0.1169
  187SLPC  C31821627   2.878   0.162   8.939 -0.3390  0.0268 -0.2488
  187SLPC  H18X21628   2.911   0.059   8.914  0.5338 -0.1115  1.3530
  187SLPC  H18Y21629   2.782   0.152   8.994 -1.2665  2.0695 -1.3783
  187SLPC  H18Z21630   2.953   0.206   9.008  0.9942  0.3672 -1.8475
  188SLPC     N21631   4.333   2.313   6.334 -0.1410  1.2473  0.0996
  188SLPC   C1321632   4.226   2.224   6.388 -0.4901  0.3040 -0.0291
  188SLPC  H13A21633   4.256   2.121   6.399  0.1186  0.7479  4.0786
  188SLPC  H13B21634   4.208   2.252   6.491  0.6506 -2.0232  0.8752
  188SLPC  H13C21635   4.135   2.228   6.330 -1.1604 -1.2941  0.8622
  188SLPC   C1421636   4.355   2.271   6.190 -0.0712 -0.6601  0.1891
  188SLPC  H14A21637   4.448   2.313   6.154 -0.0706  0.0063  0.9407
  188SLPC  H14B21638   4.383   2.167   6.185 -0.7079 -0.8006 -0.7146
  188SLPC  H14C21639   4.274   2.288   6.120 -0.1321 -0.6022  0.2733
  188SLPC   C1521640   4.467   2.298   6.400 -0.4272  0.3902  0.2977
  188SLPC  H15A21641   4.532   2.378   6.369 -0.6197  1.3143  2.1221
  188SLPC  H15B21642   4.463   2.307   6.508  1.7445  1.9814  0.3156
  188SLPC  H15C21643   4.511   2.200   6.386 -1.3936 -0.1937  1.1747
  188SLPC   C1221644   4.291   2.459   6.355  0.0782  0.6742 -0.3346
  188SLPC  H12A21645   4.364   2.519   6.302 -0.9222  0.5406 -1.9244
  188SLPC  H12B21646   4.287   2.486   6.460  2.0971  0.2541 -0.1051
  188SLPC   C1121647   4.156   2.493   6.298  0.7235  0.2259  0.4531
  188SLPC  H11A21648   4.084   2.410   6.317  2.1593 -1.7298 -2.0567
  188SLPC  H11B21649   4.160   2.508   6.188 -2.1156 -2.1317 -0.1172
  188SLPC     P21650   4.081   2.640   6.502  0.0512  0.1720  0.2029
  188SLPC   O1321651   4.183   2.581   6.586 -0.0620  0.1452  0.0682
  188SLPC   O1421652   4.048   2.787   6.520  0.5581 -0.3480  0.5295
  188SLPC   O1221653   4.124   2.623   6.352 -0.6797 -0.4150 -0.4970
  188SLPC   O1121654   3.942   2.561   6.500 -0.2608  0.1506  0.2691
  188SLPC    C121655   3.836   2.595   6.420  0.2560  0.0648  0.0032
  188SLPC    HA21656   3.862   2.668   6.341  1.7886  0.2269  0.6211
  188SLPC    HB21657   3.802   2.499   6.375  0.4985  0.2234 -0.5201
  188SLPC    C221658   3.717   2.637   6.505  0.8864 -0.3122  0.1948
  188SLPC    HS21659   3.742   2.736   6.547 -1.7165  1.1071 -1.3514
  188SLPC   O2121660   3.687   2.533   6.603 -0.2366  0.4907  0.2532
  188SLPC   C2121661   3.730   2.551   6.725  0.3394 -0.0895  1.5022
  188SLPC   O2221662   3.795   2.647   6.758 -0.3291  0.2313  0.4214
  188SLPC   C2221663   3.649   2.451   6.814  0.3194 -0.4966  0.2569
  188SLPC   H2R21664   3.543   2.472   6.786  0.5864  0.6559  0.0290
  188SLPC   H2S21665   3.688   2.350   6.790  0.5713 -0.0970 -1.1196
  188SLPC    C321666   3.593   2.673   6.423 -0.3177  0.6824 -0.1109
  188SLPC    HX21667   3.571   2.575   6.375  1.5962 -1.5500  3.1965
  188SLPC    HY21668   3.611   2.755   6.350  1.1522  1.5158  1.1520
  188SLPC   O3121669   3.488   2.719   6.510  0.1339  0.7723  0.2256
  188SLPC   C3121670   3.391   2.638   6.531  0.2420 -1.0109 -0.1619
  188SLPC   O3221671   3.378   2.521   6.495  0.7108  0.1702 -0.0589
  188SLPC   C3221672   3.300   2.717   6.629  0.3611  0.1877  0.2071
  188SLPC   H2X21673   3.225   2.644   6.667  0.0433  0.6298  0.4410
  188SLPC   H2Y21674   3.246   2.790   6.565  1.0897 -0.5303 -1.2836
  188SLPC   C2321675   3.680   2.484   6.967  0.5061 -0.1094 -0.3071
  188SLPC   H3R21676   3.653   2.590   6.989  0.4919 -0.4980  1.6950
  188SLPC   H3S21677   3.782   2.451   6.994  0.3905 -0.2641 -0.0478
  188SLPC   C2421678   3.589   2.408   7.067 -0.2574 -0.2019 -0.6110
  188SLPC   H4R21679   3.599   2.298   7.051  0.1176 -0.1937 -0.4367
  188SLPC   H4S21680   3.483   2.436   7.049  0.2332  0.1260 -3.5963
  188SLPC   C2521681   3.632   2.429   7.214 -0.3874 -0.6526  0.2962
  188SLPC   H5R21682   3.709   2.504   7.242 -0.2003 -0.4578 -0.6820
  188SLPC   H5S21683   3.683   2.335   7.243 -0.6463 -0.8259  0.1869
  188SLPC   C2621684   3.513   2.439   7.318  0.7718  0.3095  0.2416
  188SLPC   H6R21685   3.450   2.347   7.324  1.7492 -0.5940 -1.9003
  188SLPC   H6S21686   3.457   2.527   7.281  0.0086 -0.0292  0.5721
  188SLPC   C2721687   3.563   2.486   7.458 -0.4969  0.0517  0.1205
  188SLPC   H7R21688   3.612   2.585   7.443 -0.3140 -0.2585 -1.4216
  188SLPC   H7S21689   3.630   2.407   7.498 -1.4767 -0.5739  0.5618
  188SLPC   C2821690   3.453   2.494   7.564 -0.4080 -0.2283  0.1009
  188SLPC   H8R21691   3.500   2.500   7.665 -1.7827 -0.1468  0.7564
  188SLPC   H8S21692   3.399   2.398   7.578  0.9744 -0.8874  1.2832
  188SLPC   C2921693   3.354   2.607   7.540  0.2503 -0.2384 -0.1650
  188SLPC   H9R21694   3.265   2.570   7.489 -0.4023  0.7815  0.2025
  188SLPC  C21021695   3.360   2.736   7.569  0.2156  0.0191 -0.1131
  188SLPC  H10R21696   3.281   2.799   7.526  0.5524 -1.1330 -2.6307
  188SLPC  C21121697   3.465   2.805   7.654  0.1797 -0.3163  0.6730
  188SLPC  H11R21698   3.498   2.732   7.731 -0.2759 -0.4293  0.7626
  188SLPC  H11S21699   3.418   2.888   7.712  2.2440  2.5965 -1.5102
  188SLPC  C21221700   3.582   2.856   7.574  0.5371 -0.6353  0.2382
  188SLPC  H12R21701   3.603   2.780   7.498  0.5381 -3.1965  2.6495
  188SLPC  C21321702   3.633   2.982   7.579 -0.4164  0.3727 -0.4069
  188SLPC  H13R21703   3.720   2.999   7.514  0.3959 -1.3828  0.1662
  188SLPC  C21421704   3.604   3.089   7.680  0.4569  0.4816  1.1931
  188SLPC  H14R21705   3.598   3.030   7.774 -0.0289  0.5615  1.2184
  188SLPC  H14S21706   3.511   3.142   7.647  1.3557  0.7054 -1.2096
  188SLPC  C21521707   3.714   3.196   7.704  0.8570  0.3506  0.0265
  188SLPC  H15R21708   3.706   3.271   7.622  1.7872 -0.4791 -0.8449
  188SLPC  H15S21709   3.817   3.155   7.701 -0.3354 -3.3525  2.4452
  188SLPC  C21621710   3.692   3.263   7.843  0.3671  0.2208 -0.7768
  188SLPC  H16R21711   3.583   3.274   7.859  0.6216  0.8785  0.7110
  188SLPC  H16S21712   3.733   3.366   7.840 -0.3653  0.5822  0.8682
  188SLPC  C21721713   3.752   3.202   7.974  0.0702 -0.6274 -1.0851
  188SLPC  H17R21714   3.714   3.098   7.990  0.8525 -0.9766 -1.4438
  188SLPC  H17S21715   3.722   3.265   8.061 -0.0314 -2.1828  0.0558
  188SLPC  C21821716   3.901   3.199   7.980  0.6584  0.2846  0.3280
  188SLPC  H18R21717   3.943   3.239   7.886  0.4157 -2.2409 -0.9560
  188SLPC  H18S21718   3.940   3.095   7.987 -0.0805  0.0178  0.5476
  188SLPC  H18T21719   3.925   3.257   8.072  0.5359  0.2272  0.3960
  188SLPC   C3321720   3.375   2.774   6.744 -0.3465 -0.2909 -0.0572
  188SLPC   H3X21721   3.460   2.841   6.717  0.7865 -0.9322  1.6631
  188SLPC   H3Y21722   3.442   2.699   6.792  1.3818  0.3676 -1.3520
  188SLPC   C3421723   3.296   2.840   6.854  0.1646 -0.2283  0.3696
  188SLPC   H4X21724   3.205   2.778   6.869 -1.2423  1.2933 -1.3964
  188SLPC   H4Y21725   3.263   2.938   6.814 -0.3318 -0.8372 -0.7853
  188SLPC   C3521726   3.348   2.839   6.998  0.6983 -0.2562 -0.3700
  188SLPC   H5X21727   3.454   2.871   7.007  0.6569 -0.3950  0.9053
  188SLPC   H5Y21728   3.342   2.735   7.038 -0.1300  0.3619  1.2065
  188SLPC   C3621729   3.260   2.936   7.089  0.2472 -0.4633  0.3732
  188SLPC   H6X21730   3.151   2.915   7.084  0.2226 -0.1463 -0.8791
  188SLPC   H6Y21731   3.266   3.034   7.036 -1.7964  1.0048  2.6635
  188SLPC   C3721732   3.304   2.951   7.230 -0.4046  0.0757 -0.0352
  188SLPC   H7X21733   3.411   2.981   7.232  0.1045 -1.6578  1.4721
  188SLPC   H7Y21734   3.299   2.856   7.288  1.1522  0.7319  1.2739
  188SLPC   C3821735   3.226   3.062   7.304  0.1469 -0.2152  0.1002
  188SLPC   H8X21736   3.126   3.014   7.313 -0.6636  1.3757 -0.1223
  188SLPC   H8Y21737   3.208   3.155   7.247 -1.9260 -0.7805 -0.2662
  188SLPC   C3921738   3.282   3.091   7.446 -0.1041  0.1711 -0.0552
  188SLPC   H9X21739   3.371   3.157   7.439 -0.5431  0.6266 -1.9958
  188SLPC   H9Y21740   3.316   2.994   7.487  0.4604 -0.1087 -1.1466
  188SLPC  C31021741   3.189   3.141   7.555  0.3331  0.7895 -0.2786
  188SLPC  H10X21742   3.105   3.070   7.545  0.3770  0.7154 -0.1082
  188SLPC  H10Y21743   3.148   3.240   7.525  0.5291  0.2611 -2.5157
  188SLPC  C31121744   3.259   3.154   7.688  0.3004  0.8498  0.1557
  188SLPC  H11X21745   3.335   3.234   7.679  3.7549 -1.8276  2.6029
  188SLPC  H11Y21746   3.318   3.062   7.708 -1.1703 -0.4249 -1.1396
  188SLPC  C31221747   3.170   3.192   7.812 -0.2150  0.3109  0.3084
  188SLPC  H12X21748   3.092   3.118   7.841  0.6164  0.0983  2.1489
  188SLPC  H12Y21749   3.109   3.279   7.778 -1.1487  0.5625  2.4716
  188SLPC  C31321750   3.232   3.224   7.944 -0.4012  0.3359  0.4645
  188SLPC  H13X21751   3.152   3.232   8.021  0.3858 -2.7095  1.7695
  188SLPC  H13Y21752   3.283   3.322   7.930 -0.2078  0.2943  0.8657
  188SLPC  C31421753   3.342   3.124   7.981  0.1712 -0.1558 -0.9803
  188SLPC  H14X21754   3.387   3.155   8.077 -0.5952 -1.0115 -0.3281
  188SLPC  H14Y21755   3.421   3.114   7.904  0.7724  0.4378 -0.4533
  188SLPC  C31521756   3.281   2.983   8.005 -0.3918  0.7399 -0.1822
  188SLPC  H15X21757   3.210   2.962   7.921 -2.4747 -0.3084  1.7348
  188SLPC  H15Y21758   3.220   2.982   8.098 -0.1410  0.2076 -0.0180
  188SLPC  C31621759   3.379   2.867   8.016  0.5369  0.7422  0.3853
  188SLPC  H16X21760   3.436   2.855   8.111  1.8729 -4.0192 -0.7292
  188SLPC  H16Y21761   3.455   2.878   7.936 -0.5688  3.3380 -0.4046
  188SLPC  C31721762   3.316   2.727   7.993  0.7740  0.2067 -0.2700
  188SLPC  H17X21763   3.256   2.731   7.899  1.8656  0.3752 -0.9855
  188SLPC  H17Y21764   3.247   2.713   8.078 -0.9322  1.2220 -1.4239
  188SLPC  C31821765   3.412   2.611   7.992  0.0116 -0.1401 -0.3170
  188SLPC  H18X21766   3.370   2.516   7.955 -0.7144 -0.1246  0.4375
  188SLPC  H18Y21767   3.445   2.588   8.096  1.5551 -0.3139 -0.8192
  188SLPC  H18Z21768   3.508   2.630   7.939  0.8580 -1.9510  0.4661
  189SLPC     N21769   5.835   4.958   6.070 -0.4051 -0.5939  0.2949
  189SLPC   C1321770   5.820   4.971   6.220 -0.4435 -0.2766 -0.3965
  189SLPC  H13A21771   5.735   5.034   6.243  1.1503  1.4306  1.1079
  189SLPC  H13B21772   5.815   4.875   6.269 -0.1708  0.5110  1.2304
  189SLPC  H13C21773   5.904   5.018   6.268 -1.5450 -0.8196  2.2530
  189SLPC   C1421774   5.823   5.090   6.013 -0.1597  0.1617 -0.1804
  189SLPC  H14A21775   5.736   5.146   6.045  1.6392  2.3247  1.1733
  189SLPC  H14B21776   5.907   5.149   6.044  0.0511 -1.3958  2.4269
  189SLPC  H14C21777   5.821   5.080   5.905  0.4690 -2.5646  0.0080
  189SLPC   C1521778   5.734   4.872   6.012 -0.2866  0.7474 -0.0048
  189SLPC  H15A21779   5.701   4.796   6.082 -0.4273  1.4022  0.6549
  189SLPC  H15B21780   5.647   4.926   5.976 -0.1728  1.4110  0.7060
  189SLPC  H15C21781   5.777   4.821   5.927 -0.4576 -1.0824  0.9328
  189SLPC   C1221782   5.969   4.894   6.047 -0.3926  0.3418 -0.0884
  189SLPC  H12A21783   6.003   4.883   5.945  4.6276 -2.6539  1.5572
  189SLPC  H12B21784   5.961   4.791   6.079 -1.2870  0.2935 -0.4458
  189SLPC   C1121785   6.093   4.955   6.118  0.0661 -0.1951  0.8335
  189SLPC  H11A21786   6.116   5.056   6.078 -0.9870  0.0002  0.6992
  189SLPC  H11B21787   6.173   4.887   6.084 -0.4593  0.1073 -1.1244
  189SLPC     P21788   6.193   5.035   6.350  0.1397  0.3974  0.1362
  189SLPC   O1321789   6.327   4.971   6.334 -0.3340  0.5281  0.0065
  189SLPC   O1421790   6.182   5.181   6.311  0.5690  0.0446 -0.2710
  189SLPC   O1221791   6.087   4.955   6.265  0.1088  0.0682  0.3793
  189SLPC   O1121792   6.145   5.015   6.500  1.1513  0.3970 -0.1130
  189SLPC    C121793   6.001   5.025   6.512  0.2869  0.3250  0.7338
  189SLPC    HA21794   5.962   5.128   6.495  1.9926  0.7740 -0.8034
  189SLPC    HB21795   5.948   4.948   6.451 -1.1384  0.1222  2.1665
  189SLPC    C221796   5.939   4.986   6.650  0.5035  0.2947 -0.1305
  189SLPC    HS21797   5.836   5.027   6.640 -0.7828 -3.0811 -2.6472
  189SLPC   O2121798   6.010   5.050   6.761 -0.2020 -0.2106 -0.7941
  189SLPC   C2121799   5.941   5.077   6.869  0.5707 -0.4866  0.2799
  189SLPC   O2221800   5.814   5.065   6.874 -0.5781 -0.0114  0.0244
  189SLPC   C2221801   6.030   5.127   6.983 -0.1694  0.1454  0.3456
  189SLPC   H2R21802   6.129   5.160   6.943 -0.2708  1.1101  0.8618
  189SLPC   H2S21803   5.987   5.223   7.019 -0.1950 -0.2811  1.4873
  189SLPC    C321804   5.920   4.832   6.669 -0.0652  0.0583  0.0196
  189SLPC    HX21805   6.022   4.790   6.655  0.1348  0.2601  0.8372
  189SLPC    HY21806   5.855   4.795   6.587  0.8988  0.3953 -0.9256
  189SLPC   O3121807   5.873   4.799   6.801 -0.0469  0.1555  0.9153
  189SLPC   C3121808   5.738   4.799   6.805  0.7966  1.1350  0.5889
  189SLPC   O3221809   5.662   4.834   6.715 -0.8400  0.0276 -0.3081
  189SLPC   C3221810   5.678   4.745   6.940 -0.2409 -0.3267  0.2078
  189SLPC   H2X21811   5.762   4.724   7.009 -0.8138  0.4439  1.1612
  189SLPC   H2Y21812   5.625   4.651   6.916 -1.8134  0.2578  1.2102
  189SLPC   C2321813   6.042   5.020   7.091  0.0953  0.5088 -0.1446
  189SLPC   H3R21814   6.125   5.045   7.161 -1.1663  2.3657  0.7765
  189SLPC   H3S21815   6.043   4.917   7.049 -0.5756 -0.4321  1.9862
  189SLPC   C2421816   5.924   5.025   7.186 -0.2082 -0.1970  0.3728
  189SLPC   H4R21817   5.829   4.994   7.137 -0.8965 -0.8347  2.0201
  189SLPC   H4S21818   5.920   5.133   7.212 -2.2115  0.4635 -2.2515
  189SLPC   C2521819   5.951   4.945   7.318  0.7145  0.4657 -0.1972
  189SLPC   H5R21820   6.037   4.996   7.367  0.9338  0.9641 -1.0705
  189SLPC   H5S21821   5.973   4.840   7.291  0.1395  0.4077 -0.4445
  189SLPC   C2621822   5.824   4.954   7.402 -0.0927 -0.1486 -0.4014
  189SLPC   H6R21823   5.750   4.895   7.344 -0.2115 -1.8487  1.4188
  189SLPC   H6S21824   5.779   5.055   7.408 -2.9886 -1.2345 -1.8848
  189SLPC   C2721825   5.849   4.903   7.541 -0.0034  0.3998  0.3006
  189SLPC   H7R21826   5.915   4.976   7.591  1.0807  0.4341 -1.1170
  189SLPC   H7S21827   5.910   4.810   7.545 -1.4504 -0.8130 -2.4234
  189SLPC   C2821828   5.715   4.863   7.613 -0.0711 -0.3825  0.1890
  189SLPC   H8R21829   5.655   4.956   7.615  1.1502  0.4547  2.7862
  189SLPC   H8S21830   5.732   4.842   7.721 -0.6148  0.2947  0.4150
  189SLPC   C2921831   5.645   4.742   7.555  0.2560 -0.5355 -0.7325
  189SLPC   H9R21832   5.618   4.731   7.449  0.1196  0.7814 -0.8521
  189SLPC  C21021833   5.590   4.642   7.630  0.3978  1.2300 -0.8875
  189SLPC  H10R21834   5.533   4.562   7.581  1.7357 -0.5379  0.3132
  189SLPC  C21121835   5.590   4.632   7.782 -0.8914 -0.4900  0.1626
  189SLPC  H11R21836   5.694   4.620   7.820 -1.2468  1.6770  1.9986
  189SLPC  H11S21837   5.537   4.537   7.805  1.7061 -1.7491  1.4184
  189SLPC  C21221838   5.522   4.739   7.862  0.5926 -0.1786  0.1342
  189SLPC  H12R21839   5.539   4.842   7.828 -0.2764  0.2933  1.0662
  189SLPC  C21321840   5.436   4.730   7.970 -0.4388 -0.3105  0.7962
  189SLPC  H13R21841   5.385   4.824   7.997  0.3262  0.5840 -0.7405
  189SLPC  C21421842   5.393   4.600   8.042  0.4026  0.1009 -0.2909
  189SLPC  H14R21843   5.418   4.513   7.977 -1.0604 -0.9846  0.5401
  189SLPC  H14S21844   5.283   4.596   8.052  0.3859  1.5950  0.3432
  189SLPC  C21521845   5.456   4.571   8.182  0.3356 -0.2726 -0.1527
  189SLPC  H15R21846   5.560   4.608   8.189  0.2863  0.0974 -1.2100
  189SLPC  H15S21847   5.453   4.461   8.194  0.3568 -0.5789 -2.4286
  189SLPC  C21621848   5.367   4.626   8.295 -0.2110 -0.2015  0.0280
  189SLPC  H16R21849   5.259   4.603   8.281 -0.7708  1.6876  0.9952
  189SLPC  H16S21850   5.382   4.735   8.308 -0.9949 -0.3100  2.2845
  189SLPC  C21721851   5.400   4.555   8.426  0.0241 -0.5024  0.4213
  189SLPC  H17R21852   5.502   4.582   8.460 -0.9873  2.9057  1.0830
  189SLPC  H17S21853   5.386   4.446   8.405  1.3773 -0.6257  0.0911
  189SLPC  C21821854   5.306   4.606   8.533 -0.3608 -0.9762 -0.4350
  189SLPC  H18R21855   5.297   4.528   8.612  4.1761 -4.7821 -3.1027
  189SLPC  H18S21856   5.210   4.634   8.486 -0.3106 -1.2435 -0.7001
  189SLPC  H18T21857   5.348   4.697   8.580 -3.0367 -0.1473  0.5510
  189SLPC   C3321858   5.591   4.852   7.010 -0.3536  0.8861 -0.4047
  189SLPC   H3X21859   5.512   4.871   6.933  0.2211  0.3877 -1.1369
  189SLPC   H3Y21860   5.645   4.946   7.033 -1.0831  1.3837 -0.6864
  189SLPC   C3421861   5.519   4.815   7.146 -0.5295  0.1992 -0.0276
  189SLPC   H4X21862   5.480   4.911   7.185  0.0526  0.7468 -0.7619
  189SLPC   H4Y21863   5.593   4.772   7.217  1.6297  0.5933 -1.9127
  189SLPC   C3521864   5.395   4.728   7.136  0.6376  0.2471 -0.1665
  189SLPC   H5X21865   5.437   4.641   7.082  1.9057  0.2591  0.7502
  189SLPC   H5Y21866   5.315   4.773   7.073  0.9492  0.6253 -0.2951
  189SLPC   C3621867   5.328   4.688   7.267  0.3059  0.1873 -0.3596
  189SLPC   H6X21868   5.405   4.669   7.345  1.0978 -0.5079 -1.2809
  189SLPC   H6Y21869   5.271   4.593   7.260 -0.3540  0.4650  1.0099
  189SLPC   C3721870   5.236   4.801   7.331 -0.1608 -0.3751  0.4874
  189SLPC   H7X21871   5.166   4.823   7.248  1.2532  0.0922 -0.6309
  189SLPC   H7Y21872   5.297   4.890   7.356 -3.0971  2.0410 -0.3999
  189SLPC   C3821873   5.165   4.746   7.452 -0.4397 -0.1102  0.5338
  189SLPC   H8X21874   5.235   4.708   7.529 -1.0106 -1.7917  0.2775
  189SLPC   H8Y21875   5.097   4.662   7.425  0.8694 -1.0002 -0.0931
  189SLPC   C3921876   5.071   4.853   7.519 -0.1583  0.2427  1.0252
  189SLPC   H9X21877   4.998   4.886   7.442 -1.5177 -0.9101  1.7709
  189SLPC   H9Y21878   5.127   4.946   7.540 -1.7245  1.3407  0.5251
  189SLPC  C31021879   4.998   4.803   7.642  0.2961  0.8411 -0.5018
  189SLPC  H10X21880   4.953   4.703   7.626 -1.3771  1.6155 -0.8291
  189SLPC  H10Y21881   4.918   4.876   7.666 -1.5821 -0.6497 -1.9635
  189SLPC  C31121882   5.091   4.785   7.771  0.3459 -0.7737 -0.1104
  189SLPC  H11X21883   5.169   4.860   7.746 -0.0693 -0.0818  0.6076
  189SLPC  H11Y21884   5.139   4.689   7.799  1.0583 -0.3472  0.1624
  189SLPC  C31221885   5.016   4.834   7.904 -0.1252 -0.7795  0.4542
  189SLPC  H12X21886   4.983   4.940   7.896  1.4982 -0.3622 -2.1952
  189SLPC  H12Y21887   5.092   4.826   7.985  1.0970 -1.5747 -0.7029
  189SLPC  C31321888   4.905   4.741   7.952 -0.3976  0.1445 -0.0245
  189SLPC  H13X21889   4.925   4.635   7.928  0.0998  0.1704  0.2661
  189SLPC  H13Y21890   4.811   4.770   7.899  0.3857  0.6811 -1.1621
  189SLPC  C31421891   4.888   4.744   8.104 -0.0879 -0.5022  0.1408
  189SLPC  H14X21892   4.863   4.848   8.136  2.2678 -0.3391  1.7014
  189SLPC  H14Y21893   4.989   4.729   8.147  1.2980  1.2607 -2.1937
  189SLPC  C31521894   4.794   4.631   8.154  0.9027 -0.0947 -0.2201
  189SLPC  H15X21895   4.810   4.531   8.106 -1.1548 -1.0035  0.8561
  189SLPC  H15Y21896   4.686   4.648   8.136  0.8866 -0.1090 -0.1363
  189SLPC  C31621897   4.803   4.598   8.300 -1.0169  0.5265  0.3689
  189SLPC  H16X21898   4.746   4.503   8.316  2.3800 -2.1799 -2.1181
  189SLPC  H16Y21899   4.758   4.674   8.367 -2.6747 -0.5131  0.5105
  189SLPC  C31721900   4.940   4.569   8.356  0.4326  0.3123 -0.4404
  189SLPC  H17X21901   5.003   4.660   8.367  1.2451 -0.3834  1.0729
  189SLPC  H17Y21902   4.992   4.494   8.293  2.4596  0.6033  0.7781
  189SLPC  C31821903   4.923   4.495   8.487 -0.7240  0.1999 -0.4644
  189SLPC  H18X21904   4.917   4.566   8.573 -2.1919  0.0095 -0.3891
  189SLPC  H18Y21905   5.013   4.430   8.500 -0.3531  0.9390  0.8594
  189SLPC  H18Z21906   4.838   4.425   8.482 -2.0609  1.6514  0.9002
  190SLPC     N21907   6.062   4.180   6.571  0.5450 -0.5493 -0.0562
  190SLPC   C1321908   6.054   4.325   6.543 -0.0206 -0.3415 -0.3006
  190SLPC  H13A21909   6.116   4.337   6.455 -2.5482  1.2045 -2.0428
  190SLPC  H13B21910   5.953   4.355   6.519 -0.3660 -1.4118 -0.2421
  190SLPC  H13C21911   6.098   4.385   6.621 -2.4047  0.7223  0.3174
  190SLPC   C1421912   5.996   4.096   6.461  0.2320  0.5275  0.1772
  190SLPC  H14A21913   6.062   4.081   6.376 -0.7834 -0.6759 -0.4292
  190SLPC  H14B21914   5.973   3.997   6.495 -0.9189 -0.5235 -3.2499
  190SLPC  H14C21915   5.905   4.144   6.429 -0.1808  0.4102  1.1458
  190SLPC   C1521916   5.974   4.150   6.693 -0.4384 -0.6556  0.3477
  190SLPC  H15A21917   5.997   4.047   6.716 -0.6632 -0.7444  0.1773
  190SLPC  H15B21918   6.000   4.218   6.773  1.4944  1.9251 -2.2684
  190SLPC  H15C21919   5.869   4.162   6.672 -0.2487  1.6625  0.4148
  190SLPC   C1221920   6.208   4.136   6.596  0.0898  0.0193 -0.2079
  190SLPC  H12A21921   6.197   4.039   6.641 -0.3199  1.0936  2.1357
  190SLPC  H12B21922   6.252   4.186   6.681 -1.4344 -0.0636  0.6513
  190SLPC   C1121923   6.308   4.143   6.481  0.4389 -0.1002  0.0493
  190SLPC  H11A21924   6.409   4.151   6.526 -0.8775 -0.2467  3.3411
  190SLPC  H11B21925   6.293   4.236   6.421  0.3916  0.9053  1.5612
  190SLPC     P21926   6.385   3.924   6.361 -0.0182 -0.1467 -0.5945
  190SLPC   O1321927   6.388   3.905   6.210 -0.3230 -0.7261 -0.1108
  190SLPC   O1421928   6.518   3.959   6.421 -0.7133 -0.5887  0.4590
  190SLPC   O1221929   6.270   4.028   6.397 -0.6546  0.1643 -0.4524
  190SLPC   O1121930   6.329   3.796   6.428  0.2136  0.1406 -0.0208
  190SLPC    C121931   6.201   3.748   6.405 -0.1459  0.2942  0.1157
  190SLPC    HA21932   6.150   3.802   6.323 -1.7654 -0.1633  0.7869
  190SLPC    HB21933   6.207   3.640   6.380 -1.4118 -0.3832  2.4509
  190SLPC    C221934   6.117   3.761   6.529 -0.2677 -0.4252 -0.6474
  190SLPC    HS21935   6.111   3.872   6.541 -1.0646 -0.0099 -3.9048
  190SLPC   O2121936   6.198   3.703   6.636  0.0997 -0.7396  0.2774
  190SLPC   C2121937   6.194   3.771   6.747 -0.0354 -0.5360 -0.2597
  190SLPC   O2221938   6.133   3.876   6.769  0.5186 -0.2998  0.6090
  190SLPC   C2221939   6.265   3.694   6.858 -0.0279  0.1074 -0.4508
  190SLPC   H2R21940   6.206   3.601   6.869  0.6196 -0.4606 -1.6674
  190SLPC   H2S21941   6.361   3.659   6.816 -0.3167  1.6173 -2.5266
  190SLPC    C321942   5.970   3.697   6.518  0.3684  0.1745 -0.3027
  190SLPC    HX21943   5.991   3.593   6.485  1.2961 -0.6036  2.4978
  190SLPC    HY21944   5.915   3.757   6.441 -1.6136 -0.7266  0.3568
  190SLPC   O3121945   5.901   3.702   6.646 -0.6079 -0.1234  0.2965
  190SLPC   C3121946   5.813   3.793   6.660  0.1621 -0.1073 -0.3423
  190SLPC   O3221947   5.789   3.890   6.589 -0.0983  0.0764 -0.3274
  190SLPC   C3221948   5.739   3.753   6.785  0.6025 -0.3848  0.4251
  190SLPC   H2X21949   5.789   3.679   6.852 -1.1767  1.0736  3.5970
  190SLPC   H2Y21950   5.650   3.704   6.740  0.3038 -0.1076  0.7049
  190SLPC   C2321951   6.280   3.777   6.993 -0.6423  0.4305 -0.1650
  190SLPC   H3R21952   6.311   3.879   6.961  0.4329 -0.3770 -1.8911
  190SLPC   H3S21953   6.358   3.727   7.055 -2.2362 -4.4833 -1.6405
  190SLPC   C2421954   6.154   3.787   7.078 -0.2626  0.4988 -1.3728
  190SLPC   H4R21955   6.127   3.688   7.120  1.3792  0.7348  0.3589
  190SLPC   H4S21956   6.068   3.814   7.011 -1.3864  0.3738 -0.0257
  190SLPC   C2521957   6.167   3.886   7.196 -0.6116  0.3513 -0.2939
  190SLPC   H5R21958   6.172   3.985   7.146 -1.7301  0.2981 -0.5433
  190SLPC   H5S21959   6.262   3.857   7.245 -0.8002  0.1988 -0.0119
  190SLPC   C2621960   6.050   3.890   7.293 -0.6821 -0.4647 -0.4157
  190SLPC   H6R21961   6.057   3.973   7.366 -1.0575 -1.4294  0.7549
  190SLPC   H6S21962   6.054   3.802   7.361 -0.1800 -0.5808 -0.5924
  190SLPC   C2721963   5.909   3.899   7.232 -0.1864  0.2837 -0.8114
  190SLPC   H7R21964   5.888   3.806   7.173 -2.3007  0.4558 -0.3954
  190SLPC   H7S21965   5.906   3.980   7.155  2.3089  1.1611 -0.0881
  190SLPC   C2821966   5.795   3.922   7.334 -0.1072  0.4368  0.2136
  190SLPC   H8R21967   5.706   3.929   7.268  1.0116  0.3622 -1.3704
  190SLPC   H8S21968   5.812   4.020   7.384  1.1719  1.5150 -2.1264
  190SLPC   C2921969   5.793   3.801   7.428 -0.5715 -0.2562 -0.0417
  190SLPC   H9R21970   5.735   3.717   7.387  0.0735 -2.0973  2.5882
  190SLPC  C21021971   5.842   3.795   7.555 -0.5313  0.1354  0.0924
  190SLPC  H10R21972   5.822   3.699   7.606 -3.1166  0.2520 -0.5590
  190SLPC  C21121973   5.917   3.900   7.632  0.4783 -0.1590  0.2330
  190SLPC  H11R21974   5.856   3.958   7.705  1.3785  1.7111 -0.4535
  190SLPC  H11S21975   5.965   3.977   7.569  0.8980  0.3070  1.0951
  190SLPC  C21221976   6.022   3.835   7.710  0.3952 -0.6360  0.0018
  190SLPC  H12R21977   6.070   3.753   7.655 -0.6611 -1.3111  0.0483
  190SLPC  C21321978   6.039   3.844   7.845 -0.4893 -0.1105 -0.5599
  190SLPC  H13R21979   6.141   3.817   7.876 -0.7733  0.4758  0.9695
  190SLPC  C21421980   5.951   3.925   7.953  0.0958 -0.1571 -0.4741
  190SLPC  H14R21981   5.869   3.874   8.008  0.1929 -0.5403 -0.6833
  190SLPC  H14S21982   5.906   4.014   7.904  1.9947  1.7114  1.0039
  190SLPC  C21521983   6.031   3.977   8.076  0.0579  0.2893  0.5192
  190SLPC  H15R21984   6.118   4.041   8.049  0.9316 -1.6129 -1.4738
  190SLPC  H15S21985   6.077   3.888   8.123  0.2246 -0.7145 -1.4399
  190SLPC  C21621986   5.951   4.054   8.182  0.0739  0.0393 -0.7381
  190SLPC  H16R21987   5.880   3.993   8.241 -0.8552  1.3137 -0.4812
  190SLPC  H16S21988   5.886   4.134   8.138  0.7608 -0.0864 -2.0267
  190SLPC  C21721989   6.030   4.125   8.290  0.0184  0.7006 -0.1834
  190SLPC  H17R21990   6.102   4.193   8.238 -0.5475  1.4267 -0.0303
  190SLPC  H17S21991   6.076   4.044   8.350 -2.1333 -0.8224 -0.4733
  190SLPC  C21821992   5.934   4.198   8.383 -0.1698 -1.1507 -0.0098
  190SLPC  H18R21993   5.859   4.122   8.414 -0.6305 -1.5863 -2.0285
  190SLPC  H18S21994   5.883   4.281   8.330  1.0257 -0.0757  0.4769
  190SLPC  H18T21995   5.989   4.227   8.475 -0.2801 -2.1967  0.4010
  190SLPC   C3321996   5.687   3.883   6.858  0.4951 -0.4380 -0.7053
  190SLPC   H3X21997   5.622   3.941   6.788  0.4400  0.3415 -0.0122
  190SLPC   H3Y21998   5.779   3.940   6.880  0.3213 -0.7941  1.0534
  190SLPC   C3421999   5.602   3.846   6.977  0.1541  0.0517 -0.7288
  190SLPC   H4X22000   5.604   3.938   7.040  0.1443 -0.3394 -0.1431
  190SLPC   H4Y22001   5.646   3.760   7.032  0.6568  0.3202 -0.7004
  190SLPC   C3522002   5.459   3.829   6.947  0.9606 -0.1539  0.3638
  190SLPC   H5X22003   5.451   3.718   6.938 -0.7582  0.0359 -1.1262
  190SLPC   H5Y22004   5.415   3.876   6.856 -1.9169  0.6515  2.0623
  190SLPC   C3622005   5.364   3.874   7.066 -0.1486  0.3450  0.3591
  190SLPC   H6X22006   5.258   3.853   7.040  0.2798 -1.4437 -0.0585
  190SLPC   H6Y22007   5.370   3.984   7.080  2.0600  0.5692 -1.5712
  190SLPC   C3722008   5.399   3.809   7.200  0.7110 -0.0084 -0.0013
  190SLPC   H7X22009   5.490   3.854   7.244 -0.3379  1.5835  0.6032
  190SLPC   H7Y22010   5.424   3.701   7.186  1.0525  0.1957 -1.0462
  190SLPC   C3822011   5.282   3.806   7.301 -0.2171 -0.4586 -0.2267
  190SLPC   H8X22012   5.190   3.757   7.260 -0.4004 -1.0914  0.8980
  190SLPC   H8Y22013   5.241   3.908   7.318  0.1256 -0.2719 -0.5139
  190SLPC   C3922014   5.315   3.757   7.446 -0.6148 -0.1482 -0.0802
  190SLPC   H9X22015   5.419   3.788   7.470 -1.2424  1.0411  1.2855
  190SLPC   H9Y22016   5.312   3.646   7.445 -2.1561 -0.1346 -0.4641
  190SLPC  C31022017   5.214   3.803   7.551  0.0906 -0.3831 -0.2925
  190SLPC  H10X22018   5.113   3.770   7.520 -0.2816 -0.5320  0.9896
  190SLPC  H10Y22019   5.226   3.913   7.558  1.2158 -0.5124  0.1354
  190SLPC  C31122020   5.225   3.746   7.695  0.0744 -0.0377 -0.5100
  190SLPC  H11X22021   5.320   3.780   7.741 -0.2237 -1.9028  1.6794
  190SLPC  H11Y22022   5.246   3.637   7.698 -0.0578 -0.0499  0.2560
  190SLPC  C31222023   5.101   3.795   7.773  0.3496  0.0290  0.6026
  190SLPC  H12X22024   5.023   3.736   7.719  0.4126 -0.1397  0.6933
  190SLPC  H12Y22025   5.084   3.902   7.749 -0.7825 -0.5616 -1.5588
  190SLPC  C31322026   5.103   3.763   7.923  0.2955  0.3551  0.5616
  190SLPC  H13X22027   5.174   3.836   7.967  1.2220 -0.4078  0.3730
  190SLPC  H13Y22028   5.137   3.659   7.945  0.8522  0.9275  2.6183
  190SLPC  C31422029   4.960   3.774   7.984 -0.4497  0.2413  0.1437
  190SLPC  H14X22030   4.883   3.705   7.944  0.4127 -0.8393  0.2842
  190SLPC  H14Y22031   4.923   3.877   7.969 -0.6750 -0.0024 -1.0120
  190SLPC  C31522032   4.967   3.738   8.135 -0.0086 -0.1552  0.1925
  190SLPC  H15X22033   5.016   3.638   8.141  0.2566 -0.0625 -0.3065
  190SLPC  H15Y22034   4.859   3.734   8.161  0.0890  2.7065  1.4337
  190SLPC  C31622035   5.041   3.837   8.228  1.1157  0.1195  0.1079
  190SLPC  H16X22036   5.005   3.938   8.199 -0.9540 -1.0762 -1.8428
  190SLPC  H16Y22037   5.146   3.833   8.194  0.4833 -1.2741 -1.8492
  190SLPC  C31722038   5.041   3.791   8.381 -1.0239 -0.5899 -0.5905
  190SLPC  H17X22039   5.078   3.689   8.403 -0.1102 -0.6371 -2.2357
  190SLPC  H17Y22040   4.941   3.787   8.430 -0.0879 -2.5248  1.3277
  190SLPC  C31822041   5.116   3.891   8.478  0.6642 -0.1721  0.4506
  190SLPC  H18X22042   5.224   3.877   8.456  0.6387  0.1419  0.1051
  190SLPC  H18Y22043   5.104   3.879   8.587  0.2220  0.4305  0.4768
  190SLPC  H18Z22044   5.091   3.994   8.445 -0.7996 -0.2161  1.3295
  191SLPC     N22045   6.149   5.926   5.849 -0.0842  0.2701  0.0427
  191SLPC   C1322046   6.195   5.964   5.986  0.3594  0.1316  0.2481
  191SLPC  H13A22047   6.114   5.939   6.053 -0.1740  0.2052 -0.3588
  191SLPC  H13B22048   6.292   5.925   6.013  0.3804  1.1985  1.8256
  191SLPC  H13C22049   6.209   6.071   5.981  0.8183  0.0728  0.1833
  191SLPC   C1422050   6.102   5.784   5.841  0.5109  0.2336 -0.7126
  191SLPC  H14A22051   6.154   5.725   5.915 -0.4463 -0.0756 -0.2670
  191SLPC  H14B22052   5.998   5.791   5.867 -0.5848 -1.4076 -4.0250
  191SLPC  H14C22053   6.111   5.742   5.742 -0.0511 -0.5439 -0.4474
  191SLPC   C1522054   6.270   5.937   5.763  0.2634  0.2744  0.5469
  191SLPC  H15A22055   6.350   5.872   5.794 -0.0598 -2.0145 -2.8647
  191SLPC  H15B22056   6.245   5.891   5.668  1.0458  0.3498  0.3026
  191SLPC  H15C22057   6.304   6.039   5.750  0.9749  0.1206  1.1968
  191SLPC   C1222058   6.040   6.014   5.798  0.8571 -0.5239 -0.3411
  191SLPC  H12A22059   5.999   5.952   5.719  1.6190  0.6748 -1.7244
  191SLPC  H12B22060   6.091   6.101   5.761  2.7581 -1.5811 -0.3296
  191SLPC   C1122061   5.924   6.035   5.893  0.7338  0.0160 -0.0299
  191SLPC  H11A22062   5.859   6.108   5.840  0.5351  1.8637  2.6185
  191SLPC  H11B22063   5.955   6.104   5.973 -1.2298  1.1952 -0.2120
  191SLPC     P22064   5.735   5.855   5.860 -0.1694 -0.1549 -0.0932
  191SLPC   O1322065   5.771   5.835   5.720  0.0744  0.0975  0.1467
  191SLPC   O1422066   5.691   5.727   5.929  0.5092  0.1256  0.5087
  191SLPC   O1222067   5.856   5.919   5.941  0.2894  0.2375  0.1707
  191SLPC   O1122068   5.624   5.959   5.868  0.0702  0.0859 -0.2195
  191SLPC    C122069   5.514   5.945   5.965  0.3255  0.3010 -0.9238
  191SLPC    HA22070   5.425   6.002   5.930  1.9163  1.9141 -2.5126
  191SLPC    HB22071   5.463   5.847   5.961  0.2358  0.1018  2.2155
  191SLPC    C222072   5.524   5.976   6.114 -0.1380  0.2390 -0.0826
  191SLPC    HS22073   5.422   6.013   6.137  0.0939 -0.7866  3.0352
  191SLPC   O2122074   5.623   6.075   6.136 -0.1904 -0.3814  0.0555
  191SLPC   C2122075   5.602   6.195   6.087 -0.0410 -0.0523  0.4504
  191SLPC   O2222076   5.497   6.234   6.034 -0.0326  0.4677  0.1973
  191SLPC   C2222077   5.718   6.294   6.122  0.5857 -0.0554 -0.3988
  191SLPC   H2R22078   5.814   6.248   6.155  0.0045  0.7632  2.7000
  191SLPC   H2S22079   5.740   6.357   6.033  1.5294  0.5525  0.2481
  191SLPC    C322080   5.544   5.857   6.207  0.6399  0.5915  0.0690
  191SLPC    HX22081   5.635   5.799   6.181 -0.7538 -1.9911  0.6057
  191SLPC    HY22082   5.459   5.792   6.178 -0.1229  1.3097  0.6648
  191SLPC   O3122083   5.545   5.896   6.348 -0.2800  0.5154 -0.1792
  191SLPC   C3122084   5.652   5.928   6.413 -0.1325  0.4044 -0.4486
  191SLPC   O3222085   5.760   5.939   6.361  0.0655  0.0094  0.6750
  191SLPC   C3222086   5.628   5.925   6.566 -0.4296  0.1726  0.4977
  191SLPC   H2X22087   5.588   5.825   6.591 -0.8667 -1.4971 -5.4101
  191SLPC   H2Y22088   5.566   6.011   6.600  0.7276  1.2009  0.1115
  191SLPC   C2322089   5.668   6.385   6.235  0.4800  0.1728 -0.8230
  191SLPC   H3R22090   5.559   6.402   6.225  0.3430  1.1316  1.6902
  191SLPC   H3S22091   5.716   6.484   6.229  0.1887  0.2978 -1.1353
  191SLPC   C2422092   5.683   6.324   6.374 -0.2232  0.6748 -0.3009
  191SLPC   H4R22093   5.785   6.279   6.379 -0.8212 -0.7537 -0.5062
  191SLPC   H4S22094   5.621   6.233   6.390  1.2277 -0.5657 -1.2906
  191SLPC   C2522095   5.648   6.430   6.481 -0.0439 -0.0927  0.0392
  191SLPC   H5R22096   5.538   6.443   6.483  0.0276  1.6718  5.3340
  191SLPC   H5S22097   5.675   6.531   6.443  2.9167 -0.5539  0.6599
  191SLPC   C2622098   5.687   6.384   6.624 -0.4485  0.8644  0.0976
  191SLPC   H6R22099   5.794   6.400   6.650 -0.0999 -0.0766 -0.7154
  191SLPC   H6S22100   5.659   6.278   6.642  0.0595  0.6910 -0.1097
  191SLPC   C2722101   5.595   6.462   6.712 -0.1867 -0.1393  0.2989
  191SLPC   H7R22102   5.489   6.435   6.694 -0.4615 -0.5582  2.3529
  191SLPC   H7S22103   5.597   6.571   6.689 -1.5089  0.0822  1.1509
  191SLPC   C2822104   5.630   6.443   6.859  0.0783 -0.4720  0.3093
  191SLPC   H8R22105   5.615   6.337   6.888  1.1515 -0.0328  2.6321
  191SLPC   H8S22106   5.542   6.489   6.910 -0.4129 -0.8398 -0.1852
  191SLPC   C2922107   5.758   6.502   6.918 -0.3703 -0.1176 -0.1250
  191SLPC   H9R22108   5.849   6.441   6.912  0.5690  1.1652  0.7607
  191SLPC  C21022109   5.765   6.626   6.981  0.2259  0.4762  0.5851
  191SLPC  H10R22110   5.866   6.659   7.009 -0.4020  0.8365  2.5991
  191SLPC  C21122111   5.659   6.736   7.007  0.1684  0.0665  0.5688
  191SLPC  H11R22112   5.574   6.722   6.936  0.6303  2.5980 -0.5770
  191SLPC  H11S22113   5.693   6.836   6.975  0.5730 -0.1102  0.4450
  191SLPC  C21222114   5.610   6.737   7.149 -0.3753  0.3400 -0.0299
  191SLPC  H12R22115   5.693   6.741   7.221  0.4600  0.9319 -1.0025
  191SLPC  C21322116   5.484   6.735   7.193  0.1775 -0.4555 -0.5613
  191SLPC  H13R22117   5.470   6.736   7.302 -2.1833  0.5384 -0.8125
  191SLPC  C21422118   5.358   6.747   7.106  0.1948 -0.4633  0.2256
  191SLPC  H14R22119   5.264   6.726   7.160  0.3265  1.7620  1.4614
  191SLPC  H14S22120   5.354   6.667   7.030 -3.5119 -1.2498  1.0533
  191SLPC  C21522121   5.347   6.883   7.037  0.3833  0.8696  0.7943
  191SLPC  H15R22122   5.275   6.893   6.953 -0.6526  0.3599  1.6048
  191SLPC  H15S22123   5.442   6.901   6.982 -1.2755 -0.1037 -2.6904
  191SLPC  C21622124   5.317   7.004   7.132 -0.1313 -0.6799 -0.1732
  191SLPC  H16R22125   5.389   7.010   7.217 -0.3736  1.9973 -0.0961
  191SLPC  H16S22126   5.216   6.996   7.177 -0.6577  2.6919 -0.5022
  191SLPC  C21722127   5.315   7.145   7.067 -0.7900 -0.7199 -0.7281
  191SLPC  H17R22128   5.265   7.222   7.130 -1.5087 -2.0246  0.3706
  191SLPC  H17S22129   5.248   7.152   6.979 -0.6340  0.7553 -0.7620
  191SLPC  C21822130   5.457   7.183   7.012 -0.2656  0.2488  0.0051
  191SLPC  H18R22131   5.470   7.136   6.912  0.7654  1.3449 -0.3987
  191SLPC  H18S22132   5.540   7.133   7.066  0.4303  2.2333  0.8727
  191SLPC  H18T22133   5.470   7.293   7.003  1.5424  0.0045 -0.8713
  191SLPC   C3322134   5.761   5.952   6.633 -0.8935  0.2148  0.4359
  191SLPC   H3X22135   5.792   6.058   6.622  1.3565 -0.3655  0.6777
  191SLPC   H3Y22136   5.842   5.888   6.590 -1.2466 -0.7395  1.1499
  191SLPC   C3422137   5.733   5.923   6.780 -0.0169  0.6496  0.7905
  191SLPC   H4X22138   5.737   5.817   6.812  0.2982  0.5010  0.2625
  191SLPC   H4Y22139   5.630   5.955   6.809 -0.4983 -0.8253  0.8052
  191SLPC   C3522140   5.840   5.990   6.868  0.2029 -0.1953 -0.0777
  191SLPC   H5X22141   5.851   6.098   6.846 -0.4364 -0.0329  0.3769
  191SLPC   H5Y22142   5.936   5.938   6.846  0.3374  0.5902 -1.4263
  191SLPC   C3622143   5.803   5.987   7.013  0.2009  0.2876 -0.2927
  191SLPC   H6X22144   5.752   5.890   7.030 -0.0388  0.5050  0.2262
  191SLPC   H6Y22145   5.720   6.058   7.034  0.1647 -0.0068  0.5705
  191SLPC   C3722146   5.931   5.992   7.099 -0.2175 -0.1671 -0.1382
  191SLPC   H7X22147   5.988   6.084   7.073  1.3890 -0.9314  0.4996
  191SLPC   H7Y22148   5.994   5.906   7.065 -0.8719 -0.3448 -0.9285
  191SLPC   C3822149   5.921   5.982   7.255 -0.2944 -0.1266 -0.1515
  191SLPC   H8X22150   6.022   5.958   7.293  0.7208  1.2271 -1.8248
  191SLPC   H8Y22151   5.857   5.897   7.285  0.8470 -1.5260 -1.5108
  191SLPC   C3922152   5.856   6.105   7.323 -0.0891 -0.2874  0.4553
  191SLPC   H9X22153   5.831   6.076   7.427 -0.6816 -0.3974  0.2862
  191SLPC   H9Y22154   5.757   6.110   7.271  0.8409 -2.0928 -1.6846
  191SLPC  C31022155   5.927   6.237   7.319  0.1156 -0.2060  0.0710
  191SLPC  H10X22156   5.927   6.266   7.212 -0.9413  0.1809  0.1699
  191SLPC  H10Y22157   6.033   6.224   7.350  0.2598 -2.2858 -1.1529
  191SLPC  C31122158   5.856   6.357   7.396  0.6304  0.0492 -0.0337
  191SLPC  H11X22159   5.855   6.350   7.507 -1.5071 -1.0884 -0.0685
  191SLPC  H11Y22160   5.748   6.348   7.371  0.3796 -2.5003  1.5655
  191SLPC  C31222161   5.924   6.488   7.365 -0.4051  0.5652  0.3907
  191SLPC  H12X22162   5.899   6.511   7.259  0.3032 -1.1109 -0.1702
  191SLPC  H12Y22163   6.033   6.466   7.356  0.0069  2.8329 -1.2716
  191SLPC  C31322164   5.893   6.601   7.463  0.1166 -0.2152  0.2232
  191SLPC  H13X22165   5.920   6.699   7.417 -1.8456  1.4163  2.3732
  191SLPC  H13Y22166   5.947   6.582   7.558  0.0170 -0.5996  0.2046
  191SLPC  C31422167   5.740   6.604   7.490  0.9076 -0.5107 -0.1314
  191SLPC  H14X22168   5.708   6.513   7.545 -0.3572  0.8049  1.3955
  191SLPC  H14Y22169   5.691   6.589   7.391  0.9600 -0.0301 -0.2333
  191SLPC  C31522170   5.684   6.724   7.566 -0.9779  0.1631  0.0517
  191SLPC  H15X22171   5.573   6.722   7.568 -1.0225 -3.3903  0.6940
  191SLPC  H15Y22172   5.722   6.818   7.520  1.2047 -0.3004  0.8060
  191SLPC  C31622173   5.737   6.745   7.707  0.0653  0.2647  0.0201
  191SLPC  H16X22174   5.845   6.721   7.711  0.2087  0.9908  0.9208
  191SLPC  H16Y22175   5.696   6.660   7.765  3.5095 -2.2503 -0.9005
  191SLPC  C31722176   5.704   6.880   7.770  0.9408 -0.7337  0.6345
  191SLPC  H17X22177   5.598   6.899   7.744  1.1238 -0.1897  0.2624
  191SLPC  H17Y22178   5.758   6.951   7.704 -2.9011  0.5143 -1.4607
  191SLPC  C31822179   5.736   6.896   7.917 -0.0594  0.2633 -0.0078
  191SLPC  H18X22180   5.681   6.817   7.972 -2.0537  0.7905 -1.1676
  191SLPC  H18Y22181   5.687   6.991   7.949 -0.1489  0.8593 -1.7859
  191SLPC  H18Z22182   5.843   6.898   7.948  0.1449  3.0825 -0.6199
  192SLPC     N22183   5.530   0.076   6.341  0.5404  0.2350 -0.2290
  192SLPC   C1322184   5.430  -0.034   6.359 -0.2601 -0.3257  0.7074
  192SLPC  H13A22185   5.475  -0.131   6.378  3.2378  1.3829  1.9413
  192SLPC  H13B22186   5.361  -0.013   6.439 -1.4907  2.2280 -0.9192
  192SLPC  H13C22187   5.368  -0.038   6.270  0.3712  2.3352  0.0690
  192SLPC   C1422188   5.450   0.190   6.281 -0.2567 -0.6190 -0.0888
  192SLPC  H14A22189   5.509   0.258   6.222  0.4541  0.1958  1.4937
  192SLPC  H14B22190   5.368   0.166   6.215  0.1600  1.9628 -1.6571
  192SLPC  H14C22191   5.394   0.233   6.362  0.0812  1.2457 -0.8141
  192SLPC   C1522192   5.634   0.045   6.244 -0.5700  0.1908 -0.1831
  192SLPC  H15A22193   5.694   0.136   6.249  0.2622 -0.4083  1.2843
  192SLPC  H15B22194   5.706  -0.031   6.269 -0.1114  1.4863  2.8871
  192SLPC  H15C22195   5.587   0.023   6.149  1.1168  0.7236 -1.2045
  192SLPC   C1222196   5.578   0.122   6.480  0.5077  0.3851  0.1536
  192SLPC  H12A22197   5.494   0.154   6.541 -1.4119 -2.0845 -0.9827
  192SLPC  H12B22198   5.637   0.209   6.456  1.6220 -0.5455 -0.6090
  192SLPC   C1122199   5.679   0.035   6.561  0.5504 -0.3992  0.3375
  192SLPC  H11A22200   5.649  -0.071   6.549 -0.3115 -0.1819  0.4816
  192SLPC  H11B22201   5.663   0.072   6.665 -3.6950 -0.3262 -0.1802
  192SLPC     P22202   5.911   0.172   6.528 -0.0929  0.2500  0.2070
  192SLPC   O1322203   6.050   0.132   6.503 -0.5421  0.4240  0.9789
  192SLPC   O1422204   5.861   0.285   6.447  0.3795  0.3428  0.6989
  192SLPC   O1222205   5.810   0.052   6.513 -0.5291 -0.4716 -0.1466
  192SLPC   O1122206   5.894   0.202   6.686 -0.1160 -0.4393 -0.2424
  192SLPC    C122207   5.911   0.099   6.783  0.1175 -0.1364  0.0746
  192SLPC    HA22208   5.814   0.079   6.835 -0.1075 -0.8589 -0.6052
  192SLPC    HB22209   5.935   0.008   6.724 -0.8688  0.3455 -1.0990
  192SLPC    C222210   6.013   0.120   6.910 -0.1233  0.1464 -0.2565
  192SLPC    HS22211   6.011   0.032   6.977  0.4221  2.4672  3.0483
  192SLPC   O2122212   5.957   0.230   6.991  0.2638  0.1638 -0.0456
  192SLPC   C2122213   5.893   0.200   7.104 -0.0170 -0.0646  0.0331
  192SLPC   O2222214   5.872   0.092   7.154 -0.4285  0.0830  0.0987
  192SLPC   C2222215   5.853   0.332   7.167 -0.1498 -0.2487 -0.8004
  192SLPC   H2R22216   5.947   0.374   7.209 -1.0880  1.8374 -0.6701
  192SLPC   H2S22217   5.816   0.397   7.085  0.5676 -3.2342 -3.6680
  192SLPC    C322218   6.161   0.149   6.864  0.2519 -0.3107  1.1408
  192SLPC    HX22219   6.155   0.232   6.791 -1.6535 -0.5870  0.9214
  192SLPC    HY22220   6.199   0.069   6.797 -2.4093 -0.7435  0.0066
  192SLPC   O3122221   6.252   0.153   6.981  0.1129  0.5035 -0.0290
  192SLPC   C3122222   6.258   0.280   7.032 -0.2528  0.0350 -0.4039
  192SLPC   O3222223   6.198   0.373   6.992 -0.0830  0.2480 -0.0300
  192SLPC   C3222224   6.356   0.287   7.150  0.3384  0.0442  1.0577
  192SLPC   H2X22225   6.424   0.374   7.137 -0.7390  0.5546 -1.8186
  192SLPC   H2Y22226   6.413   0.192   7.156 -1.3351 -0.9921  0.9795
  192SLPC   C2322227   5.753   0.306   7.282 -0.7626 -0.1536 -0.0206
  192SLPC   H3R22228   5.794   0.228   7.350  0.4806  0.5841  0.1019
  192SLPC   H3S22229   5.663   0.269   7.229 -1.1399 -0.3890  0.7617
  192SLPC   C2422230   5.726   0.436   7.356 -0.6524  0.7242 -0.0789
  192SLPC   H4R22231   5.652   0.498   7.302  0.4537  1.8326 -0.3556
  192SLPC   H4S22232   5.820   0.495   7.364 -0.4063  0.1812  1.6012
  192SLPC   C2522233   5.657   0.414   7.491  0.5598 -0.1288 -0.4446
  192SLPC   H5R22234   5.648   0.512   7.541  1.8135 -0.0635 -0.3093
  192SLPC   H5S22235   5.730   0.357   7.553  1.9904  1.1475 -0.8863
  192SLPC   C2622236   5.522   0.345   7.481 -0.6264  0.5904  0.4731
  192SLPC   H6R22237   5.526   0.234   7.469 -3.0033  0.6279 -1.3416
  192SLPC   H6S22238   5.466   0.371   7.389 -2.8577 -2.4180  0.7953
  192SLPC   C2722239   5.439   0.386   7.600  0.5624  0.7058  0.1984
  192SLPC   H7R22240   5.429   0.496   7.589  0.0146  0.7428  0.9996
  192SLPC   H7S22241   5.500   0.355   7.687 -2.0405 -0.3811  1.7577
  192SLPC   C2822242   5.300   0.322   7.601 -0.8649  1.0932 -0.1224
  192SLPC   H8R22243   5.254   0.365   7.509  1.0961  1.6007 -0.9117
  192SLPC   H8S22244   5.249   0.371   7.686  0.7430  3.2838 -0.3416
  192SLPC   C2922245   5.296   0.168   7.609  0.1476  0.5495 -0.5443
  192SLPC   H9R22246   5.313   0.105   7.520 -0.3656 -2.2515  1.2127
  192SLPC  C21022247   5.267   0.086   7.713  0.6380  0.4241  0.1794
  192SLPC  H10R22248   5.294  -0.020   7.718  1.1442  0.5412 -0.0340
  192SLPC  C21122249   5.221   0.128   7.846 -0.5755  0.5395 -0.5190
  192SLPC  H11R22250   5.138   0.058   7.868  0.5167 -1.6103 -2.7351
  192SLPC  H11S22251   5.173   0.228   7.841  0.1882  0.9747  0.4274
  192SLPC  C21222252   5.328   0.118   7.953  0.2968 -0.2117 -0.0512
  192SLPC  H12R22253   5.434   0.108   7.925  0.3343 -1.8466  0.5715
  192SLPC  C21322254   5.300   0.133   8.084  0.0769  0.1738  0.1520
  192SLPC  H13R22255   5.389   0.138   8.148  1.2109  0.0144 -1.3595
  192SLPC  C21422256   5.164   0.144   8.145 -0.3914 -0.5857  0.3927
  192SLPC  H14R22257   5.146   0.076   8.230  0.2094 -1.3057 -0.0477
  192SLPC  H14S22258   5.081   0.119   8.075 -1.9846 -1.5336  2.5098
  192SLPC  C21522259   5.124   0.285   8.198  0.6422  0.6438  0.3740
  192SLPC  H15R22260   5.018   0.280   8.232 -0.1471  3.4808 -1.2655
  192SLPC  H15S22261   5.131   0.363   8.119 -0.7790  0.0086 -0.4212
  192SLPC  C21622262   5.205   0.333   8.315 -0.4381  1.3558 -0.1584
  192SLPC  H16R22263   5.307   0.349   8.274 -0.5958 -0.3698 -1.3591
  192SLPC  H16S22264   5.209   0.246   8.384  0.3855  0.9289 -0.7182
  192SLPC  C21722265   5.140   0.449   8.389  0.2599 -0.4380 -0.6938
  192SLPC  H17R22266   5.203   0.473   8.478  0.7446 -0.1466 -1.1113
  192SLPC  H17S22267   5.133   0.539   8.324  1.7799  0.5300  0.3882
  192SLPC  C21822268   5.003   0.429   8.458 -0.7193 -0.3665 -0.4872
  192SLPC  H18R22269   4.926   0.458   8.383  0.5956  3.1552 -0.6971
  192SLPC  H18S22270   4.986   0.467   8.561 -0.1017 -2.2250  0.3335
  192SLPC  H18T22271   4.996   0.323   8.489 -0.7098 -0.1866  0.1362
  192SLPC   C3322272   6.268   0.306   7.272  0.0671  0.3152  0.5102
  192SLPC   H3X22273   6.203   0.217   7.287  0.7293 -0.4427 -0.9035
  192SLPC   H3Y22274   6.197   0.391   7.266 -0.1351  0.0902 -0.5636
  192SLPC   C3422275   6.352   0.335   7.400  0.0200  0.1899  0.9131
  192SLPC   H4X22276   6.393   0.438   7.393  0.3072  0.0087 -0.2714
  192SLPC   H4Y22277   6.439   0.265   7.407 -0.6481 -0.6551  0.9180
  192SLPC   C3522278   6.268   0.292   7.527 -1.1368 -0.1323  0.2128
  192SLPC   H5X22279   6.223   0.193   7.505 -1.6220  0.4625 -1.6849
  192SLPC   H5Y22280   6.180   0.360   7.533  0.5930  2.2539  0.1835
  192SLPC   C3622281   6.360   0.286   7.652  0.7399 -0.9953 -0.2865
  192SLPC   H6X22282   6.417   0.381   7.657 -1.5950  0.4962 -0.4642
  192SLPC   H6Y22283   6.435   0.204   7.644  0.9980 -0.9619  1.4284
  192SLPC   C3722284   6.269   0.271   7.777 -0.6121  0.4358  0.1735
  192SLPC   H7X22285   6.231   0.166   7.772  1.8252 -0.5870  1.4956
  192SLPC   H7Y22286   6.189   0.347   7.768  0.3418  1.4305 -0.0652
  192SLPC   C3822287   6.336   0.298   7.912  0.2703  0.3494  0.0142
  192SLPC   H8X22288   6.373   0.402   7.907 -1.1976  0.8682 -0.7483
  192SLPC   H8Y22289   6.420   0.226   7.921  1.0055  1.0561 -0.9942
  192SLPC   C3922290   6.231   0.298   8.027 -0.8769  0.5958  0.5722
  192SLPC   H9X22291   6.158   0.381   8.015 -0.3521  0.8297 -1.3429
  192SLPC   H9Y22292   6.288   0.319   8.119 -1.0115  0.6293  0.6487
  192SLPC  C31022293   6.161   0.164   8.040 -0.5828  0.5942  0.4161
  192SLPC  H10X22294   6.243   0.094   8.067  0.5234  2.2944  1.7491
  192SLPC  H10Y22295   6.110   0.129   7.949 -0.9144  1.8918  0.0736
  192SLPC  C31122296   6.065   0.154   8.151  0.1968  0.2545 -0.3708
  192SLPC  H11X22297   6.042   0.050   8.183 -1.0125  0.1930 -1.3577
  192SLPC  H11Y22298   5.962   0.191   8.134 -0.6787  0.2573  3.8487
  192SLPC  C31222299   6.098   0.242   8.275 -0.0651 -0.2275  0.2578
  192SLPC  H12X22300   6.091   0.349   8.247 -2.3585 -0.7173 -1.3636
  192SLPC  H12Y22301   6.205   0.223   8.298 -0.2625 -0.0219  1.4199
  192SLPC  C31322302   6.013   0.222   8.405 -0.6308 -0.1154 -0.3068
  192SLPC  H13X22303   6.040   0.123   8.448 -3.1717 -1.4763 -1.5797
  192SLPC  H13Y22304   5.912   0.197   8.366  0.3724 -1.7044 -2.0589
  192SLPC  C31422305   6.016   0.350   8.493 -0.6512 -1.1418  0.9609
  192SLPC  H14X22306   6.011   0.441   8.430  0.1182 -1.9714 -0.3509
  192SLPC  H14Y22307   6.119   0.354   8.536 -0.4817 -0.9030  0.5449
  192SLPC  C31522308   5.919   0.366   8.602 -0.4406 -0.2456 -0.6631
  192SLPC  H15X22309   5.927   0.274   8.663  0.1881 -0.4267 -1.0067
  192SLPC  H15Y22310   5.815   0.364   8.565 -0.8089 -0.6587  0.3697
  192SLPC  C31622311   5.953   0.491   8.688 -0.9311 -0.0127 -0.9696
  192SLPC  H16X22312   5.987   0.580   8.632 -1.6440  1.1983  0.4488
  192SLPC  H16Y22313   6.030   0.461   8.762 -1.4903 -2.0413 -1.1358
  192SLPC  C31722314   5.823   0.546   8.765 -0.4061 -0.8002  0.0278
  192SLPC  H17X22315   5.782   0.475   8.840  1.7551 -1.6757  0.4553
  192SLPC  H17Y22316   5.744   0.577   8.694  1.1757 -0.9272 -1.8710
  192SLPC  C31822317   5.856   0.675   8.848  0.8470 -0.0707  0.3075
  192SLPC  H18X22318   5.768   0.707   8.908  0.0534  0.0477 -0.8847
  192SLPC  H18Y22319   5.852   0.759   8.775  0.5107 -0.0267  0.3720
  192SLPC  H18Z22320   5.951   0.666   8.904  1.2612  0.1811 -0.3375
  193SOD    SOD22321   4.019   5.869   6.021 -0.2842  0.0505  0.8003
  194SOD    SOD22322   3.664   1.195   0.848  0.1228 -0.7491  0.6489
  195SOD    SOD22323   2.445   3.212  12.707  0.1178  0.2352  0.6079
  196SOD    SOD22324   4.530   6.487   5.787 -0.1040 -0.2902 -0.3668
  197SOD    SOD22325   5.321   4.201  12.309  0.4474  1.1164  0.0912
  198SOD    SOD22326   4.300   3.903  11.361 -0.2580  0.0249  0.5349
  199SOD    SOD22327   5.016   5.771   4.376 -0.1442 -0.0022  0.5457
  200SOD    SOD22328   4.525   4.367  14.716 -0.1143  0.0678  0.3533
  201SOD    SOD22329   3.644   2.968  13.149 -0.1662  0.3962 -0.0077
  202SOD    SOD22330   0.602   1.036  11.005 -0.6995 -0.3191 -0.1219
  203SOD    SOD22331   2.922   4.841   4.797 -0.4770 -0.0620 -0.6902
  204SOD    SOD22332   5.390   4.748  13.918  0.6797 -0.5584  0.0483
  205SOD    SOD22333   1.687   0.252   2.497  0.4500  0.1354  0.4261
  206SOD    SOD22334   1.923   2.160   0.603 -0.2758  0.8898 -0.5256
  207SOD    SOD22335   0.855   1.842   1.034 -0.4365 -0.0955  0.5403
  208SOD    SOD22336   1.766   2.421   3.430 -0.3075  0.4068  0.6516
  209SOD    SOD22337   3.664   5.965  15.635 -0.2627  0.1561  0.2138
  210SOD    SOD22338   5.759   3.150   4.895 -0.3477  0.2831 -0.3489
  211SOD    SOD22339   0.788   1.835  11.553 -0.3645  0.0818 -0.1811
  212SOD    SOD22340   3.835   1.055  12.897 -0.4310 -0.0409 -0.2741
  213SOD    SOD22341   0.916   4.739  11.728  0.0363 -0.1567 -0.0214
  214SOD    SOD22342   0.927   2.964   6.694  0.0336 -0.1780  0.1442
  215SOD    SOD22343   5.115   5.513  13.286 -0.0729 -0.0551 -0.1643
  216SOD    SOD22344   5.288   3.014  11.495  0.2509 -0.0472  0.0053
  217SOD    SOD22345   5.099   1.870   5.277  0.4928  0.0450 -0.2680
  218SOD    SOD22346   0.032   4.928   1.517 -0.1588  0.2847 -0.1132
  219SOD    SOD22347   0.798   2.939   5.245  0.3333 -0.2303 -0.1398
  220SOD    SOD22348   1.983   5.696  10.680 -0.0422 -0.1858 -0.1789
  221SOD    SOD22349   6.664   4.931  16.752  0.0933  0.4802  0.1331
  222SOD    SOD22350   4.997   4.512  12.953 -0.4959 -0.2955  0.1056
  223SOD    SOD22351   1.800   0.845   2.989  0.2281  0.2940 -0.3735
  224SOD    SOD22352   6.304   2.226   3.385 -0.1321 -0.2670  0.3445
  225SOD    SOD22353   5.750   1.262   2.853 -0.1812 -0.2016 -0.3799
  226SOD    SOD22354   0.614   5.437  12.417  0.4024  0.5491 -0.2507
  227SOD    SOD22355   3.819   0.232  12.757  0.5177 -0.0253  0.4387
  228SOD    SOD22356   0.406   2.156   2.731  0.8354  0.2583  0.9390
  229SOD    SOD22357   4.388   3.356  10.643  0.2112 -0.0157  0.7306
  230SOD    SOD22358   0.360   6.599  15.295 -0.4357 -0.1860 -0.1236
  231SOD    SOD22359   6.602   1.797   2.072 -0.0891  0.0020 -0.3541
  232SOD    SOD22360   1.370   4.635   6.300  0.2568  0.0377 -0.1655
  233SOD    SOD22361   2.443   0.080   1.086 -0.3149  0.0542  0.2030
  234SOD    SOD22362   3.926   1.526  11.847 -0.0128  0.4383 -0.1052
  235SOD    SOD22363   3.617   0.183  16.191 -0.0740 -0.5305  0.6601
  236SOD    SOD22364   2.583   6.425   3.258 -0.3343 -0.3888 -0.3355
  237SOD    SOD22365   6.812   4.265  10.630 -0.1211  0.1055 -0.2147
  238SOD    SOD22366   2.138   5.691  13.497 -0.0690 -0.3037 -0.5361
  239SOD    SOD22367   5.344   1.371  14.731 -0.3303  0.7676  0.4401
  240SOD    SOD22368   4.583   3.176  16.860 -0.1514  0.0999  0.3297
  241SOD    SOD22369   4.266   2.045   4.315  0.1090  0.5745 -0.4326
  242SOD    SOD22370   4.514   4.820  16.837 -0.5651 -0.4092 -0.2108
  243SOD    SOD22371   0.780   2.201   6.568 -0.1698  0.0863 -0.4837
  244SOD    SOD22372   4.593   6.283  15.140 -0.2646 -0.0103 -0.1766
  245SOD    SOD22373   5.763   5.289  14.613 -0.4023  0.2400  0.1607
  246SOD    SOD22374   1.957   1.591   5.861  0.0987  0.0717 -0.2184
  247SOD    SOD22375   2.913   1.273   3.491  0.3069 -0.6405 -0.4101
  248SOD    SOD22376   6.303   0.172  15.687 -0.0156  0.0716 -0.5440
  249SOD    SOD22377   4.657   5.059   5.399  0.5375 -0.4208 -0.5042
  250SOD    SOD22378   2.765   3.606   4.461 -0.1797 -0.3852  0.2331
  251SOD    SOD22379   3.641   3.642   3.403  0.2511 -0.1435 -0.3267
  252SOD    SOD22380   5.731   5.234  10.750 -0.2965 -0.0135 -0.0568
  253SOD    SOD22381   4.964   1.379   4.944 -0.1199 -0.1629 -0.1863
  254SOD    SOD22382   1.656   6.109   6.343 -0.0506  0.1201 -0.4910
  255SOD    SOD22383   6.403   5.593   2.160 -0.5639 -0.1362  0.0892
  256SOD    SOD22384   1.268   2.118  13.552 -0.1214 -0.0380  0.5101
  257SOD    SOD22385   4.003   4.977   3.757  0.5905  0.3025 -0.5504
  258SOD    SOD22386   4.704   3.930  12.191  0.0985 -0.1810  0.0047
  259SOD    SOD22387   0.431   3.927  15.279  0.8677  0.0243 -0.3664
  260SOD    SOD22388   2.485   0.225   5.848 -0.4945  0.0909  0.6728
  261SOD    SOD22389   4.457   1.987  13.612 -0.1213 -0.0705  0.3271
  262SOD    SOD22390   2.059   0.729   2.558  0.3362  0.3445 -0.2588
  263SOD    SOD22391   0.376   6.523   6.155 -0.0126  0.2109 -0.1895
  264SOD    SOD22392   6.456   4.536   3.631  0.2195 -0.3591  0.1188
  265SOD    SOD22393   6.114   0.464   4.002  0.1359  0.3372 -0.0311
  266CLA    CLA22394   2.817   0.405   3.030 -0.3744 -0.0456  0.1918
  267CLA    CLA22395   0.308   5.576  16.930  0.1448  0.5000  0.1344
  268CLA    CLA22396   2.575   2.947  16.125  0.0726  0.1356 -0.0272
  269CLA    CLA22397   5.991   5.054  15.880  0.0538 -0.2348  0.0652
  270CLA    CLA22398   3.065   1.470   3.975  0.0438 -0.1542  0.2616
  271CLA    CLA22399   2.401   3.446  13.176  0.0252 -0.1904 -0.4729
  272CLA    CLA22400   3.019   0.466   2.462  0.0694 -0.3695  0.2546
  273CLA    CLA22401   4.491   5.124   4.319  0.1469  0.2327  0.2165
  274CLA    CLA22402   4.890   0.643  16.994 -0.1454  0.3567 -0.0667
  275CLA    CLA22403   5.330   4.080  14.132  0.0089 -0.0936 -0.1235
  276CLA    CLA22404   2.677   4.493   4.643  0.1691  0.3213 -0.3347
  277CLA    CLA22405   1.980   0.835   1.110  0.3638 -0.1983 -0.2699
  278CLA    CLA22406   0.858   4.393  12.421 -0.0460 -0.0446 -0.2700
  279CLA    CLA22407   2.422   1.848   1.765  0.1287  0.0072 -0.3039
  280CLA    CLA22408   1.788   5.466   4.293  0.0578  0.0551 -0.1509
  281CLA    CLA22409   4.805   4.688   2.836 -0.3828 -0.0914 -0.5316
  282CLA    CLA22410   0.842   4.596  15.999 -0.0111 -0.2358 -0.0297
  283CLA    CLA22411   4.631   0.982  12.797 -0.1942 -0.1845  0.1556
  284CLA    CLA22412   0.221   0.771  14.819  0.0485 -0.2582  0.6536
  285CLA    CLA22413   0.193   6.156  15.456  0.3776 -0.1065  0.0000
  286CLA    CLA22414   6.373   0.240   3.707  0.0015 -0.5412  0.0599
  287CLA    CLA22415   2.059   2.807   0.921 -0.3096  0.0739 -0.2222
  288CLA    CLA22416   3.221   0.924   4.885  0.1114  0.6532 -0.0684
  289CLA    CLA22417   1.270   5.491   5.759  0.1560 -0.4764  0.0515
  290CLA    CLA22418   4.809   1.375   4.448  0.3248  0.2104 -0.1759
  291CLA    CLA22419   4.039   3.213  12.548  0.3701  0.0899 -0.0593
  292CLA    CLA22420   1.557   3.376   3.955 -0.3278 -0.0421 -0.1378
  293CLA    CLA22421   1.951   6.332   5.277 -0.0310  0.7621  0.1613
  294CLA    CLA22422   3.775   6.680  15.828 -0.1077 -0.1540  0.4833
  295CLA    CLA22423   2.073   0.339  11.454  0.2896 -0.3332  0.0118
  296CLA    CLA22424   3.908   1.295  12.212 -0.1878  0.3166 -0.7230
  297CLA    CLA22425   3.934   3.901  13.386  0.2071  0.1759 -0.2773
  298CLA    CLA22426   3.274   0.305  13.485  0.0347 -0.1892 -0.5248
  299CLA    CLA22427   1.294   5.119  14.621  0.3185 -0.1058 -0.0305
  300CLA    CLA22428   4.126   0.116  12.336 -0.1026  0.0279 -0.4268
  301CLA    CLA22429   0.533   3.523  14.773 -0.3206 -0.3986  0.0066
  302CLA    CLA22430   1.104   2.118   4.397  0.4052 -0.3460  0.0927
  303CLA    CLA22431   1.184   3.698  13.979 -0.5516 -0.0184 -0.1180
  304CLA    CLA22432   2.723   2.425   3.689  0.4038  0.0768 -0.1027
  305CLA    CLA22433   5.202   1.619   0.441  0.1617 -0.5410  0.2394
  306CLA    CLA22434   2.096   1.313   0.824 -0.4855  0.2141 -0.3329
  307CLA    CLA22435   5.201   0.474   0.895 -0.0897 -0.1968  0.5498
  308CLA    CLA22436   1.236   5.359  13.150  0.0246 -0.1408  0.2857
  309CLA    CLA22437   0.967   1.870  15.629 -0.1285  0.3473  0.3483
  310CLA    CLA22438   6.147   4.722   5.416 -0.2373 -0.6865 -0.1019
  311CLA    CLA22439   4.032   2.854   3.660 -0.1029 -0.0694 -0.5423
  312CLA    CLA22440   5.384   2.717  11.980  0.0111 -0.4453  0.0007
  313CLA    CLA22441   2.159   0.097   3.546 -0.0673  0.1518 -0.0189
  314CLA    CLA22442   5.362   0.380  11.855 -0.0983 -0.1188  0.2602
  315CLA    CLA22443   0.363   2.143   2.464  0.1286 -0.0556 -0.1988
  316CLA    CLA22444   1.616   1.861  15.555  0.0801 -0.2648  0.3098
  317CLA    CLA22445   0.104   3.746   1.434 -0.6274  0.1334  0.0231
  318CLA    CLA22446   0.811   5.876  17.192 -0.0341 -0.3925  0.1048
  319TIP3   OH222447   1.948   6.149  11.685 -0.5559 -0.4825 -0.1904
  319TIP3    H122448   1.947   6.060  11.650  0.6146  0.0285 -1.6626
  319TIP3    H222449   2.027   6.153  11.738  1.5441  0.6302 -3.1074
  320TIP3   OH222450   5.179   5.545   3.839 -0.1363 -0.6456  0.6713
  320TIP3    H122451   5.103   5.601   3.827 -0.8035 -1.8106 -0.9000
  320TIP3    H222452   5.244   5.601   3.881 -1.4367  0.7078  0.9553
  321TIP3   OH222453   1.378   0.059   5.216  0.0718 -0.3486 -0.0802
  321TIP3    H122454   1.388   0.012   5.298  1.0472 -0.7540 -0.4221
  321TIP3    H222455   1.426   0.141   5.228 -0.9773  0.2431  0.2405
  322TIP3   OH222456   0.706   6.063   3.778 -0.3442 -0.3412 -0.3632
  322TIP3    H122457   0.665   6.147   3.797  0.5934  0.1100 -0.2742
  322TIP3    H222458   0.709   6.018   3.862  0.8019  0.2997 -0.0367
  323TIP3   OH222459   2.659   5.931   3.358  0.2134  0.0083  0.7068
  323TIP3    H122460   2.670   5.854   3.302 -0.4002  0.7223 -0.4465
  323TIP3    H222461   2.718   5.997   3.322  0.8188  0.0613  1.7504
  324TIP3   OH222462   6.283   4.236  10.245 -0.7046  0.2953 -0.0078
  324TIP3    H122463   6.361   4.206  10.292 -1.8122 -0.1229  1.6767
  324TIP3    H222464   6.310   4.317  10.201  0.6648  0.1502  0.5319
  325TIP3   OH222465   4.049   2.302   2.406 -0.3079 -0.1959  0.1920
  325TIP3    H122466   4.075   2.228   2.462  0.2236  0.7962  1.2946
  325TIP3    H222467   4.020   2.369   2.468  1.7131  1.5103 -0.6003
  326TIP3   OH222468   3.514   6.307   0.966 -0.3457  0.6556  0.4635
  326TIP3    H122469   3.533   6.401   0.958  0.4929  0.4607  0.0532
  326TIP3    H222470   3.506   6.276   0.876 -2.5250  0.6753  0.6048
  327TIP3   OH222471   6.526   0.793   0.427 -0.7094 -0.1244  0.1799
  327TIP3    H122472   6.518   0.888   0.436  0.1427 -0.1244  1.1944
  327TIP3    H222473   6.435   0.761   0.425 -1.0025  0.6180  1.0745
  328TIP3   OH222474   6.047   6.350   3.126  0.1598 -0.1797  0.3236
  328TIP3    H122475   5.984   6.282   3.150  0.1610 -0.5732 -0.7309
  328TIP3    H222476   6.028   6.423   3.186 -2.3826  0.3465 -0.9886
  329TIP3   OH222477   0.407   3.321   6.211 -0.1362 -0.4858 -0.9147
  329TIP3    H122478   0.448   3.272   6.283  2.5016  2.6498 -0.0255
  329TIP3    H222479   0.359   3.392   6.254 -0.5453  0.0571 -2.2075
  330TIP3   OH222480   4.202   6.181  10.903  0.0030 -0.0793 -0.5144
  330TIP3    H122481   4.262   6.197  10.829  1.3986 -0.5677  0.4707
  330TIP3    H222482   4.164   6.095  10.883 -0.4268  0.2526 -1.1735
  331TIP3   OH222483   2.678   0.930   3.820 -0.1345  0.6609  0.9866
  331TIP3    H122484   2.674   0.906   3.913 -0.1087 -0.5173  0.6978
  331TIP3    H222485   2.593   0.969   3.802 -1.6365 -2.4082  0.6804
  332TIP3   OH222486   1.523   0.977  15.071  0.1317  0.0896 -0.0662
  332TIP3    H122487   1.478   0.900  15.107  2.8906 -0.5333  2.4279
  332TIP3    H222488   1.583   0.941  15.005  1.6237 -0.0308  1.2973
  333TIP3   OH222489   5.472   1.774   5.210  0.0056  0.0240  0.5163
  333TIP3    H122490   5.503   1.796   5.123 -2.0178 -0.2204 -0.3125
  333TIP3    H222491   5.550   1.742   5.256  1.0627 -0.0215 -1.2406
  334TIP3   OH222492   0.928   6.299   1.429 -0.0746 -0.6990 -0.2149
  334TIP3    H122493   0.972   6.241   1.491 -1.2054 -2.3982 -0.9268
  334TIP3    H222494   0.977   6.289   1.347  0.4599  0.3019 -0.0204
  335TIP3   OH222495   5.484   3.068  11.642 -0.1447 -0.1915 -0.0256
  335TIP3    H122496   5.490   3.034  11.731 -1.0766  0.0568  0.1382
  335TIP3    H222497   5.575   3.076  11.613  0.1410 -1.4823  0.4375
  336TIP3   OH222498   4.885   0.727  15.437 -0.1583  0.0045 -0.4270
  336TIP3    H122499   4.832   0.805  15.455 -0.4706  0.2422 -2.1554
  336TIP3    H222500   4.933   0.749  15.357  0.9060 -1.0240 -0.0929
  337TIP3   OH222501   0.408   3.422   1.248  0.3820  0.0280  0.2238
  337TIP3    H122502   0.367   3.492   1.196  0.9414 -1.0560 -1.7897
  337TIP3    H222503   0.490   3.461   1.278 -0.9036  1.3857  2.1965
  338TIP3   OH222504   1.361   2.247  14.020 -0.5647  0.2574 -0.6422
  338TIP3    H122505   1.311   2.169  14.042 -3.1703  1.8288 -0.5866
  338TIP3    H222506   1.412   2.267  14.098  0.3773 -1.5135 -0.7710
  339TIP3   OH222507   2.111   6.265  16.915  0.3847 -0.1925 -0.4189
  339TIP3    H122508   2.027   6.270  16.960 -0.3928 -2.2833 -1.4603
  339TIP3    H222509   2.088   6.246  16.824  1.9676  0.6651 -1.0283
  340TIP3   OH222510   0.883   3.375  12.348  0.1001 -0.6421  0.3765
  340TIP3    H122511   0.831   3.440  12.394 -1.1290 -0.5909 -1.0304
  340TIP3    H222512   0.836   3.292  12.361  1.5091 -1.2817  1.9301
  341TIP3   OH222513   6.362   6.358  12.550 -0.2966  0.7268 -0.2571
  341TIP3    H122514   6.335   6.392  12.466 -0.2847  0.4283 -0.3849
  341TIP3    H222515   6.294   6.386  12.611 -1.0210 -0.1995 -0.6104
  342TIP3   OH222516   3.984   2.563  13.579 -0.3561  0.4723 -0.3794
  342TIP3    H122517   3.999   2.470  13.595  1.1133  0.4772 -1.5063
  342TIP3    H222518   3.921   2.589  13.646 -0.0497 -1.1004  0.5774
  343TIP3   OH222519   5.928   1.457  11.768 -0.2619  0.0219  0.1161
  343TIP3    H122520   5.938   1.524  11.700 -0.5944 -0.6625 -0.6232
  343TIP3    H222521   6.006   1.468  11.823  0.6432 -0.1951 -1.0780
  344TIP3   OH222522   6.592   1.760  16.556 -0.2872  0.7160  0.6002
  344TIP3    H122523   6.650   1.829  16.587 -0.1939  0.6632  0.5440
  344TIP3    H222524   6.635   1.679  16.583  1.1926  0.5258 -1.9699
  345TIP3   OH222525   1.223   2.189  11.562 -0.1879 -0.1463 -0.6220
  345TIP3    H122526   1.143   2.163  11.518  0.7378 -2.3528 -1.1419
  345TIP3    H222527   1.276   2.109  11.564  1.9033  1.1781 -0.1056
  346TIP3   OH222528   2.113   0.397  12.501 -0.6087  0.8404  0.1333
  346TIP3    H122529   2.133   0.453  12.576  0.4734  1.5639 -0.6682
  346TIP3    H222530   2.171   0.321  12.512 -2.1980 -0.2639  1.3137
  347TIP3   OH222531   0.277   6.119   3.318 -0.6349  0.2561 -0.1753
  347TIP3    H122532   0.285   6.210   3.290 -0.7366  0.9453  1.8590
  347TIP3    H222533   0.184   6.107   3.336 -0.5403 -0.0709  0.1214
  348TIP3   OH222534   5.553   6.617  14.213 -0.1118 -0.2278  0.2718
  348TIP3    H122535   5.507   6.534  14.225 -1.7183  0.6755  0.7848
  348TIP3    H222536   5.484   6.679  14.188  0.8427  1.2056  1.0463
  349TIP3   OH222537   0.239   0.078   4.636  0.4382  0.8800  0.2306
  349TIP3    H122538   0.299   0.099   4.564  0.0932  1.5590  0.1319
  349TIP3    H222539   0.296   0.044   4.705  0.8541  0.8501 -0.1189
  350TIP3   OH222540   1.694   4.102  12.026 -0.0733  0.5998 -0.4862
  350TIP3    H122541   1.648   4.184  12.009 -0.5206  0.2332 -1.0747
  350TIP3    H222542   1.635   4.052  12.082  0.3886  0.8498  0.2380
  351TIP3   OH222543   3.737   5.868  14.209  0.0323 -0.2550  0.3968
  351TIP3    H122544   3.816   5.887  14.158 -0.9506  1.4389 -0.5972
  351TIP3    H222545   3.697   5.954  14.223 -0.8627 -0.9295  2.1791
  352TIP3   OH222546   0.655   0.677  15.744  0.4979 -0.1941  0.8184
  352TIP3    H122547   0.642   0.591  15.782  1.0181 -1.3623 -1.4641
  352TIP3    H222548   0.748   0.680  15.721  0.1303  0.2273 -0.7520
  353TIP3   OH222549   5.651   2.895   1.569 -0.6702  0.1940 -0.1224
  353TIP3    H122550   5.584   2.832   1.545  0.9749 -1.1170 -1.5486
  353TIP3    H222551   5.692   2.920   1.485 -0.3582  2.1152  0.5454
  354TIP3   OH222552   1.894   5.014  16.451  0.5322  0.5721  0.1071
  354TIP3    H122553   1.842   5.042  16.375 -0.4002 -0.1447  0.4545
  354TIP3    H222554   1.933   5.095  16.485  1.8828  0.7625 -1.7705
  355TIP3   OH222555   4.855   2.505  15.230  0.0095  0.2347 -0.2923
  355TIP3    H122556   4.824   2.437  15.291  1.2598 -0.1390 -0.0490
  355TIP3    H222557   4.794   2.577  15.242  1.0709  0.7724  2.5578
  356TIP3   OH222558   6.363   2.110   4.143  0.1091 -0.0868  0.2798
  356TIP3    H122559   6.411   2.173   4.197  1.0025 -0.4045 -0.1187
  356TIP3    H222560   6.323   2.050   4.206 -1.5588  1.4011  0.7153
  357TIP3   OH222561   0.838   3.869  12.647  0.2096 -0.5069  0.2894
  357TIP3    H122562   0.755   3.903  12.681  0.1522  0.0810 -0.4383
  357TIP3    H222563   0.850   3.912  12.563  0.2348 -2.1228 -0.5888
  358TIP3   OH222564   0.750   3.703  16.887 -0.5895 -0.3051  0.3973
  358TIP3    H122565   0.804   3.669  16.815 -1.7493 -0.7011 -0.3138
  358TIP3    H222566   0.716   3.786  16.853 -1.9058 -0.9498  0.0963
  359TIP3   OH222567   5.808   5.035  16.979  0.0118  0.0375  0.3746
  359TIP3    H122568   5.886   5.035  16.923 -1.7974  0.0853 -2.3437
  359TIP3    H222569   5.747   5.093  16.934 -2.6348 -2.2393  0.7962
  360TIP3   OH222570   2.890   3.823   1.345 -0.3542 -0.2811  0.0318
  360TIP3    H122571   2.797   3.832   1.325 -0.2987  0.9866  0.2397
  360TIP3    H222572   2.935   3.862   1.270 -0.0572  0.9979  0.8438
  361TIP3   OH222573   0.287   3.255   0.144 -0.3916 -0.7009 -0.4823
  361TIP3    H122574   0.314   3.234   0.233 -1.2022 -0.2518 -0.1123
  361TIP3    H222575   0.194   3.277   0.152 -0.1769  0.6233 -1.2124
  362TIP3   OH222576   4.181   0.038  10.250 -0.4386  0.1643 -0.7219
  362TIP3    H122577   4.185   0.092  10.171  1.2924 -0.0523 -0.8220
  362TIP3    H222578   4.236   0.084  10.314  1.3888 -1.5943 -0.9338
  363TIP3   OH222579   0.693   0.544  13.689 -0.0374 -0.7916  0.3344
  363TIP3    H122580   0.708   0.591  13.771  0.5005  0.0723 -0.2435
  363TIP3    H222581   0.706   0.610  13.621 -1.5357 -1.2174 -0.4130
  364TIP3   OH222582   0.457   2.509   3.919  0.0416 -0.1111  0.1012
  364TIP3    H122583   0.406   2.469   3.848  1.4968 -2.5900  0.3509
  364TIP3    H222584   0.537   2.539   3.877  0.0229  0.2962  0.3545
  365TIP3   OH222585   2.045   6.415   5.707 -0.2473  0.3796 -0.3254
  365TIP3    H122586   2.104   6.445   5.638 -0.7841  0.7845 -0.6163
  365TIP3    H222587   1.959   6.411   5.665 -0.2616 -1.2336 -0.2039
  366TIP3   OH222588   4.956   5.546  15.631  0.1743 -0.0231 -0.0616
  366TIP3    H122589   4.911   5.618  15.675  2.7172  1.7852 -0.1976
  366TIP3    H222590   4.935   5.469  15.684 -2.3002  0.8408  0.3351
  367TIP3   OH222591   1.068   0.315  11.073 -0.0238 -0.6216 -0.1088
  367TIP3    H122592   1.138   0.372  11.105  0.0833 -1.0754  0.4864
  367TIP3    H222593   1.099   0.227  11.092 -2.0182 -0.7854  2.9264
  368TIP3   OH222594   0.222   2.304   6.068 -0.5269  0.1208  0.1754
  368TIP3    H122595   0.145   2.275   6.019 -0.4917 -1.6084  1.0698
  368TIP3    H222596   0.293   2.249   6.037  0.1478  1.0227  0.0855
  369TIP3   OH222597   3.249   0.922   4.446 -0.0051 -0.1458 -0.0532
  369TIP3    H122598   3.244   0.833   4.479 -0.3461 -0.1971 -0.2398
  369TIP3    H222599   3.185   0.971   4.497 -0.9735 -0.3539 -1.0236
  370TIP3   OH222600   2.198   4.774  14.198 -0.0500 -0.3060  0.2224
  370TIP3    H122601   2.165   4.846  14.251  1.8065 -0.5957  1.9463
  370TIP3    H222602   2.218   4.705  14.262  0.2989 -1.5034 -1.1168
  371TIP3   OH222603   6.296   2.496   1.640 -0.2244 -0.9115 -0.0243
  371TIP3    H122604   6.317   2.419   1.693  2.5946 -0.9716 -1.0881
  371TIP3    H222605   6.328   2.475   1.552 -0.5483  0.9789 -0.6519
  372TIP3   OH222606   1.367   4.720  12.188  0.3448 -0.2391 -0.6467
  372TIP3    H122607   1.330   4.807  12.204  0.2292  0.0656 -2.3743
  372TIP3    H222608   1.389   4.687  12.275 -0.6305  1.0626  0.1347
  373TIP3   OH222609   0.074   4.422  11.912 -0.6421 -0.3052 -0.2318
  373TIP3    H122610  -0.007   4.459  11.945  0.4264  1.4327  0.5934
  373TIP3    H222611   0.096   4.352  11.973 -0.2565  0.8707  1.0129
  374TIP3   OH222612   6.215   3.046   4.765  0.3122 -0.2730 -0.3850
  374TIP3    H122613   6.186   3.123   4.717 -0.8799 -0.8044 -0.5548
  374TIP3    H222614   6.190   2.972   4.710  0.9582 -0.7986  0.0151
  375TIP3   OH222615   1.803   5.710  16.480  0.6380  0.3668 -0.3006
  375TIP3    H122616   1.887   5.747  16.508 -0.1222  2.4673 -0.6475
  375TIP3    H222617   1.775   5.656  16.554  2.0424  0.0038  0.0068
  376TIP3   OH222618   2.616   3.847   5.709 -0.3576 -0.1108  0.5940
  376TIP3    H122619   2.552   3.885   5.648 -1.8316 -1.3856  1.2896
  376TIP3    H222620   2.568   3.777   5.753  0.5090  1.0120  3.5563
  377TIP3   OH222621   1.778   0.916  17.116 -0.3278  0.2940 -0.6921
  377TIP3    H122622   1.694   0.871  17.109 -0.6216  0.7472 -0.1593
  377TIP3    H222623   1.775   0.983  17.047 -0.1617 -0.0581 -1.0478
  378TIP3   OH222624   0.128   0.660   3.612 -0.0992  0.2248 -0.2091
  378TIP3    H122625   0.154   0.570   3.632 -0.0473 -0.4470 -2.8620
  378TIP3    H222626   0.189   0.715   3.661 -1.2454 -1.0710  2.8947
  379TIP3   OH222627   2.695   6.069   6.480 -0.3415  0.4542  0.2238
  379TIP3    H122628   2.621   6.009   6.485  0.0257  0.0506  1.0204
  379TIP3    H222629   2.688   6.109   6.394  0.8578 -2.6381 -1.4771
  380TIP3   OH222630   2.870   1.422  15.715  0.1301  0.1812  0.0576
  380TIP3    H122631   2.853   1.370  15.636  0.7994 -1.6063  1.0214
  380TIP3    H222632   2.934   1.371  15.764  1.6614  2.4797  0.6044
  381TIP3   OH222633   3.853   5.115  16.748 -0.0161 -0.2714 -0.2710
  381TIP3    H122634   3.886   5.112  16.658  2.4407  0.2026  0.5324
  381TIP3    H222635   3.867   5.206  16.776  0.7845 -0.7791  1.0873
  382TIP3   OH222636   0.670   0.599  11.434  0.4339 -0.3974  0.0641
  382TIP3    H122637   0.740   0.535  11.447  0.0479 -0.5614  1.5264
  382TIP3    H222638   0.633   0.576  11.349  0.8010 -1.6338  0.2120
  383TIP3   OH222639   4.718   6.317   5.769  0.2123  0.1384 -0.0338
  383TIP3    H122640   4.808   6.285   5.774  0.0413 -0.5260 -0.8719
  383TIP3    H222641   4.664   6.240   5.783 -0.2427  0.5929  0.7913
  384TIP3   OH222642   0.130   5.580   1.563 -0.0365  0.8034  0.3246
  384TIP3    H122643   0.133   5.638   1.487 -0.8865  0.8998  0.3457
  384TIP3    H222644   0.055   5.522   1.546  0.1381  0.4246  0.8044
  385TIP3   OH222645   5.329   0.718   3.027 -0.0428 -0.9496 -0.1220
  385TIP3    H122646   5.383   0.794   3.003 -1.4975 -0.1057 -0.8941
  385TIP3    H222647   5.381   0.643   2.998  1.1998 -0.2482  0.1694
  386TIP3   OH222648   2.251   5.122  12.611 -0.1752  0.8878 -0.1555
  386TIP3    H122649   2.306   5.200  12.610  1.3950 -0.0419  2.8756
  386TIP3    H222650   2.276   5.075  12.690 -0.1536 -3.3823 -2.3709
  387TIP3   OH222651   3.424   4.528  12.692  0.0510  0.3657  0.0852
  387TIP3    H122652   3.420   4.504  12.599  1.8632 -0.6347  0.2034
  387TIP3    H222653   3.446   4.621  12.692  0.6992  0.2247 -0.5208
  388TIP3   OH222654   4.583   1.583  14.942 -0.1267  0.4477  0.1355
  388TIP3    H122655   4.649   1.652  14.930  0.0196  0.8549  2.6542
  388TIP3    H222656   4.612   1.536  15.020 -1.6513 -0.7973 -0.0030
  389TIP3   OH222657   5.827   2.180   1.449  0.3521  0.1309  0.0309
  389TIP3    H122658   5.797   2.263   1.414 -2.0696  0.0987  1.7659
  389TIP3    H222659   5.920   2.176   1.425  0.5922  3.3448 -0.0630
  390TIP3   OH222660   4.402   0.455  11.186 -0.0024 -0.5324 -0.4192
  390TIP3    H122661   4.387   0.509  11.109 -0.1017 -1.4166 -1.0355
  390TIP3    H222662   4.387   0.365  11.156  0.9785 -0.9810  0.3631
  391TIP3   OH222663   1.721   3.353  11.226  0.2271  0.8256  0.1893
  391TIP3    H122664   1.700   3.292  11.156 -0.5088  0.2904  0.8523
  391TIP3    H222665   1.686   3.312  11.305  1.4978  1.1638  0.9634
  392TIP3   OH222666   1.619   1.049   6.308  0.2973 -0.1540  0.4515
  392TIP3    H122667   1.687   1.006   6.361 -0.2620  1.5016  2.6530
  392TIP3    H222668   1.537   1.027   6.352 -0.1679  1.4800  0.4639
  393TIP3   OH222669   2.708   1.400  16.420 -0.2797  0.4362 -0.1818
  393TIP3    H122670   2.664   1.345  16.355 -2.2093  1.3731  0.2382
  393TIP3    H222671   2.787   1.352  16.443 -1.8423 -2.1441  0.1432
  394TIP3   OH222672   2.181   2.475   0.692  0.2396  0.2316 -0.6374
  394TIP3    H122673   2.228   2.428   0.623 -0.9015  0.0326 -1.2975
  394TIP3    H222674   2.181   2.567   0.664  0.7734  0.3386 -0.3130
  395TIP3   OH222675   6.042   1.664  12.148  0.2711  0.1914  0.3963
  395TIP3    H122676   5.952   1.685  12.124 -0.5468 -1.8632  1.3850
  395TIP3    H222677   6.087   1.748  12.152 -0.5361  1.0829 -3.9976
  396TIP3   OH222678   6.376   3.896   4.076 -0.2603  0.7444  0.2026
  396TIP3    H122679   6.369   3.877   3.982 -0.7556 -0.3327  0.4439
  396TIP3    H222680   6.466   3.926   4.088  0.6504 -1.5796 -0.2230
  397TIP3   OH222681   2.608   1.372  11.853  0.1463  0.2377 -0.6051
  397TIP3    H122682   2.623   1.278  11.844 -1.4137 -0.0727 -0.3378
  397TIP3    H222683   2.637   1.393  11.941  0.3280 -0.0251 -0.6016
  398TIP3   OH222684   6.816   6.394  11.940 -0.2620  0.3057 -0.4575
  398TIP3    H122685   6.753   6.418  11.873 -0.7396  0.3618  0.0018
  398TIP3    H222686   6.902   6.407  11.900 -0.4968  2.3665 -0.3675
  399TIP3   OH222687   6.311   3.765   3.529 -0.0351  0.2386  0.0802
  399TIP3    H122688   6.270   3.726   3.452  0.7785 -0.7081  0.1101
  399TIP3    H222689   6.243   3.822   3.566 -1.6301 -1.8626  0.5897
  400TIP3   OH222690   2.777   4.006   6.512 -0.0511  0.4649 -0.2680
  400TIP3    H122691   2.746   4.004   6.422  1.1745  0.6626 -0.7141
  400TIP3    H222692   2.872   4.000   6.505  0.0923  0.9091  0.9987
  401TIP3   OH222693   3.557   0.225   4.288  0.0883 -0.1778  0.0212
  401TIP3    H122694   3.565   0.302   4.232 -1.5743  0.4192  0.5531
  401TIP3    H222695   3.548   0.261   4.377  0.3614 -1.0288  0.4047
  402TIP3   OH222696   3.312   4.656   2.154 -0.5969  0.1133  0.1896
  402TIP3    H122697   3.288   4.618   2.239 -0.1980 -0.7788 -0.0829
  402TIP3    H222698   3.250   4.617   2.092 -0.5953  0.4100  0.0012
  403TIP3   OH222699   2.118   1.532  12.502  0.0039 -0.4951 -0.3702
  403TIP3    H122700   2.194   1.481  12.475  0.0915 -0.7071  0.2442
  403TIP3    H222701   2.045   1.472  12.496  0.4066 -1.4374  2.4063
  404TIP3   OH222702   2.168   4.610  17.000 -0.3097 -0.3260  0.4023
  404TIP3    H122703   2.115   4.562  17.063 -1.7011  0.4823 -0.1098
  404TIP3    H222704   2.110   4.625  16.925  1.5982 -2.2451 -1.6497
  405TIP3   OH222705   5.651   2.240  15.728 -0.0342 -0.1023 -0.2984
  405TIP3    H122706   5.665   2.334  15.741 -1.1713  0.1817 -0.9792
  405TIP3    H222707   5.738   2.201  15.738  1.2931  1.4852 -3.8894
  406TIP3   OH222708   3.923   3.427  17.148 -0.2281  0.1548 -0.4249
  406TIP3    H122709   3.892   3.425  17.239  0.5454 -1.3731 -0.1594
  406TIP3    H222710   3.843   3.437  17.097 -0.5622  2.4162  0.4301
  407TIP3   OH222711   3.327   0.083   1.871 -0.5496  0.0902 -0.4107
  407TIP3    H122712   3.384   0.110   1.943  0.1235  0.2968 -0.9997
  407TIP3    H222713   3.239   0.085   1.907 -0.1425 -0.7592  0.6951
  408TIP3   OH222714   4.418   2.861   5.091  0.7939  0.2360  0.3064
  408TIP3    H122715   4.353   2.930   5.077 -0.4197 -0.7192  1.0078
  408TIP3    H222716   4.488   2.881   5.029 -0.5565  0.8184 -1.0899
  409TIP3   OH222717   1.473   2.293  14.306 -0.7168 -0.2542  0.1873
  409TIP3    H122718   1.392   2.319  14.349 -0.3575  1.1133  0.1105
  409TIP3    H222719   1.531   2.265  14.377 -0.5171  0.8959  0.5042
  410TIP3   OH222720   4.821   2.804  10.394 -0.3247  0.2304  0.0623
  410TIP3    H122721   4.894   2.796  10.334 -1.0525 -1.4884 -0.6572
  410TIP3    H222722   4.849   2.759  10.474 -0.0657  0.8604  0.3337
  411TIP3   OH222723   2.250   2.861   1.778  0.2041  0.4256 -0.1627
  411TIP3    H122724   2.316   2.914   1.733  1.2193 -1.2819 -0.7898
  411TIP3    H222725   2.264   2.773   1.744 -1.3089 -0.2880  0.9768
  412TIP3   OH222726   3.770   4.188  16.221  0.3864 -0.5970 -0.1813
  412TIP3    H122727   3.771   4.095  16.244  1.5535 -1.4821 -3.3243
  412TIP3    H222728   3.858   4.206  16.191  0.1346  1.5320  0.2434
  413TIP3   OH222729   5.775   1.693  13.174 -0.0613  0.4853  0.0942
  413TIP3    H122730   5.774   1.729  13.085 -0.1255  0.2582  0.0036
  413TIP3    H222731   5.859   1.648  13.181 -0.1275  0.3614  0.0928
  414TIP3   OH222732   0.838   1.534  17.212  0.0019 -0.2727  0.6217
  414TIP3    H122733   0.868   1.461  17.267  0.1517 -1.0976 -0.5183
  414TIP3    H222734   0.851   1.612  17.266  1.1462 -0.9486  1.3613
  415TIP3   OH222735   3.504   6.588   6.240 -0.1236 -0.4038  0.2497
  415TIP3    H122736   3.590   6.553   6.213 -0.4244 -0.0236 -1.3287
  415TIP3    H222737   3.523   6.642   6.316  1.6231  2.2387 -1.8441
  416TIP3   OH222738   1.642   2.992   3.026  0.5048  0.1101 -0.1244
  416TIP3    H122739   1.708   2.924   3.038  0.0450 -0.4138 -0.5624
  416TIP3    H222740   1.558   2.946   3.029  0.1836  0.6748 -0.2685
  417TIP3   OH222741   4.344   4.228   4.437 -0.4779 -0.5181  0.1454
  417TIP3    H122742   4.332   4.149   4.491  1.9953 -1.9696 -1.2225
  417TIP3    H222743   4.258   4.270   4.437 -1.2456 -1.8139  3.0363
  418TIP3   OH222744   0.652   6.133   0.353 -0.0363  0.0757 -0.0787
  418TIP3    H122745   0.645   6.106   0.261  0.1920  2.3450 -0.8247
  418TIP3    H222746   0.563   6.124   0.387 -0.1723 -0.5695 -0.5779
  419TIP3   OH222747   0.735   1.856  16.914 -0.0768  0.1762  0.2044
  419TIP3    H122748   0.811   1.895  16.958  0.5075 -0.7181  0.0259
  419TIP3    H222749   0.733   1.766  16.946  0.0647 -0.3486 -1.1990
  420TIP3   OH222750   4.144   3.640   2.225 -0.1434 -0.0555  0.8180
  420TIP3    H122751   4.235   3.668   2.223  0.0975 -0.7686 -1.6732
  420TIP3    H222752   4.138   3.571   2.159 -2.5803  0.3439  0.4963
  421TIP3   OH222753   1.132   0.207   4.409  0.4474  0.1179  0.3163
  421TIP3    H122754   1.218   0.185   4.443 -0.1154 -1.2454  0.9370
  421TIP3    H222755   1.111   0.292   4.448  2.4724  1.6797 -1.7329
  422TIP3   OH222756   5.799   2.616  14.067  0.0674 -1.0044  0.4936
  422TIP3    H122757   5.806   2.544  14.004  0.3128 -1.7950  1.4102
  422TIP3    H222758   5.733   2.587  14.129 -0.9280  0.2111  0.0533
  423TIP3   OH222759   0.982   5.433   5.380 -0.0475 -0.4474 -0.3453
  423TIP3    H122760   1.030   5.492   5.438  0.5401  1.7260 -2.7981
  423TIP3    H222761   1.035   5.430   5.300 -0.8989 -3.1080 -0.9119
  424TIP3   OH222762   4.076   3.633   5.642  0.3134  0.0212  0.3827
  424TIP3    H122763   4.029   3.703   5.687  1.0282  0.0611  1.0975
  424TIP3    H222764   4.009   3.567   5.623  0.1533 -0.5239  2.5588
  425TIP3   OH222765   2.411   1.395  13.563 -0.3730 -0.0305 -0.1004
  425TIP3    H122766   2.323   1.433  13.575 -0.9746 -1.5959  0.7301
  425TIP3    H222767   2.462   1.465  13.522 -2.0768  0.8317 -0.8574
  426TIP3   OH222768   6.045   5.187  16.573  0.4710  0.1343  0.1165
  426TIP3    H122769   5.991   5.121  16.615 -0.2101  1.2276  1.0338
  426TIP3    H222770   6.056   5.255  16.640  1.2631  0.8857 -0.7412
  427TIP3   OH222771   3.660   2.407   3.028 -0.4531 -0.1082 -0.2196
  427TIP3    H122772   3.611   2.434   3.106  1.7441  1.5127  0.7305
  427TIP3    H222773   3.675   2.489   2.981  1.6642 -0.4332 -0.2085
  428TIP3   OH222774   6.801   5.195  12.179 -0.0906  0.0936  0.1011
  428TIP3    H122775   6.830   5.155  12.097 -0.5614  0.6540 -0.3512
  428TIP3    H222776   6.799   5.123  12.242  1.1785 -0.1611 -0.1356
  429TIP3   OH222777   5.299   3.328  16.185 -0.4343 -0.0643  0.1699
  429TIP3    H122778   5.356   3.400  16.159  0.3081 -1.5025 -2.5196
  429TIP3    H222779   5.354   3.273  16.241 -1.1485  1.5760  2.6307
  430TIP3   OH222780   6.774   4.043  14.669 -0.0873 -0.1028  0.5108
  430TIP3    H122781   6.780   3.960  14.716  1.0508 -0.1657  0.2993
  430TIP3    H222782   6.780   4.019  14.577  0.2536  0.2047  0.4492
  431TIP3   OH222783   0.397   0.930  13.968  0.3977  0.5180 -0.1690
  431TIP3    H122784   0.305   0.955  13.965  0.0917 -0.6353 -1.7705
  431TIP3    H222785   0.412   0.901  14.058 -0.8619  0.4889  0.0445
  432TIP3   OH222786   5.538   2.704  16.534 -0.3162 -0.5334  0.1193
  432TIP3    H122787   5.469   2.756  16.576 -0.5429 -0.1547 -0.7013
  432TIP3    H222788   5.494   2.623  16.507  0.3085 -1.7709  2.5215
  433TIP3   OH222789   5.667   6.269  14.118 -0.1750 -0.8479  0.0484
  433TIP3    H122790   5.762   6.277  14.125 -0.0132 -3.2117  1.7218
  433TIP3    H222791   5.648   6.279  14.025  1.4901  1.2852 -0.1151
  434TIP3   OH222792   6.635   0.192  16.078  0.0869 -0.7727 -0.0000
  434TIP3    H122793   6.664   0.262  16.020 -1.4895 -0.1421 -0.0732
  434TIP3    H222794   6.701   0.123  16.068  1.5878  0.6215 -0.0304
  435TIP3   OH222795   3.961   3.381  14.168  0.4105 -0.5353 -0.2259
  435TIP3    H122796   4.041   3.433  14.163 -0.0671  0.1070 -1.8290
  435TIP3    H222797   3.992   3.291  14.170  1.2291 -0.2573  1.8895
  436TIP3   OH222798   6.561   2.484  16.500  0.4820 -0.6525  0.2676
  436TIP3    H122799   6.654   2.480  16.520  0.4882  1.0364  0.7020
  436TIP3    H222800   6.527   2.399  16.529  1.6528 -0.7860  1.3464
  437TIP3   OH222801   2.861   1.921   3.877  0.6445  0.5888 -0.1614
  437TIP3    H122802   2.924   1.992   3.874  0.7133  0.8780  3.2448
  437TIP3    H222803   2.896   1.861   3.944 -0.3089 -1.7744 -1.6378
  438TIP3   OH222804   0.811   5.234  12.695 -0.8485  0.6624 -0.2434
  438TIP3    H122805   0.898   5.268  12.672  0.2508 -1.7916 -0.0092
  438TIP3    H222806   0.806   5.243  12.790  0.5915 -2.1166  0.1881
  439TIP3   OH222807   2.628   3.157  12.093 -0.6254 -0.0411 -0.0262
  439TIP3    H122808   2.619   3.085  12.032  0.0634 -1.7888  1.8251
  439TIP3    H222809   2.701   3.209  12.059 -0.9864 -0.3152 -1.2597
  440TIP3   OH222810   0.485   4.591  12.367 -0.1581 -0.1401 -0.2314
  440TIP3    H122811   0.501   4.582  12.273 -3.4517  1.0491 -1.0590
  440TIP3    H222812   0.493   4.684  12.385 -1.1075 -0.1428  0.2890
  441TIP3   OH222813   0.671   0.002   3.590  0.4377 -0.4343  0.0486
  441TIP3    H122814   0.742  -0.063   3.592  1.7966  0.9796  2.6857
  441TIP3    H222815   0.709   0.080   3.629 -2.1222  0.9355  0.0113
  442TIP3   OH222816   2.202   6.687   5.476 -0.2009 -0.3201 -0.3483
  442TIP3    H122817   2.224   6.705   5.567 -0.4098  0.1514 -0.3883
  442TIP3    H222818   2.286   6.667   5.434 -0.0349  0.0256 -0.1785
  443TIP3   OH222819   6.322   4.127   1.354 -0.1081  0.7926 -0.3359
  443TIP3    H122820   6.243   4.160   1.312 -0.1672  1.4112  0.2462
  443TIP3    H222821   6.318   4.032   1.340 -0.6057  0.8895 -0.8914
  444TIP3   OH222822   2.042   5.694   1.484 -0.6488  0.3421 -0.1004
  444TIP3    H122823   2.040   5.689   1.580 -0.0206  2.2047  0.0678
  444TIP3    H222824   2.028   5.787   1.465  0.6800  0.2568 -1.7421
  445TIP3   OH222825   1.516   6.632  13.202  0.6294  0.2792 -0.3930
  445TIP3    H122826   1.560   6.562  13.250  0.6711 -0.2836 -1.2163
  445TIP3    H222827   1.514   6.601  13.111 -3.0046 -0.5581 -0.1942
  446TIP3   OH222828   2.816   2.181  13.782  0.3404 -0.4837  0.7463
  446TIP3    H122829   2.750   2.234  13.827 -0.2333 -1.8412  1.5415
  446TIP3    H222830   2.813   2.213  13.692 -0.1843  0.6444  1.1325
  447TIP3   OH222831   4.182   3.024   5.086  0.0834  0.4015  0.2166
  447TIP3    H122832   4.146   2.966   5.153  0.1821  0.5690  0.4167
  447TIP3    H222833   4.112   3.087   5.068  0.0693  0.3778  0.1884
  448TIP3   OH222834   4.723   2.305  17.008  0.6473 -0.6586  0.2427
  448TIP3    H122835   4.734   2.396  17.034  2.0057 -0.2538 -1.5058
  448TIP3    H222836   4.799   2.260  17.045 -0.5248 -1.3364  1.9375
  449TIP3   OH222837   2.206   3.557   4.290 -0.5662  0.3060 -0.4295
  449TIP3    H122838   2.275   3.517   4.343 -2.0099 -0.4694  0.9502
  449TIP3    H222839   2.144   3.592   4.353 -0.9953  1.8347 -1.6381
  450TIP3   OH222840   2.412   6.143   1.511 -0.2985  0.2004  0.2337
  450TIP3    H122841   2.495   6.102   1.535  0.2402  1.3530  0.3958
  450TIP3    H222842   2.407   6.133   1.416 -0.5551 -0.9189  0.3569
  451TIP3   OH222843   0.093   4.189   2.123  0.0147  0.1759  0.3813
  451TIP3    H122844   0.159   4.210   2.057  1.6038  0.5391  1.9963
  451TIP3    H222845   0.046   4.114   2.087  0.7978  0.3907 -1.1721
  452TIP3   OH222846   6.555   2.751  15.188  0.0717 -0.6895  0.4475
  452TIP3    H122847   6.632   2.805  15.205 -1.0486  0.6575  1.4422
  452TIP3    H222848   6.583   2.662  15.211  1.1073 -0.1125  1.5637
  453TIP3   OH222849   3.436   2.726  15.863 -0.1963 -0.0097  0.4990
  453TIP3    H122850   3.410   2.701  15.951 -2.7348 -0.0572 -0.1871
  453TIP3    H222851   3.382   2.803  15.843  2.6776  2.0818  0.1330
  454TIP3   OH222852   0.488   1.540  10.986 -0.1977  0.0008  0.9288
  454TIP3    H122853   0.412   1.483  10.977 -0.0296 -0.2443  1.0651
  454TIP3    H222854   0.559   1.495  10.940 -0.0862  0.1373  0.9629
  455TIP3   OH222855   2.089   6.129  12.088 -0.0791 -0.6465 -0.0527
  455TIP3    H122856   2.102   6.043  12.129  2.7168  0.0034  0.6624
  455TIP3    H222857   1.995   6.147  12.099 -0.2337 -2.3837  2.3106
  456TIP3   OH222858   1.498   4.803   5.568  0.1829 -0.0140 -0.4200
  456TIP3    H122859   1.514   4.874   5.630 -0.8129  0.5780 -0.8277
  456TIP3    H222860   1.520   4.839   5.483  0.7834 -0.5735 -0.5061
  457TIP3   OH222861   5.707   4.922  14.109 -0.2745  0.3046 -0.1229
  457TIP3    H122862   5.772   4.859  14.140  0.0700  0.4408 -0.5531
  457TIP3    H222863   5.745   4.959  14.029 -1.1672 -0.0968 -0.7552
  458TIP3   OH222864   3.200   3.138   2.817  0.2007  0.3685 -0.1154
  458TIP3    H122865   3.136   3.183   2.871  0.9076 -0.7450  1.7325
  458TIP3    H222866   3.164   3.049   2.807  0.6098  0.2483 -0.5467
  459TIP3   OH222867   6.310   6.819   0.295 -0.0173  0.1006 -1.1166
  459TIP3    H122868   6.240   6.828   0.230 -0.2952  0.4153 -0.7778
  459TIP3    H222869   6.357   6.902   0.292 -1.9906  1.4663  1.3254
  460TIP3   OH222870   4.399   0.935  13.483 -0.3795  0.2683 -0.1673
  460TIP3    H122871   4.367   0.846  13.471 -0.5017  0.2036  0.6210
  460TIP3    H222872   4.386   0.954  13.576  0.2649  0.8694 -0.1868
  461TIP3   OH222873   2.431   2.065  15.840  0.5293 -0.4975 -0.3146
  461TIP3    H122874   2.462   2.092  15.753  0.0419 -0.9070 -0.6191
  461TIP3    H222875   2.461   1.974  15.849  0.0071 -0.6763 -0.3335
  462TIP3   OH222876   4.054   5.053  15.953  0.7823 -0.0673 -0.1596
  462TIP3    H122877   4.061   5.005  16.036  2.3791 -1.0031 -0.7860
  462TIP3    H222878   4.087   4.992  15.887 -0.5348  0.6252 -1.5196
  463TIP3   OH222879   4.983   5.105   4.741  0.3845  0.7876 -0.0403
  463TIP3    H122880   4.913   5.133   4.800  0.2275  2.3640 -0.9126
  463TIP3    H222881   4.962   5.013   4.722 -0.8806  0.9328  0.5200
  464TIP3   OH222882   5.165   2.316  12.543 -0.3381  0.6630 -0.0940
  464TIP3    H122883   5.111   2.360  12.609  0.1376  1.8014 -0.4517
  464TIP3    H222884   5.144   2.359  12.461 -0.0433  0.0498 -0.5020
  465TIP3   OH222885   3.100   6.456   1.461 -0.4850 -0.2422  0.6115
  465TIP3    H122886   3.014   6.449   1.501  0.0289  0.8586  1.9715
  465TIP3    H222887   3.156   6.399   1.513 -0.5111 -1.6128 -0.7726
  466TIP3   OH222888   4.780   3.190   3.653 -0.1134  0.5479  0.1395
  466TIP3    H122889   4.734   3.117   3.612 -1.6561  1.7052 -0.3137
  466TIP3    H222890   4.873   3.171   3.641 -0.4690  0.2838 -2.9838
  467TIP3   OH222891   0.440   5.839  13.007  0.7590  0.2466  0.1091
  467TIP3    H122892   0.364   5.823  12.952  0.7481  0.7364 -0.0186
  467TIP3    H222893   0.515   5.818  12.951  0.7438  0.6280 -0.0577
  468TIP3   OH222894   5.816   2.906  11.855 -0.6921 -0.7616 -0.7355
  468TIP3    H122895   5.840   2.976  11.795  0.3777 -2.1895 -2.0353
  468TIP3    H222896   5.886   2.841  11.847 -0.2510 -0.8328  2.4194
  469TIP3   OH222897   3.872   2.951  10.044 -0.2783 -0.0318  0.0434
  469TIP3    H122898   3.930   2.956  10.121  1.4791 -1.1006 -1.1380
  469TIP3    H222899   3.901   3.022   9.988 -0.3981 -0.3022 -0.3606
  470TIP3   OH222900   3.575   0.714  10.920 -0.4183 -0.1568 -0.7595
  470TIP3    H122901   3.480   0.726  10.930 -0.7312 -2.1471 -0.9238
  470TIP3    H222902   3.592   0.736  10.828 -0.3272  2.1727 -0.2457
  471TIP3   OH222903   5.192   0.551  13.834 -0.0704 -0.5153 -0.2780
  471TIP3    H122904   5.173   0.634  13.876 -1.4837 -0.1506 -1.5518
  471TIP3    H222905   5.287   0.542  13.839 -0.0666  0.2833  1.4683
  472TIP3   OH222906   1.055   3.578   3.057 -0.4403 -0.3970  0.5607
  472TIP3    H122907   1.070   3.510   3.123  0.4872 -1.8032 -1.0408
  472TIP3    H222908   1.136   3.629   3.056 -0.0211 -1.0705 -0.2631
  473TIP3   OH222909   0.616   0.542  11.168 -0.3767 -0.0306  0.9002
  473TIP3    H122910   0.612   0.507  11.079 -1.2854  1.2361  0.4111
  473TIP3    H222911   0.709   0.535  11.192 -0.0239  0.0994 -0.3584
  474TIP3   OH222912   0.866   6.763   6.393  0.5134  0.2847 -0.4512
  474TIP3    H122913   0.892   6.685   6.441 -0.8543  0.1682  0.1320
  474TIP3    H222914   0.932   6.772   6.324  1.4988 -0.5517  0.3574
  475TIP3   OH222915   4.840   0.910   1.862 -0.1687 -0.2334  0.4194
  475TIP3    H122916   4.880   0.832   1.825 -0.8773 -1.0119  1.2408
  475TIP3    H222917   4.912   0.974   1.868  0.4056 -0.7975 -0.2960
  476TIP3   OH222918   3.198   4.336   1.563  0.3389  0.7200  0.5122
  476TIP3    H122919   3.143   4.286   1.623 -0.5424  1.3041  0.2124
  476TIP3    H222920   3.167   4.311   1.476  1.1592  0.3817  0.3041
  477TIP3   OH222921   0.829   4.043  17.273  0.3908 -0.2851 -0.3674
  477TIP3    H122922   0.761   3.999  17.220  0.4732 -0.3050 -0.4575
  477TIP3    H222923   0.824   4.000  17.358 -0.0428  0.0470 -0.2209
  478TIP3   OH222924   3.521   2.826   3.340  0.2752  0.0429 -0.4833
  478TIP3    H122925   3.440   2.852   3.385  0.8217 -0.6185  0.9277
  478TIP3    H222926   3.582   2.805   3.410  0.9579 -1.6508 -1.5183
  479TIP3   OH222927   1.304   1.755   3.874 -0.0135  0.3138 -0.0012
  479TIP3    H122928   1.335   1.822   3.813  1.2364  0.2380  0.5039
  479TIP3    H222929   1.314   1.795   3.960 -2.1727  0.5788  0.1613
  480TIP3   OH222930   3.024   2.516  14.769 -0.3142  0.7684  0.5676
  480TIP3    H122931   3.071   2.519  14.853 -0.0966 -1.0194  0.5524
  480TIP3    H222932   3.071   2.450  14.718 -1.1722  0.9753 -0.5162
  481TIP3   OH222933   5.659   6.622   6.027  0.0515  0.1401  0.2775
  481TIP3    H122934   5.709   6.603   6.106  0.4161  0.2368  0.0757
  481TIP3    H222935   5.725   6.655   5.965 -0.2844  0.3837  0.0477
  482TIP3   OH222936   0.272   2.359  12.791  0.5997  0.0237 -0.4173
  482TIP3    H122937   0.284   2.445  12.751 -0.1638 -0.1021 -0.9456
  482TIP3    H222938   0.276   2.298  12.717 -2.0522 -0.1171 -0.5585
  483TIP3   OH222939   5.328   1.359   2.688 -0.2654 -0.1072 -0.0569
  483TIP3    H122940   5.326   1.344   2.783 -1.1194 -1.4029 -0.2569
  483TIP3    H222941   5.299   1.450   2.678 -0.6511 -0.1152  0.8891
  484TIP3   OH222942   5.032   0.667   3.050 -0.0424  0.2805 -0.0536
  484TIP3    H122943   5.127   0.678   3.051  0.1934 -1.0100 -2.4144
  484TIP3    H222944   4.999   0.740   2.999 -0.6165  1.8735  2.3912
  485TIP3   OH222945   3.535   2.465  13.657  0.2538 -0.1592  0.2579
  485TIP3    H122946   3.557   2.537  13.715  0.5897 -0.8695  1.0281
  485TIP3    H222947   3.455   2.428  13.694 -0.2974  0.2246 -0.5212
  486TIP3   OH222948   1.088   0.239  16.342  0.7013  0.3339 -0.5733
  486TIP3    H122949   1.090   0.216  16.435 -0.3973  0.4111 -0.5252
  486TIP3    H222950   1.162   0.191  16.304  0.9948  0.0897  0.2885
  487TIP3   OH222951   3.764   2.239   5.371  0.1382  0.4295  0.6239
  487TIP3    H122952   3.825   2.165   5.369  0.6102  0.7682  1.6864
  487TIP3    H222953   3.810   2.309   5.324 -0.2113  0.1269 -0.1785
  488TIP3   OH222954   6.462   6.687   5.862  0.1866 -0.1557  0.5474
  488TIP3    H122955   6.543   6.684   5.912 -0.3108  0.1649  1.4014
  488TIP3    H222956   6.395   6.713   5.926 -0.5085  0.0488 -0.2376
  489TIP3   OH222957   0.373   4.096  11.189 -0.2370  0.3173 -0.3127
  489TIP3    H122958   0.342   4.009  11.217 -0.6344  0.3061 -0.7659
  489TIP3    H222959   0.327   4.112  11.106  0.1007  0.8111 -0.4087
  490TIP3   OH222960   0.318   5.737   0.645  0.6912  0.2385  0.4711
  490TIP3    H122961   0.296   5.688   0.566 -0.6711 -0.4103  1.2206
  490TIP3    H222962   0.292   5.679   0.717  1.2844  1.0902  1.3931
  491TIP3   OH222963   6.612   1.408   5.015  0.0258  0.0156 -0.6344
  491TIP3    H122964   6.577   1.338   4.958 -0.8048 -0.4632  0.4237
  491TIP3    H222965   6.589   1.489   4.970 -0.7318 -0.3501 -0.9239
  492TIP3   OH222966   0.513   2.866  17.261 -0.0606  0.3922  0.0066
  492TIP3    H122967   0.463   2.865  17.342 -1.2604  0.5314 -0.7089
  492TIP3    H222968   0.501   2.954  17.226  1.2101  0.6342  0.1142
  493TIP3   OH222969   0.230   2.144   0.999  0.4585 -0.4641  0.2839
  493TIP3    H122970   0.198   2.163   0.911  1.7684 -0.7406 -0.2781
  493TIP3    H222971   0.273   2.059   0.992 -0.1582 -0.9088  1.4096
  494TIP3   OH222972   1.521   1.796  16.689 -0.1415 -0.4093 -0.1558
  494TIP3    H122973   1.517   1.869  16.627 -1.9885  0.3412  0.7400
  494TIP3    H222974   1.614   1.785  16.708  0.3418  0.2636 -1.9681
  495TIP3   OH222975   4.942   2.693  13.799 -0.2826  0.0502  0.1288
  495TIP3    H122976   5.032   2.659  13.802 -0.8175 -1.5472 -0.6089
  495TIP3    H222977   4.951   2.786  13.818  1.4323 -0.2384  0.9968
  496TIP3   OH222978   0.482   6.661   0.818 -0.1223  0.1313 -0.1891
  496TIP3    H122979   0.411   6.605   0.789  0.3998 -0.5882 -0.1227
  496TIP3    H222980   0.518   6.699   0.738  2.2327 -2.9448 -0.8090
  497TIP3   OH222981   5.131   1.228  13.573  0.5127 -0.3719 -0.0113
  497TIP3    H122982   5.208   1.174  13.590 -0.4221 -1.3093  1.4829
  497TIP3    H222983   5.148   1.267  13.488  0.6212 -4.0972 -1.8866
  498TIP3   OH222984   2.405   2.856   0.135 -0.4558 -0.4618  0.3120
  498TIP3    H122985   2.377   2.938   0.175  1.5837 -0.3264  1.6615
  498TIP3    H222986   2.453   2.882   0.056 -1.6484 -0.5177 -0.4455
  499TIP3   OH222987   5.205   0.125  15.093  0.2970 -0.4788 -0.7637
  499TIP3    H122988   5.184   0.072  15.170  0.8865  0.2028 -0.1178
  499TIP3    H222989   5.129   0.182  15.082  0.6830  0.2055  0.0119
  500TIP3   OH222990   5.212   6.385   4.589 -0.4905 -0.6848  0.0916
  500TIP3    H122991   5.300   6.421   4.597 -0.9896  0.5939  0.0595
  500TIP3    H222992   5.222   6.292   4.611  0.7945 -0.4838  0.4372
  501TIP3   OH222993   0.135   0.022   2.622  0.5586  0.2494  0.0645
  501TIP3    H122994   0.184   0.060   2.549  0.4221 -0.2296 -0.2796
  501TIP3    H222995   0.173   0.063   2.700  0.6134  0.8702 -0.2788
  502TIP3   OH222996   3.456   3.762   0.818 -0.0771 -0.8111  0.4539
  502TIP3    H122997   3.363   3.737   0.818 -0.4488  0.4840  0.1207
  502TIP3    H222998   3.479   3.767   0.725 -1.0212  3.3977  0.2647
  503TIP3   OH222999   4.837   5.822  15.351 -0.3865  0.2870 -0.1108
  503TIP3    H123000   4.774   5.778  15.408  0.2834 -0.2954  0.1924
  503TIP3    H223001   4.849   5.763  15.277 -0.1381  0.3586 -0.1279
  504TIP3   OH223002   5.171   1.007   5.171  0.2106  0.4677  0.0288
  504TIP3    H123003   5.121   1.020   5.251 -1.8696 -2.2972 -0.6655
  504TIP3    H223004   5.232   0.936   5.192  0.4794  0.5335 -0.5019
  505TIP3   OH223005   4.026   0.468   2.336 -0.1561 -0.4933  0.4394
  505TIP3    H123006   4.079   0.424   2.402  0.4448 -1.6754 -0.7778
  505TIP3    H223007   4.088   0.487   2.265 -0.8335  0.5033  0.1030
  506TIP3   OH223008   6.364   0.415  16.829  0.0693 -0.5327 -0.0797
  506TIP3    H123009   6.297   0.400  16.763  0.5355  0.7777 -0.8964
  506TIP3    H223010   6.431   0.350  16.812 -0.0782 -0.5661 -0.5329
  507TIP3   OH223011   5.406   3.379  10.265  0.5037  0.0631  0.5942
  507TIP3    H123012   5.362   3.334  10.336  0.9265 -0.3767  0.5855
  507TIP3    H223013   5.343   3.444  10.234 -1.3386 -2.4518 -1.3533
  508TIP3   OH223014   0.876   2.786  14.113 -0.1267  0.2583 -0.4396
  508TIP3    H123015   0.862   2.860  14.172  0.2814  0.1034 -0.1412
  508TIP3    H223016   0.797   2.783  14.060 -0.4838  0.4319  0.0674
  509TIP3   OH223017   5.987   6.380   4.440  0.8814  0.2603 -0.2179
  509TIP3    H123018   5.958   6.426   4.519  0.3975 -1.5944  0.7169
  509TIP3    H223019   5.972   6.288   4.458  1.1583 -0.2481 -2.3369
  510TIP3   OH223020   4.740   0.363   5.556  0.4811  0.3772  0.0784
  510TIP3    H123021   4.773   0.369   5.466 -1.5556  1.4845 -0.6647
  510TIP3    H223022   4.666   0.302   5.550  1.5881 -1.1863  1.4646
  511TIP3   OH223023   6.284   2.661   0.906 -0.3770  0.3350  0.0435
  511TIP3    H123024   6.347   2.690   0.841 -0.5551  0.8125  0.0802
  511TIP3    H223025   6.334   2.658   0.988 -0.1797 -0.1682 -0.0899
  512TIP3   OH223026   2.471   6.522   0.982 -0.1253 -0.5154 -0.5435
  512TIP3    H123027   2.416   6.444   0.977 -1.6342  0.4247  0.4718
  512TIP3    H223028   2.552   6.498   0.938 -0.4816 -2.7090 -0.0747
  513TIP3   OH223029   2.734   0.548  14.863 -0.0714  0.5918 -0.5299
  513TIP3    H123030   2.778   0.511  14.787  0.3370  0.8562 -0.4233
  513TIP3    H223031   2.643   0.558  14.835  0.2402  1.4856 -1.2830
  514TIP3   OH223032   3.884   0.382   3.486  0.0897 -0.5468  0.3697
  514TIP3    H123033   3.932   0.306   3.452  0.5518  1.0821 -3.0892
  514TIP3    H223034   3.945   0.423   3.547  0.8718 -1.5312  0.2833
  515TIP3   OH223035   6.077   6.473   3.845 -0.0276 -0.0281 -0.4047
  515TIP3    H123036   6.078   6.380   3.821  0.7543 -0.3922  0.9776
  515TIP3    H223037   6.138   6.480   3.918  0.4037  1.6967 -0.8929
  516TIP3   OH223038   6.414   2.398   0.477  0.2105  0.1001  0.4398
  516TIP3    H123039   6.439   2.484   0.510  0.1056 -0.0185  0.8264
  516TIP3    H223040   6.369   2.418   0.394  0.6669  0.3758  0.2524
  517TIP3   OH223041   5.904   1.348  15.806  0.3652  0.1940  0.3875
  517TIP3    H123042   5.907   1.411  15.733  0.9819  0.6641  0.8095
  517TIP3    H223043   5.947   1.269  15.771 -1.7630 -0.5818 -0.6614
  518TIP3   OH223044   0.910   4.917   1.951 -0.1593  0.1692  0.0888
  518TIP3    H123045   0.920   4.833   1.996 -2.3457  0.9133  2.2057
  518TIP3    H223046   0.817   4.922   1.929  0.1035  1.6446 -0.8402
  519TIP3   OH223047   4.161   4.895  15.765 -0.2347  0.1096  0.1707
  519TIP3    H123048   4.145   4.801  15.773 -2.9382  0.4949  0.2798
  519TIP3    H223049   4.168   4.910  15.671 -2.7097  0.0954 -0.0932
  520TIP3   OH223050   3.276   4.573  12.252 -0.2682  0.3073 -0.0892
  520TIP3    H123051   3.318   4.492  12.279  0.5710  1.3485  1.8815
  520TIP3    H223052   3.195   4.577  12.303 -0.6159  0.4203 -0.6360
  521TIP3   OH223053   0.592   1.863  12.656  0.5222 -0.0022 -0.1316
  521TIP3    H123054   0.646   1.916  12.597  0.4723 -0.4034 -0.5365
  521TIP3    H223055   0.656   1.817  12.711  0.7062 -1.8611 -1.7746
  522TIP3   OH223056   5.234   2.958   3.124  0.2396  0.1862 -0.2769
  522TIP3    H123057   5.148   2.999   3.113 -0.2957 -0.7991  0.0506
  522TIP3    H223058   5.228   2.913   3.209  1.4951  1.0634  0.3060
  523TIP3   OH223059   5.606   2.307  14.632  0.8035 -0.2885 -0.1855
  523TIP3    H123060   5.700   2.293  14.625  0.6757 -1.9302  0.6959
  523TIP3    H223061   5.567   2.227  14.595 -0.1867 -0.2359  0.6783
  524TIP3   OH223062   2.833   3.397  14.665 -0.1223 -0.3125 -0.1460
  524TIP3    H123063   2.862   3.482  14.700 -1.4009  0.1011 -0.0661
  524TIP3    H223064   2.818   3.343  14.743  0.0273 -0.3949 -0.1739
  525TIP3   OH223065   3.722   5.388   0.011 -0.4506 -0.5768 -0.0667
  525TIP3    H123066   3.634   5.391   0.050  0.1803 -0.2929  1.3751
  525TIP3    H223067   3.779   5.360   0.083  0.7843  0.1371 -0.7461
  526TIP3   OH223068   5.194   4.698  15.166 -0.1842  0.2854 -0.2414
  526TIP3    H123069   5.286   4.699  15.143  0.1021 -2.2063  0.5438
  526TIP3    H223070   5.160   4.782  15.134  2.2035  1.0212 -1.0110
  527TIP3   OH223071   5.890   4.167  11.905  0.4843 -0.2090 -0.2170
  527TIP3    H123072   5.980   4.139  11.921  0.2781 -1.3128 -0.8767
  527TIP3    H223073   5.874   4.146  11.813 -0.4461 -0.0222 -0.1100
  528TIP3   OH223074   0.486   0.178  11.560 -0.0116  0.5201 -0.0798
  528TIP3    H123075   0.395   0.169  11.589  0.3492  2.5323  1.9542
  528TIP3    H223076   0.537   0.143  11.633  0.9632 -3.2247 -2.2963
  529TIP3   OH223077   4.011   1.459  15.256  0.2244 -0.2442 -0.3802
  529TIP3    H123078   4.018   1.515  15.179  0.2831  0.0498 -0.1629
  529TIP3    H223079   4.097   1.466  15.299 -0.0602  0.2060  0.1289
  530TIP3   OH223080   3.912   2.894   6.725  0.4500 -0.4782 -0.4607
  530TIP3    H123081   3.963   2.871   6.647 -0.3162 -0.6615 -0.9233
  530TIP3    H223082   3.875   2.810   6.753 -2.3328  0.0658 -2.1272
  531TIP3   OH223083   0.466   5.041   1.890  0.2047  0.4219 -0.6041
  531TIP3    H123084   0.520   5.115   1.863  2.1810 -0.9182 -0.5828
  531TIP3    H223085   0.529   4.971   1.910 -1.5520 -1.3208 -0.7721
  532TIP3   OH223086   4.037   2.709  17.109 -0.0306 -0.9171 -0.2063
  532TIP3    H123087   3.995   2.664  17.036 -0.1637 -0.2080 -0.5807
  532TIP3    H223088   4.101   2.767  17.068  0.8177 -1.4636  0.3208
  533TIP3   OH223089   3.279   6.431  16.073  0.1166  0.1030 -0.0854
  533TIP3    H123090   3.185   6.419  16.060  0.5311 -2.6922 -1.0503
  533TIP3    H223091   3.306   6.359  16.130  1.9206 -0.1865 -1.1958
  534TIP3   OH223092   4.774   4.056  16.303 -0.3156 -0.3436 -0.0721
  534TIP3    H123093   4.841   4.124  16.298 -0.7895  0.1335 -0.0350
  534TIP3    H223094   4.818   3.976  16.275  0.6087 -0.2945  1.1639
  535TIP3   OH223095   6.447   2.140   3.737  0.2958  0.5220  0.0431
  535TIP3    H123096   6.403   2.057   3.753  2.5560 -1.1422 -1.7795
  535TIP3    H223097   6.503   2.124   3.661  1.5062  3.4460  0.1854
  536TIP3   OH223098   6.478   3.393  10.732  0.0685  0.0592 -0.2317
  536TIP3    H123099   6.504   3.473  10.778  1.9176 -0.0095 -1.0500
  536TIP3    H223100   6.469   3.419  10.641 -0.3880 -0.4384 -0.3324
  537TIP3   OH223101   2.642   1.967   3.718 -0.2221  0.4998  0.2097
  537TIP3    H123102   2.577   2.002   3.779 -0.2419  0.3478  0.2789
  537TIP3    H223103   2.713   1.936   3.775  0.4544  1.7358  0.0788
  538TIP3   OH223104   2.657   2.483  13.030  0.7767 -0.0381 -0.6358
  538TIP3    H123105   2.666   2.525  12.944  1.2912 -2.4774 -1.8479
  538TIP3    H223106   2.568   2.506  13.058  1.0491  1.8721 -1.1721
  539TIP3   OH223107   3.556   5.932   2.856  0.0376 -0.3051  0.2454
  539TIP3    H123108   3.577   5.853   2.807  2.3493  0.4747 -0.1638
  539TIP3    H223109   3.609   5.926   2.935  1.1193  1.2817 -0.2990
  540TIP3   OH223110   2.673   4.514  10.716 -0.2125  0.4244  0.0469
  540TIP3    H123111   2.739   4.449  10.739 -1.8200 -1.0455  0.7414
  540TIP3    H223112   2.626   4.531  10.797 -1.4435  0.5063 -0.6447
  541TIP3   OH223113   5.160   2.933  11.962  0.2014 -0.2133 -0.1095
  541TIP3    H123114   5.106   2.904  12.036  1.4605 -2.3197  0.0804
  541TIP3    H223115   5.235   2.873  11.962  0.7359  0.3367 -2.5217
  542TIP3   OH223116   5.829   0.116   5.124 -0.3386  0.3884 -0.2296
  542TIP3    H123117   5.805   0.198   5.167 -1.7572  0.9627 -1.9705
  542TIP3    H223118   5.840   0.053   5.196  2.4110  2.3963  1.2925
  543TIP3   OH223119   1.496   0.385  15.909  0.1267  0.3681  0.5988
  543TIP3    H123120   1.512   0.291  15.915 -2.5398 -0.2248  0.0241
  543TIP3    H223121   1.430   0.402  15.977 -3.0998  0.7200 -2.3148
  544TIP3   OH223122   0.604   2.206   1.056  0.3017 -0.1984  0.0087
  544TIP3    H123123   0.549   2.272   1.097  0.1531  0.5556 -1.3483
  544TIP3    H223124   0.566   2.122   1.083 -1.8285  0.2876 -1.2412
  545TIP3   OH223125   5.159   4.950  16.352  0.2576  0.2301 -0.4894
  545TIP3    H123126   5.159   5.033  16.304  0.1646  0.8844  0.6142
  545TIP3    H223127   5.099   4.964  16.425  1.8176 -0.0868  0.9058
  546TIP3   OH223128   1.601   2.593   3.712 -0.0802 -0.3612  0.7717
  546TIP3    H123129   1.556   2.513   3.683 -0.4548 -0.0500  0.4841
  546TIP3    H223130   1.661   2.563   3.781  0.9838 -1.1687 -0.4297
  547TIP3   OH223131   0.591   0.129   6.142  0.8122  0.4878 -0.0104
  547TIP3    H123132   0.630   0.095   6.222  1.0912  1.5478  0.3200
  547TIP3    H223133   0.575   0.052   6.088  1.2785 -0.1679  0.7772
  548TIP3   OH223134   0.025   3.438   6.124  0.3181  0.5742  0.5948
  548TIP3    H123135  -0.043   3.373   6.138 -0.1359  1.2178  1.4953
  548TIP3    H223136   0.044   3.472   6.212  2.7630 -0.5249  0.5797
  549TIP3   OH223137   3.243   0.308  11.534  0.4726 -0.9146  0.0956
  549TIP3    H123138   3.187   0.231  11.519 -0.9832  0.5931 -3.2675
  549TIP3    H223139   3.332   0.274  11.525 -0.1448 -2.1366 -2.6412
  550TIP3   OH223140   6.030   2.239   5.666 -0.0261 -0.0200  0.3472
  550TIP3    H123141   6.029   2.333   5.647 -0.9030 -0.0113  0.3919
  550TIP3    H223142   6.056   2.198   5.583  1.8073  0.3266  0.7150
  551TIP3   OH223143   5.533   6.205  12.152 -0.4311 -0.3653 -0.1200
  551TIP3    H123144   5.554   6.156  12.072  0.6718 -3.9832  2.1443
  551TIP3    H223145   5.601   6.178  12.215 -3.0132 -0.2052  2.9739
  552TIP3   OH223146   6.180   6.699   4.200 -0.5169  0.5717  0.4824
  552TIP3    H123147   6.270   6.714   4.227 -0.0509 -1.3704  0.1971
  552TIP3    H223148   6.128   6.759   4.254  0.8138  0.5391  1.8675
  553TIP3   OH223149   2.544   1.282  13.788 -0.2059  0.4303  0.1241
  553TIP3    H123150   2.499   1.322  13.713 -0.7016  0.8609  0.6430
  553TIP3    H223151   2.605   1.349  13.818  0.6024 -0.0515 -0.4050
  554TIP3   OH223152   4.385   0.636  13.434  0.3918  0.2883 -0.5412
  554TIP3    H123153   4.335   0.598  13.506 -1.3392  1.5515 -1.0195
  554TIP3    H223154   4.332   0.619  13.356  1.0506  1.0508 -1.1746
  555TIP3   OH223155   1.829   1.036  16.865  0.3246  0.2716 -0.6013
  555TIP3    H123156   1.779   1.074  16.793  0.3601 -1.6886 -1.7141
  555TIP3    H223157   1.920   1.041  16.836  0.2816 -1.2202 -1.0975
  556TIP3   OH223158   4.390   3.113   3.684 -0.4773 -0.8978  0.2583
  556TIP3    H123159   4.344   3.055   3.745 -0.6481  0.2935  1.2915
  556TIP3    H223160   4.321   3.150   3.629 -0.4480 -1.1148  0.0731
  557TIP3   OH223161   5.834   6.636   0.978 -0.4516 -0.0593 -0.1730
  557TIP3    H123162   5.855   6.614   0.888  0.1855 -0.1788 -0.0033
  557TIP3    H223163   5.754   6.588   0.997 -0.9611  0.4984 -0.8779
  558TIP3   OH223164   1.877   3.558  16.832  0.0209  0.7847  0.3805
  558TIP3    H123165   1.801   3.508  16.804  0.0652  1.6292 -1.4480
  558TIP3    H223166   1.909   3.600  16.751  3.3477 -0.7479  0.7160
  559TIP3   OH223167   4.021   4.595  16.913 -0.0364  0.4310 -0.1060
  559TIP3    H123168   4.087   4.533  16.881  0.1776  0.9503 -0.6936
  559TIP3    H223169   3.970   4.618  16.835 -0.9079  0.0481  0.3378
  560TIP3   OH223170   1.234   2.997  14.464 -0.0994  0.5076  0.4211
  560TIP3    H123171   1.321   2.963  14.444  0.1630  0.5245  1.5136
  560TIP3    H223172   1.179   2.963  14.393  0.3492 -1.3323  0.9010
  561TIP3   OH223173   4.256   4.557   1.594  0.7424  0.2323  0.5624
  561TIP3    H123174   4.239   4.630   1.654 -0.3748  0.2654  0.2298
  561TIP3    H223175   4.190   4.566   1.526 -0.0286 -1.6202  1.0027
  562TIP3   OH223176   4.433   3.442   4.528  0.0849 -0.3865  0.1821
  562TIP3    H123177   4.376   3.411   4.599 -0.8140  0.7037 -0.0273
  562TIP3    H223178   4.428   3.373   4.462 -1.3496 -0.1496 -0.0014
  563TIP3   OH223179   1.521   5.675   4.845 -0.6086 -0.5487  0.1873
  563TIP3    H123180   1.549   5.652   4.756 -0.8611  0.0217 -0.0467
  563TIP3    H223181   1.484   5.594   4.881  0.7907 -1.1648  0.2941
  564TIP3   OH223182   6.431   0.362  15.728 -0.4531  0.2173 -0.4883
  564TIP3    H123183   6.493   0.393  15.661 -0.9963  0.4364 -0.9009
  564TIP3    H223184   6.415   0.440  15.782  1.7165 -0.4726  1.3303
  565TIP3   OH223185   1.341   0.521   2.322 -0.1596  0.8799 -0.2030
  565TIP3    H123186   1.298   0.506   2.238 -1.9470  0.9454  0.6576
  565TIP3    H223187   1.358   0.433   2.356  0.1186  0.8549 -0.3998
  566TIP3   OH223188   0.677   3.099   3.909  0.3127  0.0593  0.1241
  566TIP3    H123189   0.598   3.137   3.871  0.1591 -0.9098 -0.5774
  566TIP3    H223190   0.649   3.065   3.994  0.6043  2.0380  1.0789
  567TIP3   OH223191   5.095   0.370   2.464  0.3595  0.0431 -0.0044
  567TIP3    H123192   5.188   0.351   2.478 -0.0942 -3.2506 -0.5804
  567TIP3    H223193   5.053   0.284   2.462 -2.8407  1.4377  0.8616
  568TIP3   OH223194   1.137   4.965   6.493  0.2753 -0.6574 -0.4442
  568TIP3    H123195   1.054   4.928   6.524  0.2213 -0.5106 -0.4136
  568TIP3    H223196   1.163   4.908   6.420 -0.9987  0.5999 -1.9563
  569TIP3   OH223197   2.068   4.684   1.055 -0.0971  0.1187 -0.2837
  569TIP3    H123198   2.043   4.771   1.023  0.0915  0.7155  1.1533
  569TIP3    H223199   2.163   4.687   1.060 -0.0840 -0.2176 -0.3269
  570TIP3   OH223200   4.292   2.381  15.124  0.0953  0.0992  0.4344
  570TIP3    H123201   4.244   2.404  15.044  0.6352 -0.7218 -0.1547
  570TIP3    H223202   4.237   2.412  15.195 -0.5055  0.6600 -0.2560
  571TIP3   OH223203   1.963   0.215   4.362 -0.2448  0.0534 -0.7237
  571TIP3    H123204   2.038   0.218   4.302 -0.8116  0.3513 -1.4309
  571TIP3    H223205   1.925   0.128   4.349 -0.2173  0.0230 -0.6041
  572TIP3   OH223206   4.248   0.956  12.616  0.2961  0.2995 -0.7675
  572TIP3    H123207   4.197   0.987  12.542 -0.1888 -0.1339 -0.6204
  572TIP3    H223208   4.282   1.036  12.657 -0.9967  0.6578 -0.3520
  573TIP3   OH223209   0.089   2.561  12.387 -0.3125  0.2816  0.1209
  573TIP3    H123210   0.085   2.468  12.364  1.1963  0.4237 -0.8942
  573TIP3    H223211   0.169   2.568  12.440 -0.7996  0.8859  0.7847
  574TIP3   OH223212   1.521   4.222   0.817  0.3497 -0.7281 -0.1334
  574TIP3    H123213   1.601   4.211   0.868 -0.5869 -0.0672  1.5535
  574TIP3    H223214   1.464   4.152   0.848 -0.5388  0.1999  0.3940
  575TIP3   OH223215   4.989   0.146   2.552 -0.5928 -0.0873 -0.3279
  575TIP3    H123216   4.952   0.139   2.640 -0.6014  1.0672 -0.2187
  575TIP3    H223217   5.081   0.124   2.562 -0.8476 -1.1675 -0.2650
  576TIP3   OH223218   3.628   2.341  16.717 -0.1468  0.3953 -0.2906
  576TIP3    H123219   3.582   2.418  16.748  0.2544  0.5355 -0.0278
  576TIP3    H223220   3.721   2.364  16.722  0.0701 -0.6853  1.4291
  577TIP3   OH223221   5.040   0.441   5.147  0.1801  0.8698 -0.4327
  577TIP3    H123222   5.056   0.409   5.058 -0.1451  0.5507 -0.3793
  577TIP3    H223223   5.023   0.535   5.136  2.0616  1.2434 -0.4891
  578TIP3   OH223224   6.269   0.182   5.379  0.0313 -0.3794 -0.4474
  578TIP3    H123225   6.198   0.173   5.443  0.9514 -2.9304  0.3389
  578TIP3    H223226   6.280   0.276   5.368 -1.1059  0.1202  2.1030
  579TIP3   OH223227   1.755   5.991  16.216 -0.2541  0.0768  0.4880
  579TIP3    H123228   1.696   6.054  16.176  0.6953  0.7526  0.1119
  579TIP3    H223229   1.820   6.045  16.260  0.5283 -0.6381  0.2267
  580TIP3   OH223230   2.553   6.140  13.200 -0.0347 -0.1408  0.1578
  580TIP3    H123231   2.481   6.140  13.263 -0.5518  0.5857 -0.4311
  580TIP3    H223232   2.519   6.093  13.124  0.9021 -1.8676  0.7242
  581TIP3   OH223233   1.296   5.201  11.906  0.1509  0.1224  0.3814
  581TIP3    H123234   1.203   5.189  11.887  0.4573  0.5248 -1.5085
  581TIP3    H223235   1.336   5.116  11.888  0.0755 -0.2995  1.9978
  582TIP3   OH223236   6.418   2.598   2.490 -0.3317 -0.2858 -0.5231
  582TIP3    H123237   6.390   2.683   2.457  0.8117 -0.6990 -2.7292
  582TIP3    H223238   6.422   2.542   2.412 -2.4042 -2.7924  1.0160
  583TIP3   OH223239   2.153   4.144   5.598  0.1902  0.1934  0.4616
  583TIP3    H123240   2.082   4.199   5.630  0.2623  0.8469 -0.4414
  583TIP3    H223241   2.181   4.186   5.516 -0.0525 -1.4246 -0.5034
  584TIP3   OH223242   2.100   0.453   0.308  0.3844 -0.6360  0.4891
  584TIP3    H123243   2.073   0.505   0.383 -0.3118 -1.3451  0.7415
  584TIP3    H223244   2.189   0.483   0.289 -0.5583  1.8874 -0.4617
  585TIP3   OH223245   1.579   2.295   3.389 -0.6102  0.1080  0.3004
  585TIP3    H123246   1.628   2.213   3.385 -0.9759 -0.1626  1.2256
  585TIP3    H223247   1.500   2.279   3.337  0.5354  0.7614 -1.7716
  586TIP3   OH223248   4.561   3.027  12.242 -0.4218  0.5870 -0.0016
  586TIP3    H123249   4.493   3.045  12.177 -0.6461  1.2101  0.4013
  586TIP3    H223250   4.515   2.982  12.313 -0.0411 -0.7871 -0.5806
  587TIP3   OH223251   5.105   3.614   1.585  0.2421 -0.1112 -0.9203
  587TIP3    H123252   5.102   3.573   1.498  1.3649 -0.0575 -1.0029
  587TIP3    H223253   5.053   3.694   1.576 -1.5849 -1.2282 -0.8928
  588TIP3   OH223254   1.257   0.639   5.469  0.1846  0.3419 -0.0519
  588TIP3    H123255   1.204   0.568   5.505 -2.8839  1.4588 -1.9632
  588TIP3    H223256   1.307   0.599   5.399  1.8965 -0.7096  1.6767
  589TIP3   OH223257   5.180   3.896  13.267  0.1646 -0.2664 -0.8702
  589TIP3    H123258   5.086   3.885  13.283 -0.1031  1.0684 -1.3885
  589TIP3    H223259   5.185   3.935  13.179  1.0664  1.6092 -0.0400
  590TIP3   OH223260   1.437   2.747   4.441 -0.2600  0.2535  0.1306
  590TIP3    H123261   1.361   2.711   4.487  1.6955 -2.0527  1.7807
  590TIP3    H223262   1.496   2.672   4.429  1.8712  1.9823 -0.8892
  591TIP3   OH223263   4.896   2.171   5.774 -0.0741 -0.3621 -0.4192
  591TIP3    H123264   4.927   2.213   5.854  1.2530  0.5060 -1.3561
  591TIP3    H223265   4.975   2.145   5.728 -0.8432 -2.5361 -0.6194
  592TIP3   OH223266   6.205   5.294  14.882  0.2606 -0.0255 -0.2011
  592TIP3    H123267   6.181   5.241  14.958  0.5027 -2.7814 -1.9248
  592TIP3    H223268   6.124   5.300  14.831  0.2000  1.4685  0.0304
  593TIP3   OH223269   5.626   4.527  12.913 -0.5037 -0.2169 -0.7872
  593TIP3    H123270   5.710   4.573  12.913 -0.7680  0.2679 -0.5723
  593TIP3    H223271   5.650   4.434  12.916  0.0253 -0.0889 -0.8749
  594TIP3   OH223272   4.483   3.276  10.452  0.5062  0.0386  0.5061
  594TIP3    H123273   4.455   3.280  10.360 -0.5130 -1.3577  0.7252
  594TIP3    H223274   4.546   3.204  10.455  0.9011  0.3964  0.8124
  595TIP3   OH223275   3.197   5.161  14.602  0.0894  0.5778  0.1605
  595TIP3    H123276   3.273   5.175  14.658  1.1621  0.1669 -1.1461
  595TIP3    H223277   3.201   5.068  14.578  1.4056  1.3260 -2.9669
  596TIP3   OH223278   4.934   0.234  14.295  0.1165 -0.1475  0.1009
  596TIP3    H123279   4.885   0.153  14.282 -0.6206  0.3680 -0.4592
  596TIP3    H223280   4.983   0.221  14.376 -0.4932 -0.9093  0.3543
  597TIP3   OH223281   2.455   4.775   4.929 -0.1754  0.4931  0.6734
  597TIP3    H123282   2.484   4.847   4.985 -0.3318 -0.1787  1.6478
  597TIP3    H223283   2.360   4.783   4.928 -0.1741  0.4808  0.5399
  598TIP3   OH223284   4.193   3.021  12.945  0.4857  0.6993  0.7558
  598TIP3    H123285   4.191   2.956  13.015 -1.0772 -0.1330  0.0144
  598TIP3    H223286   4.283   3.021  12.914  1.2210  1.1380  2.7811
  599TIP3   OH223287   4.795   5.348   3.555  0.1645  0.1926 -0.1129
  599TIP3    H123288   4.781   5.361   3.649 -0.3264  2.2320 -0.4159
  599TIP3    H223289   4.874   5.296   3.550  0.8665  1.0168  1.4388
  600TIP3   OH223290   0.323   3.948   3.659  0.4901 -0.0158  0.5050
  600TIP3    H123291   0.359   3.910   3.579  1.5496  0.7413  0.6063
  600TIP3    H223292   0.395   3.997   3.697  0.3569 -1.3231  2.5719
  601TIP3   OH223293   5.344   4.955  12.791 -0.1289 -0.7507  0.3056
  601TIP3    H123294   5.414   4.899  12.824 -0.4008 -1.5415 -0.4254
  601TIP3    H223295   5.281   4.960  12.863 -0.3569 -1.8412  0.1986
  602TIP3   OH223296   3.006   3.951  16.946 -0.1907  0.0550 -0.0249
  602TIP3    H123297   3.003   4.010  16.871  0.4264 -1.2783 -1.1439
  602TIP3    H223298   3.084   3.977  16.995  1.1426 -0.9351 -1.5153
  603TIP3   OH223299   2.447   3.203   1.710  0.1603 -0.1328  0.3864
  603TIP3    H123300   2.505   3.131   1.689  1.0062  0.3664  0.9532
  603TIP3    H223301   2.498   3.282   1.690 -0.5756  0.3187  0.2241
  604TIP3   OH223302   2.477   2.943  17.135  0.6030  0.5142 -0.3989
  604TIP3    H123303   2.415   3.011  17.162 -0.2577 -0.9588  1.6521
  604TIP3    H223304   2.453   2.922  17.045  0.1743  2.1150 -0.6821
  605TIP3   OH223305   1.643   2.647  15.689 -0.3774 -0.5264 -0.2260
  605TIP3    H123306   1.589   2.576  15.653  1.1476 -1.2978 -1.0579
  605TIP3    H223307   1.596   2.674  15.768 -2.3118 -0.7313 -1.2493
  606TIP3   OH223308   0.022   4.815   4.727 -0.7762  0.5557  0.8654
  606TIP3    H123309   0.116   4.795   4.722 -1.2024 -1.4265 -0.0855
  606TIP3    H223310   0.002   4.856   4.643 -0.8460  0.5234  0.8666
  607TIP3   OH223311   6.045   1.356  12.917 -0.4511 -0.3043  0.4467
  607TIP3    H123312   6.032   1.273  12.964 -0.9533 -1.1378 -1.0906
  607TIP3    H223313   6.114   1.336  12.853 -2.0128 -0.1819 -1.3413
  608TIP3   OH223314   5.013   5.999  15.213 -0.2405 -0.6168  0.2588
  608TIP3    H123315   4.981   5.986  15.124 -0.6390  1.9178 -0.0417
  608TIP3    H223316   4.973   5.928  15.263 -1.8523 -0.7864 -1.1651
  609TIP3   OH223317   6.392   0.009   0.570 -0.4672 -0.0600  0.1423
  609TIP3    H123318   6.445  -0.071   0.572 -0.6271 -0.1982 -0.6951
  609TIP3    H223319   6.374   0.024   0.477 -1.5692  0.2067  0.3798
  610TIP3   OH223320   1.931   3.983   0.814  0.3348  0.2908  0.2603
  610TIP3    H123321   1.964   4.064   0.776 -2.8136  2.0953  1.0440
  610TIP3    H223322   1.856   3.959   0.759  1.3118 -2.3175 -0.0993
  611TIP3   OH223323   6.606   1.176   4.423 -0.2027 -0.2214 -0.2351
  611TIP3    H123324   6.623   1.237   4.495 -1.6195  0.4375 -0.4272
  611TIP3    H223325   6.594   1.091   4.466 -0.0572 -0.0174  0.2131
  612TIP3   OH223326   1.168   3.624  17.113 -0.6274  0.0071  0.4702
  612TIP3    H123327   1.125   3.571  17.046 -1.4167  0.9496  0.2009
  612TIP3    H223328   1.106   3.695  17.130  1.5499  2.4901 -1.2496
  613TIP3   OH223329   2.168   6.494  14.702 -0.4386  0.4461  0.8005
  613TIP3    H123330   2.164   6.483  14.797 -1.2755  3.6268  1.2543
  613TIP3    H223331   2.255   6.528  14.686  0.5068 -2.1012  0.0505
  614TIP3   OH223332   0.229   1.031  13.487  0.0752  0.1641  0.0420
  614TIP3    H123333   0.209   1.105  13.545  0.2982 -1.2967  2.0615
  614TIP3    H223334   0.324   1.034  13.478  0.1649 -0.2906  0.7458
  615TIP3   OH223335   6.223   1.955   0.169  0.0406  0.4986 -0.7818
  615TIP3    H123336   6.258   2.041   0.193 -0.2955  0.6410 -0.7901
  615TIP3    H223337   6.150   1.975   0.110 -0.4936  0.2311 -0.2129
  616TIP3   OH223338   6.817   6.557   0.935 -0.1423 -0.0129 -0.1993
  616TIP3    H123339   6.814   6.556   1.031 -0.1853  2.2075 -0.1145
  616TIP3    H223340   6.761   6.631   0.911  2.0887  1.2798 -1.7834
  617TIP3   OH223341   4.654   4.204  14.561  0.3790 -0.0641  0.4339
  617TIP3    H123342   4.615   4.247  14.485  2.1622  3.2967  1.2131
  617TIP3    H223343   4.727   4.153  14.526  0.3481  0.3568 -0.2624
  618TIP3   OH223344   6.512   2.807   0.064 -0.1196 -0.2039  0.0733
  618TIP3    H123345   6.482   2.781   0.151 -1.4723 -1.2957 -0.6708
  618TIP3    H223346   6.432   2.836   0.019  0.8030  1.9942 -0.2917
  619TIP3   OH223347   6.108   3.486  12.812 -0.1490 -0.1587  0.4089
  619TIP3    H123348   6.081   3.518  12.898 -0.7951 -1.0595  0.5582
  619TIP3    H223349   6.036   3.429  12.784 -0.2960  0.6879 -1.0557
  620TIP3   OH223350   4.002   4.187   5.495  0.3358 -0.6754  0.1395
  620TIP3    H123351   3.941   4.261   5.485  0.7721 -0.4656 -1.0662
  620TIP3    H223352   3.947   4.109   5.486 -0.0096 -0.5025  0.6895
  621TIP3   OH223353   2.974   4.563  14.678  0.2157 -0.4853 -0.5000
  621TIP3    H123354   2.887   4.579  14.716  0.0424  1.8275 -1.6791
  621TIP3    H223355   3.034   4.585  14.749 -0.1490 -0.6699 -0.1262
  622TIP3   OH223356   4.517   2.083   0.386 -0.2857  0.2907  0.0108
  622TIP3    H123357   4.590   2.042   0.433  0.8903  1.7432 -0.4821
  622TIP3    H223358   4.439   2.048   0.428  0.6420 -2.1827 -0.1752
  623TIP3   OH223359   2.720   5.132  13.113 -0.0629  0.3809  0.0344
  623TIP3    H123360   2.766   5.135  13.029 -0.4374  4.0293 -0.2237
  623TIP3    H223361   2.790   5.130  13.179  0.2508 -1.3388 -0.3203
  624TIP3   OH223362   4.705   5.753  16.651  0.2845  0.2843 -0.6217
  624TIP3    H123363   4.708   5.761  16.747  1.0694  0.3704 -0.6440
  624TIP3    H223364   4.741   5.836  16.619  2.1175 -0.5713 -0.9425
  625TIP3   OH223365   0.568   0.184   2.185  0.0595 -0.8185 -0.3033
  625TIP3    H123366   0.486   0.178   2.136 -0.7904  0.8275  0.8429
  625TIP3    H223367   0.628   0.230   2.127 -0.1256 -1.1521 -0.7650
  626TIP3   OH223368   0.837   2.932  16.653 -0.2037  0.2016 -0.3051
  626TIP3    H123369   0.835   2.893  16.740  1.6507 -0.5213 -0.5479
  626TIP3    H223370   0.891   2.873  16.601  0.8173  1.9111 -1.2986
  627TIP3   OH223371   4.669   5.660  15.477  0.2434 -0.4625  0.3822
  627TIP3    H123372   4.665   5.589  15.412 -0.1097  0.7467 -0.9858
  627TIP3    H223373   4.685   5.616  15.560  0.5913 -2.0979 -0.5017
  628TIP3   OH223374   3.853   1.275  12.807  0.0142  0.4128 -0.3392
  628TIP3    H123375   3.835   1.346  12.869  0.3446  0.5027 -0.3454
  628TIP3    H223376   3.840   1.315  12.721 -1.3133  0.0588 -0.3270
  629TIP3   OH223377   5.492   1.772  16.552 -0.1514 -0.0260  0.2880
  629TIP3    H123378   5.488   1.723  16.634  0.0078 -0.8738 -0.2053
  629TIP3    H223379   5.569   1.738  16.506  0.1877  0.9569  0.1014
  630TIP3   OH223380   5.205   3.230   1.668  0.2356  0.0079  0.1270
  630TIP3    H123381   5.131   3.253   1.724 -0.4696  0.3102 -0.9050
  630TIP3    H223382   5.166   3.213   1.582  1.3015 -0.3878 -0.2965
  631TIP3   OH223383   3.261   1.740  16.723 -0.0671  0.0882 -0.4709
  631TIP3    H123384   3.245   1.651  16.752 -2.5992  0.4719 -0.4095
  631TIP3    H223385   3.243   1.794  16.800 -0.0648  0.7220 -0.9050
  632TIP3   OH223386   2.873   2.738   1.554 -0.5678  0.2794 -0.4222
  632TIP3    H123387   2.780   2.755   1.539 -0.9473 -2.0207 -1.0175
  632TIP3    H223388   2.914   2.753   1.469 -1.2656 -3.5508 -1.6290
  633TIP3   OH223389   3.372   1.209   2.706  0.1463  0.3845 -0.5628
  633TIP3    H123390   3.308   1.157   2.756 -0.1612  0.7784 -0.5458
  633TIP3    H223391   3.365   1.297   2.742  2.7511 -0.1074  1.4882
  634TIP3   OH223392   5.538   2.249   3.276  0.5476  0.1521  0.1879
  634TIP3    H123393   5.492   2.276   3.196  0.7353 -0.6162 -0.1935
  634TIP3    H223394   5.474   2.196   3.324  0.4671  0.5332  0.5017
  635TIP3   OH223395   5.505   5.855  16.139  0.6617 -0.3973 -0.2546
  635TIP3    H123396   5.431   5.845  16.079 -0.8016 -1.1089  1.5647
  635TIP3    H223397   5.516   5.769  16.179  2.7187 -0.3858 -0.6853
  636TIP3   OH223398   0.868   1.706   0.103 -0.3565 -0.5405 -0.1401
  636TIP3    H123399   0.947   1.753   0.130 -0.2821 -0.6365 -0.1878
  636TIP3    H223400   0.801   1.732   0.166 -0.8730  1.2443 -1.3371
  637TIP3   OH223401   4.651   1.569   5.108 -0.2903  0.2468  0.0434
  637TIP3    H123402   4.653   1.629   5.182 -1.3254 -0.1954  0.4579
  637TIP3    H223403   4.714   1.605   5.045  0.8246  0.4715  1.2446
  638TIP3   OH223404   6.611   1.883  10.938 -0.5312 -0.6354 -0.2784
  638TIP3    H123405   6.631   1.790  10.937  1.5879 -0.2588  0.8499
  638TIP3    H223406   6.657   1.918  10.861  0.7648 -0.1937  0.6650
  639TIP3   OH223407   0.950   2.822  11.963 -0.1566  0.0016  0.1118
  639TIP3    H123408   1.000   2.748  11.997 -0.4593 -0.7016 -0.9349
  639TIP3    H223409   0.946   2.807  11.869 -2.4349 -0.0382  0.1615
  640TIP3   OH223410   1.403   6.045  11.049 -0.7837  0.1332  0.1535
  640TIP3    H123411   1.458   5.978  11.088 -0.6538  1.0854  1.7305
  640TIP3    H223412   1.379   6.011  10.963 -0.5450 -1.8123  0.8113
  641TIP3   OH223413   2.307   5.463   3.070 -0.4601  0.1197 -0.4624
  641TIP3    H123414   2.216   5.491   3.082 -1.2154 -1.7726 -1.4282
  641TIP3    H223415   2.306   5.369   3.083  1.2952 -0.0133 -0.9485
  642TIP3   OH223416   2.172   2.605   4.150 -0.3753 -0.0884  0.5225
  642TIP3    H123417   2.112   2.539   4.186  0.7095 -0.7330  1.1861
  642TIP3    H223418   2.257   2.561   4.147 -0.1266  0.4425 -1.4638
  643TIP3   OH223419   2.113   0.005  14.553  0.2592  0.2210 -0.2818
  643TIP3    H123420   2.197  -0.036  14.532  0.0169 -0.3912 -0.0514
  643TIP3    H223421   2.057  -0.016  14.479 -0.2326 -0.9169  0.3876
  644TIP3   OH223422   2.688   4.290  12.538 -0.5125  0.1192 -0.0328
  644TIP3    H123423   2.649   4.324  12.458 -0.3101 -0.3671 -0.3395
  644TIP3    H223424   2.718   4.202  12.515 -1.3942 -0.4352  0.8591
  645TIP3   OH223425   5.647   5.437   5.140 -0.0342 -0.1429  0.1348
  645TIP3    H123426   5.590   5.403   5.071 -0.0921 -1.6962  0.9157
  645TIP3    H223427   5.587   5.471   5.206 -0.0394 -0.9890  0.5673
  646TIP3   OH223428   5.078   6.656  13.651 -0.3051 -0.4669  0.0235
  646TIP3    H123429   5.027   6.653  13.570  1.1675 -1.0142 -0.9154
  646TIP3    H223430   5.086   6.750  13.670 -1.2602 -0.3550 -0.0503
  647TIP3   OH223431   0.324   1.017  15.227 -0.0084 -0.4742  0.6697
  647TIP3    H123432   0.328   0.933  15.183 -0.2094 -0.1026 -0.0657
  647TIP3    H223433   0.302   0.995  15.318  0.9969 -1.2773  0.7368
  648TIP3   OH223434   4.611   4.146   5.457  0.7503 -0.0449  0.2562
  648TIP3    H123435   4.632   4.075   5.517 -1.0192 -1.2705 -0.4724
  648TIP3    H223436   4.646   4.117   5.373 -0.7913 -0.5645 -0.2499
  649TIP3   OH223437   1.427   1.484  17.270 -0.2212  0.7686 -0.5840
  649TIP3    H123438   1.425   1.483  17.365 -0.5866  1.0312 -0.5874
  649TIP3    H223439   1.389   1.399  17.244 -0.4198  0.8319 -0.4999
  650TIP3   OH223440   5.028   2.074  11.093 -0.0269 -0.6539  0.1748
  650TIP3    H123441   4.950   2.023  11.116  0.1722 -0.2865  1.7981
  650TIP3    H223442   5.002   2.165  11.105  0.6086 -0.5250  0.6352
  651TIP3   OH223443   1.617   3.517   2.049 -0.3477 -0.3418 -0.5854
  651TIP3    H123444   1.591   3.596   2.097  2.2695  1.0407 -1.2468
  651TIP3    H223445   1.643   3.455   2.117 -2.6697 -0.8207 -0.0459
  652TIP3   OH223446   5.664   0.192  13.698  0.3355  0.2459 -0.6444
  652TIP3    H123447   5.754   0.163  13.714 -0.3121 -0.5020  2.1230
  652TIP3    H223448   5.620   0.115  13.662  0.1050 -0.4112  0.9454
  653TIP3   OH223449   5.137   0.616  13.355 -0.4251 -0.9344  0.0506
  653TIP3    H123450   5.052   0.575  13.340 -0.6292 -1.0460  1.3543
  653TIP3    H223451   5.182   0.610  13.271 -1.7199 -0.8264 -0.6728
  654TIP3   OH223452   0.195   2.300  15.711  0.1779  0.2415 -0.0383
  654TIP3    H123453   0.202   2.378  15.655 -1.7228 -0.0350 -0.7512
  654TIP3    H223454   0.285   2.275  15.729  0.8932  3.5073  1.5231
  655TIP3   OH223455   1.638   3.647  14.958  0.1285 -0.4674  0.3562
  655TIP3    H123456   1.553   3.676  14.990 -0.2014 -2.5836  1.6172
  655TIP3    H223457   1.658   3.706  14.886 -1.8619  0.8114  0.7726
  656TIP3   OH223458   0.995   6.664   4.478 -0.7057  0.0570 -0.0082
  656TIP3    H123459   1.085   6.696   4.478 -0.2167 -1.2623 -0.4009
  656TIP3    H223460   0.995   6.592   4.542 -1.1172 -0.8873 -1.0416
  657TIP3   OH223461   2.854   1.531   4.345  0.3895  0.0719 -0.0502
  657TIP3    H123462   2.830   1.617   4.378  0.5583 -0.7232  2.3742
  657TIP3    H223463   2.950   1.531   4.345  0.3945 -0.3559  0.6997
  658TIP3   OH223464   5.123   5.177  11.875 -0.2360 -0.3049  0.5793
  658TIP3    H123465   5.160   5.109  11.932 -1.1566  0.3438  1.9795
  658TIP3    H223466   5.029   5.173  11.891 -0.3245  1.1551  0.5125
  659TIP3   OH223467   3.474   5.051  11.394 -0.3244  0.0995 -0.2934
  659TIP3    H123468   3.392   5.100  11.401  0.0657  0.7401 -0.0727
  659TIP3    H223469   3.448   4.959  11.398 -0.7976  0.2677  2.5681
  660TIP3   OH223470   6.438   2.926  13.396  0.1200 -1.0341 -0.3612
  660TIP3    H123471   6.419   2.926  13.490  0.0318 -1.6262 -0.3739
  660TIP3    H223472   6.361   2.884  13.357 -0.5848  0.6317 -0.8645
  661TIP3   OH223473   0.101   2.201   0.024 -0.3277 -0.0606 -0.4898
  661TIP3    H123474   0.058   2.257   0.089 -2.8041  0.4032 -2.3766
  661TIP3    H223475   0.089   2.247  -0.059  2.6122 -0.6908 -1.3866
  662TIP3   OH223476   1.296   6.395   2.700  0.1263 -0.2362 -0.1880
  662TIP3    H123477   1.368   6.399   2.636 -0.0920 -1.0541 -0.4952
  662TIP3    H223478   1.218   6.376   2.647 -0.3553  0.8335  0.1224
  663TIP3   OH223479   3.753   2.342  13.924 -0.4618  0.3401 -0.6527
  663TIP3    H123480   3.684   2.407  13.941  1.3935  2.1554  0.4098
  663TIP3    H223481   3.832   2.381  13.962  0.5195 -3.1819  1.3025
  664TIP3   OH223482   3.172   0.199  12.500  0.0564 -0.2432  1.0456
  664TIP3    H123483   3.239   0.137  12.472  0.2535 -0.1320  1.2630
  664TIP3    H223484   3.089   0.157  12.479  0.1707  0.5617 -1.3358
  665TIP3   OH223485   6.567   6.597  11.031  0.1444  0.5133 -0.2275
  665TIP3    H123486   6.514   6.618  10.954 -1.4515 -1.9225  0.0868
  665TIP3    H223487   6.654   6.631  11.009 -0.5022  0.8560 -2.6415
  666TIP3   OH223488   2.966   0.780   3.520  0.3790 -0.0218  0.0849
  666TIP3    H123489   2.999   0.778   3.430 -0.1020  0.0725 -0.0946
  666TIP3    H223490   3.000   0.699   3.560 -0.0084 -0.4298 -0.3979
  667TIP3   OH223491   5.548   5.675  16.368  0.1246  0.4962  0.6863
  667TIP3    H123492   5.618   5.628  16.323 -2.0880 -1.1200 -1.2614
  667TIP3    H223493   5.591   5.753  16.403  2.8945 -0.4581 -0.3308
  668TIP3   OH223494   5.999   2.018  14.678 -0.0006  0.2361  0.3841
  668TIP3    H123495   5.988   2.109  14.650  1.4657  0.1230 -0.6745
  668TIP3    H223496   6.088   1.995  14.650 -0.8271 -1.9713 -0.6957
  669TIP3   OH223497   6.382   4.144  11.316  0.0202 -0.6743  0.3832
  669TIP3    H123498   6.471   4.168  11.340 -0.0541 -0.2055  0.2011
  669TIP3    H223499   6.328   4.174  11.389  0.1332 -2.0310  1.0574
  670TIP3   OH223500   5.573   0.508   5.829 -0.1076 -0.2937  0.4731
  670TIP3    H123501   5.542   0.483   5.916 -0.8847  0.6248  0.4767
  670TIP3    H223502   5.661   0.543   5.843  0.4258 -1.6542  0.6532
  671TIP3   OH223503   4.306   5.796   3.193  0.2994  0.8656 -0.4673
  671TIP3    H123504   4.362   5.737   3.141 -0.4084  0.7901 -1.1681
  671TIP3    H223505   4.221   5.752   3.197 -0.5550  2.2574 -1.8766
  672TIP3   OH223506   2.593   5.869   2.671 -0.5154 -0.7716  0.4341
  672TIP3    H123507   2.576   5.912   2.587 -0.4830 -0.4543  0.5910
  672TIP3    H223508   2.523   5.900   2.728 -1.9211 -2.7346 -0.0835
  673TIP3   OH223509   3.938   6.583  16.107 -0.0351 -0.0188 -0.0707
  673TIP3    H123510   3.913   6.623  16.023 -0.3865  0.0714  0.0758
  673TIP3    H223511   3.980   6.654  16.156  1.5978 -0.4515 -0.7584
  674TIP3   OH223512   1.890   6.704  15.982  0.3429  0.1655 -0.5653
  674TIP3    H123513   1.807   6.747  15.963  0.7358  0.9607 -0.5206
  674TIP3    H223514   1.919   6.742  16.064 -0.1713 -1.5234  0.4506
  675TIP3   OH223515   2.962   4.581   0.300 -0.1976  0.1360 -0.2107
  675TIP3    H123516   2.967   4.513   0.367  0.1655  1.7188  1.4600
  675TIP3    H223517   2.902   4.646   0.337 -1.4360  0.2147 -2.2585
  676TIP3   OH223518   5.564   6.146   5.682 -0.1071  0.3021  0.5638
  676TIP3    H123519   5.609   6.112   5.759  1.2853  2.3643  0.7324
  676TIP3    H223520   5.508   6.074   5.654  0.6416 -1.1149  2.4624
  677TIP3   OH223521   0.908   5.226  15.882  0.3626  0.1191  0.3846
  677TIP3    H123522   0.980   5.227  15.819  0.7340  1.7809  0.7997
  677TIP3    H223523   0.936   5.285  15.953 -1.2367  0.5212  0.7322
  678TIP3   OH223524   4.044   5.307  15.457  0.0011  0.0187  0.2669
  678TIP3    H123525   3.960   5.304  15.504 -0.5522 -2.7234 -0.7146
  678TIP3    H223526   4.028   5.369  15.385 -1.8282 -1.5828 -0.8427
  679TIP3   OH223527   0.920   3.365  17.100 -0.6341 -0.0496  0.5398
  679TIP3    H123528   0.831   3.374  17.068 -0.0163 -0.3063 -1.3870
  679TIP3    H223529   0.972   3.423  17.044  0.4856 -0.2594  1.3145
  680TIP3   OH223530   0.927   2.667   2.085 -0.3439  1.0001  0.0587
  680TIP3    H123531   0.898   2.576   2.082  1.9234  0.1890  0.7466
  680TIP3    H223532   1.018   2.664   2.057  0.1742  2.8814  1.3473
  681TIP3   OH223533   5.265   6.171  14.626 -0.2723  0.1012 -0.0054
  681TIP3    H123534   5.345   6.195  14.578 -0.0602 -1.8135 -0.6920
  681TIP3    H223535   5.289   6.182  14.718 -0.1191  2.1253 -0.2398
  682TIP3   OH223536   1.252   3.457  12.249 -0.2551  0.1121  0.2977
  682TIP3    H123537   1.212   3.371  12.235  1.6998 -0.9274  0.8190
  682TIP3    H223538   1.192   3.502  12.307 -0.6523 -1.4209  1.1301
  683TIP3   OH223539   4.136   3.756  11.301  0.3776  0.1018  0.1547
  683TIP3    H123540   4.133   3.661  11.296  1.9132 -0.0290  1.1034
  683TIP3    H223541   4.049   3.785  11.273  0.0697 -1.5432 -0.6621
  684TIP3   OH223542   6.137   4.988  13.108  0.3057 -0.0359  0.5927
  684TIP3    H123543   6.213   4.933  13.094  0.5514  0.1005  1.3448
  684TIP3    H223544   6.173   5.074  13.130 -0.0702  0.5190 -0.8543
  685TIP3   OH223545   2.999   2.815   4.747  0.1522 -0.0226 -0.2147
  685TIP3    H123546   2.987   2.795   4.654  2.2214  1.4984 -0.8577
  685TIP3    H223547   2.909   2.826   4.780 -0.6174  1.6458 -2.5678
  686TIP3   OH223548   6.800   4.686   3.894  0.0733  0.1596 -0.4674
  686TIP3    H123549   6.839   4.771   3.917  0.6060 -0.1090 -0.3536
  686TIP3    H223550   6.719   4.682   3.944  1.4108 -0.5997  1.7681
  687TIP3   OH223551   1.069   0.109  15.379  0.5733  0.5217  0.4872
  687TIP3    H123552   1.029   0.080  15.298  0.6724 -0.1282  0.6700
  687TIP3    H223553   1.037   0.199  15.391 -1.7812 -0.3371  1.2381
  688TIP3   OH223554   4.929   5.238  13.295  0.1529 -0.6622  0.1286
  688TIP3    H123555   4.900   5.247  13.386  1.6005 -1.2562  0.6849
  688TIP3    H223556   4.853   5.265  13.243 -0.9566 -0.9979  1.4945
  689TIP3   OH223557   4.294   5.704  15.403 -0.4918  0.3673  0.3412
  689TIP3    H123558   4.341   5.786  15.423 -0.8917  0.6001  0.3384
  689TIP3    H223559   4.284   5.662  15.488  0.0659  0.1292  0.2911
  690TIP3   OH223560   2.447   2.615  16.850 -0.0888  0.2866  0.1039
  690TIP3    H123561   2.428   2.707  16.870  0.2150  0.9283 -2.2865
  690TIP3    H223562   2.365   2.580  16.814  0.6657  0.6152 -2.0927
  691TIP3   OH223563   1.272   2.024   3.990  0.6696  0.1994 -0.3181
  691TIP3    H123564   1.302   2.113   3.973  1.4072 -0.0207 -0.1806
  691TIP3    H223565   1.352   1.973   3.998  0.3061 -0.1398  1.4994
  692TIP3   OH223566   2.584   5.302  16.305  0.2328 -0.1584  0.3967
  692TIP3    H123567   2.660   5.322  16.251 -0.3134 -0.9848 -0.7192
  692TIP3    H223568   2.511   5.346  16.262 -0.1147 -0.3168  0.8093
  693TIP3   OH223569   5.547   5.880   4.028 -0.0801 -0.3944  0.3005
  693TIP3    H123570   5.534   5.975   4.032 -3.7671 -0.6958 -0.5464
  693TIP3    H223571   5.612   5.867   3.960  0.2981  1.5113  0.2463
  694TIP3   OH223572   4.086   5.297   1.671  0.4958 -0.4797  0.3002
  694TIP3    H123573   4.006   5.265   1.630 -1.3339  0.8109  2.6480
  694TIP3    H223574   4.132   5.218   1.698 -0.8091 -1.2425  0.3750
  695TIP3   OH223575   0.421   3.772  15.467  0.2907 -0.2846  0.2319
  695TIP3    H123576   0.351   3.708  15.451  0.8206 -0.7625 -0.1819
  695TIP3    H223577   0.485   3.724  15.519  1.0147 -0.3031 -0.6684
  696TIP3   OH223578   4.626   5.419  14.937 -0.1303  0.5109  0.4869
  696TIP3    H123579   4.680   5.497  14.932  0.9756 -0.2716 -0.1985
  696TIP3    H223580   4.621   5.399  15.030 -1.9507  2.3900  0.8720
  697TIP3   OH223581   3.574   0.322  14.146 -0.3597 -0.4508  0.1651
  697TIP3    H123582   3.618   0.237  14.147 -0.8561 -0.7047  0.6666
  697TIP3    H223583   3.539   0.330  14.057  1.9193  0.4096 -0.7361
  698TIP3   OH223584   0.216   6.647   2.222 -0.2069  0.6128 -0.4713
  698TIP3    H123585   0.123   6.624   2.218 -0.2881  0.9800 -0.7356
  698TIP3    H223586   0.224   6.723   2.164 -0.2096  2.1662  1.4991
  699TIP3   OH223587   6.180   2.883  12.708  0.1021 -0.4707 -0.2798
  699TIP3    H123588   6.250   2.940  12.740  0.0182 -1.2492  1.3332
  699TIP3    H223589   6.221   2.832  12.638  1.2546 -1.1406  0.8540
  700TIP3   OH223590   2.613   5.517  16.857 -0.0362  0.0127 -0.2632
  700TIP3    H123591   2.616   5.501  16.951 -2.3526 -0.7186 -0.2421
  700TIP3    H223592   2.580   5.435  16.820  0.0870  0.5565 -1.6309
  701TIP3   OH223593   4.757   2.392  11.785 -0.0012 -0.0575 -0.2365
  701TIP3    H123594   4.697   2.376  11.857  0.2585 -1.6780 -0.3400
  701TIP3    H223595   4.794   2.306  11.765  2.9827  0.9574  0.3731
  702TIP3   OH223596   3.219   3.279  16.526 -0.2171 -0.2189  0.1902
  702TIP3    H123597   3.137   3.286  16.477  0.1206 -0.8736 -0.4667
  702TIP3    H223598   3.201   3.326  16.608 -0.8124  0.8008 -0.5054
  703TIP3   OH223599   6.244   3.243   2.905  0.3204  0.0995 -0.1066
  703TIP3    H123600   6.203   3.315   2.857  0.5087  1.0829  1.1506
  703TIP3    H223601   6.261   3.279   2.992  0.1765 -1.5549  0.6494
  704TIP3   OH223602   4.989   5.979  14.948 -0.2753 -0.3220 -0.0119
  704TIP3    H123603   4.895   5.977  14.929  0.1059 -0.0413 -2.1924
  704TIP3    H223604   5.030   5.936  14.873  1.3457 -0.6153  0.9956
  705TIP3   OH223605   4.713   0.657  14.114 -0.2121 -0.1928 -0.3101
  705TIP3    H123606   4.757   0.741  14.106 -0.3558 -0.1091 -0.2294
  705TIP3    H223607   4.656   0.652  14.037  0.0189 -0.3510 -0.4735
  706TIP3   OH223608   2.949   6.179   2.280 -0.4033  0.2760  0.3485
  706TIP3    H123609   2.967   6.168   2.187  0.5244 -0.5303  0.6157
  706TIP3    H223610   3.033   6.204   2.319 -0.7428  0.4534  0.9977
  707TIP3   OH223611   1.208   5.825  11.927  0.5731  0.5357  0.1302
  707TIP3    H123612   1.261   5.850  11.852 -1.2289  0.2513 -1.3228
  707TIP3    H223613   1.269   5.825  12.001  2.8708 -1.0686 -1.6204
  708TIP3   OH223614   2.902   6.719   4.208 -0.2707 -0.3165  0.1678
  708TIP3    H123615   2.892   6.778   4.134  0.4742  1.0415  1.1040
  708TIP3    H223616   2.813   6.691   4.229 -1.0717  2.7246  1.4242
  709TIP3   OH223617   3.351   4.940   2.151 -0.1131 -0.2696  0.4345
  709TIP3    H123618   3.274   4.915   2.102 -0.7825  1.7162  0.3800
  709TIP3    H223619   3.425   4.910   2.098 -0.8369  0.3475 -0.9774
  710TIP3   OH223620   2.106   4.025  15.296 -0.2204 -0.4043 -0.9371
  710TIP3    H123621   2.179   4.081  15.324 -0.8585  0.1441 -0.3061
  710TIP3    H223622   2.028   4.079  15.310 -1.0050 -1.9160  1.0838
  711TIP3   OH223623   0.155   6.110   6.047  0.4800  0.5791 -0.6199
  711TIP3    H123624   0.106   6.139   5.970  0.5891  1.3630 -0.4045
  711TIP3    H223625   0.152   6.014   6.043 -0.6779  0.6071 -0.8610
  712TIP3   OH223626   4.015   2.574  11.797  0.8757 -0.3338  0.1064
  712TIP3    H123627   3.967   2.512  11.852 -2.2707  0.5960 -1.3295
  712TIP3    H223628   4.055   2.635  11.859  1.1347 -1.7776  1.4323
  713TIP3   OH223629   5.803   3.980  14.727 -0.1039  0.0322 -0.6428
  713TIP3    H123630   5.778   3.903  14.676 -1.9779  1.5378 -2.1223
  713TIP3    H223631   5.889   4.005  14.693 -0.0019 -0.7108 -0.9518
  714TIP3   OH223632   3.038   2.292   6.294 -0.8221 -0.0223 -0.1397
  714TIP3    H123633   2.983   2.217   6.318 -1.2523  0.4981  0.5303
  714TIP3    H223634   2.977   2.357   6.260 -0.2133 -0.8373 -3.0547
  715TIP3   OH223635   3.582   5.373  15.836 -0.0307  0.5445  0.3936
  715TIP3    H123636   3.549   5.283  15.834  0.7267  0.2673 -0.1271
  715TIP3    H223637   3.630   5.380  15.919  0.3078  0.3176  0.2189
  716TIP3   OH223638   4.990   0.807   5.500 -0.7148  0.0297  0.2831
  716TIP3    H123639   4.905   0.812   5.456  0.6729  1.5048 -2.4702
  716TIP3    H223640   5.028   0.725   5.470 -1.0970 -0.6404  1.5303
  717TIP3   OH223641   3.482   1.763   4.079  0.4740 -0.2444  0.1355
  717TIP3    H123642   3.467   1.772   3.986  0.1147 -0.8174  0.1315
  717TIP3    H223643   3.542   1.834   4.101 -1.5056  1.5658 -0.0063
  718TIP3   OH223644   1.324   5.466  15.151  0.2892 -0.0570  0.0778
  718TIP3    H123645   1.229   5.476  15.141  0.2714  0.8203  0.9380
  718TIP3    H223646   1.361   5.512  15.076  0.0712  2.2784  1.3240
  719TIP3   OH223647   1.342   2.534  16.751  0.0690 -0.3842 -0.2555
  719TIP3    H123648   1.403   2.570  16.686 -1.5970  2.8297 -0.2537
  719TIP3    H223649   1.392   2.532  16.833  0.8831 -0.2357 -0.7346
  720TIP3   OH223650   6.071   2.737   5.592  0.2261  0.3228  0.0317
  720TIP3    H123651   6.018   2.680   5.648 -1.7495  1.0587 -0.9920
  720TIP3    H223652   6.061   2.700   5.504  2.5940 -0.3213 -0.0132
  721TIP3   OH223653   5.099   6.207  12.182 -0.3749  0.6238 -0.4527
  721TIP3    H123654   5.081   6.178  12.092  0.1767 -0.7965 -0.1237
  721TIP3    H223655   5.150   6.136  12.221  1.5117  2.2468  0.2379
  722TIP3   OH223656   3.403   1.747   2.400 -0.4675  0.8363 -0.1399
  722TIP3    H123657   3.432   1.792   2.321 -1.6735  0.6442 -0.7138
  722TIP3    H223658   3.330   1.692   2.371  1.8970 -2.8074  0.1513
  723TIP3   OH223659   5.419   2.085   2.848  0.5090 -0.4123  0.6797
  723TIP3    H123660   5.325   2.102   2.854  0.6707  1.1063 -0.4728
  723TIP3    H223661   5.448   2.081   2.939 -0.6724 -0.9391  1.0534
  724TIP3   OH223662   5.131   1.474  12.009  0.2961 -0.1484 -0.4272
  724TIP3    H123663   5.075   1.551  12.013  1.2526  0.5676 -0.3662
  724TIP3    H223664   5.071   1.400  12.004 -0.6766  0.4789  1.2428
  725TIP3   OH223665   6.319   2.950   4.166 -0.4873 -0.0990 -0.5002
  725TIP3    H123666   6.410   2.969   4.143 -0.0993 -0.3395  0.7331
  725TIP3    H223667   6.267   3.006   4.108  0.4331 -0.1080 -1.3563
  726TIP3   OH223668   2.164   2.739   0.599  0.3975  0.3232 -0.0504
  726TIP3    H123669   2.122   2.782   0.673  1.6875 -0.4724  1.1955
  726TIP3    H223670   2.227   2.804   0.566 -0.6226  0.9134 -0.8876
  727TIP3   OH223671   6.116   6.378  11.203 -0.3089  0.5971  0.4394
  727TIP3    H123672   6.174   6.417  11.137  1.0623 -0.6880  0.8160
  727TIP3    H223673   6.170   6.310  11.244 -2.5844 -1.8262 -0.3270
  728TIP3   OH223674   4.079   1.300  11.083  0.2326 -0.1200  0.4241
  728TIP3    H123675   4.042   1.268  11.166  1.3602  0.2362  1.0839
  728TIP3    H223676   4.149   1.238  11.063 -0.3784 -0.5120 -0.5669
  729TIP3   OH223677   2.807   2.020   2.443 -0.6327 -0.3416 -0.0450
  729TIP3    H123678   2.894   1.989   2.416  0.1544  1.7138 -0.0328
  729TIP3    H223679   2.768   2.056   2.364 -0.7426  0.3364  0.3068
  730TIP3   OH223680   4.658   5.384  16.348  0.1095  0.5856 -0.3537
  730TIP3    H123681   4.612   5.328  16.411  1.7630  0.2796  0.6454
  730TIP3    H223682   4.657   5.471  16.388  0.7965  0.4761 -0.0811
  731TIP3   OH223683   4.700   0.708   4.317 -0.1173  0.6454 -0.3007
  731TIP3    H123684   4.759   0.730   4.245  0.1675  0.7341 -0.0397
  731TIP3    H223685   4.613   0.729   4.283 -0.0731 -0.1947 -0.9579
  732TIP3   OH223686   4.235   6.559   2.605 -0.4601 -0.4565  0.5189
  732TIP3    H123687   4.223   6.464   2.604 -3.7605 -0.1572  0.6733
  732TIP3    H223688   4.199   6.590   2.522  0.7098  0.6877  0.3962
  733TIP3   OH223689   2.930   0.014  16.770  0.5447 -0.2944 -0.4280
  733TIP3    H123690   2.901   0.008  16.861  0.1626 -1.0236 -0.5885
  733TIP3    H223691   2.975  -0.069  16.755  1.3265  0.1615 -0.6637
  734TIP3   OH223692   4.724   4.026  11.641 -0.0480 -0.7079  0.1574
  734TIP3    H123693   4.775   4.070  11.573 -1.0853  2.1901  1.0772
  734TIP3    H223694   4.777   3.951  11.667  1.1725 -0.9200 -2.5924
  735TIP3   OH223695   6.189   6.644   2.249 -0.4287  0.4563 -0.1132
  735TIP3    H123696   6.145   6.610   2.326  0.1707 -2.2522 -0.8803
  735TIP3    H223697   6.276   6.668   2.279  0.1493 -1.5261 -0.0632
  736TIP3   OH223698   1.057   0.609   2.096 -0.2491 -0.0638  0.3126
  736TIP3    H123699   1.023   0.685   2.048 -0.9424 -0.5693 -0.0228
  736TIP3    H223700   1.031   0.625   2.187 -0.0072  0.3090  0.3179
  737TIP3   OH223701   6.557   6.809  11.686 -0.0695 -0.5233 -0.4072
  737TIP3    H123702   6.541   6.739  11.622 -0.1924 -1.3322  0.4850
  737TIP3    H223703   6.485   6.801  11.749  1.9766 -2.1767  1.9061
  738TIP3   OH223704   2.795   6.677   1.625  1.0027 -0.0605 -0.7415
  738TIP3    H123705   2.726   6.641   1.569 -0.4109 -0.1010  0.9325
  738TIP3    H223706   2.777   6.641   1.712  2.7395  0.4971 -0.1072
  739TIP3   OH223707   2.810   4.894   5.715 -0.1161  0.3220 -0.0634
  739TIP3    H123708   2.791   4.937   5.798 -0.4094 -1.3815  0.8001
  739TIP3    H223709   2.849   4.810   5.740  0.1425 -0.0653 -1.6647
  740TIP3   OH223710   2.560   0.530  16.846  0.0577 -0.1960 -0.0519
  740TIP3    H123711   2.486   0.544  16.904 -1.1307 -0.5744 -1.4225
  740TIP3    H223712   2.523   0.531  16.758  1.6418 -0.6201 -0.7711
  741TIP3   OH223713   3.810   0.052   0.278 -0.5927  0.1484  0.4092
  741TIP3    H123714   3.762   0.125   0.240  1.3096  1.4673  0.4119
  741TIP3    H223715   3.833   0.082   0.366 -1.3101 -1.1882  1.0751
  742TIP3   OH223716   6.638   6.327   6.065  0.0626  0.0399  0.0566
  742TIP3    H123717   6.702   6.266   6.102  1.7348  0.3542 -2.1522
  742TIP3    H223718   6.595   6.278   5.995 -1.6025  0.1015  0.9846
  743TIP3   OH223719   3.791   5.030   3.669  0.3875  0.1400 -0.0745
  743TIP3    H123720   3.765   5.032   3.577  0.1695  0.2918 -0.0086
  743TIP3    H223721   3.716   4.991   3.715  0.3176  0.4788  0.1003
  744TIP3   OH223722   1.544   2.264   4.933  0.2824 -0.3547 -0.1704
  744TIP3    H123723   1.499   2.326   4.990  3.1780  1.7201  0.1160
  744TIP3    H223724   1.510   2.281   4.846 -1.4494 -0.8668  0.3783
  745TIP3   OH223725   0.731   6.574  11.067  0.2814  0.0105 -0.0521
  745TIP3    H123726   0.644   6.568  11.028  0.1927 -0.4307  0.2067
  745TIP3    H223727   0.761   6.663  11.046  0.3480 -0.3012 -1.3261
  746TIP3   OH223728   1.468   4.536  16.293  0.4539  0.3297  0.2863
  746TIP3    H123729   1.479   4.577  16.378 -1.6720 -1.0852  1.3389
  746TIP3    H223730   1.379   4.558  16.267  0.1821 -1.3744 -0.3491
  747TIP3   OH223731   0.880   6.178   2.327  0.3593  0.5514  0.4733
  747TIP3    H123732   0.829   6.154   2.250 -1.0314  0.4218  1.3892
  747TIP3    H223733   0.819   6.227   2.381  1.1484  0.2071  1.7190
  748TIP3   OH223734   0.423   3.725  11.326  0.5019 -0.1006  0.6560
  748TIP3    H123735   0.465   3.764  11.250  1.5265 -0.4414  1.0406
  748TIP3    H223736   0.363   3.793  11.358 -1.2787 -0.5418 -1.4577
  749TIP3   OH223737   3.264   2.733   1.827 -0.6216 -0.1404  1.0444
  749TIP3    H123738   3.339   2.772   1.783  0.2400 -0.4958  2.1545
  749TIP3    H223739   3.188   2.775   1.787  0.1132 -0.2758 -0.5954
  750TIP3   OH223740   0.726   4.998  12.040  0.5812  0.4995  0.4275
  750TIP3    H123741   0.708   4.920  11.988  1.9445  1.3654 -1.4580
  750TIP3    H223742   0.815   4.985  12.072  1.3654  1.8435 -1.0811
  751TIP3   OH223743   6.423   3.250  11.279 -0.3969 -0.2150 -0.1677
  751TIP3    H123744   6.478   3.255  11.201 -0.9368  0.7863 -0.5120
  751TIP3    H223745   6.447   3.168  11.321  0.7833 -0.1741 -0.7302
  752TIP3   OH223746   3.577   1.061   1.600  0.6166  0.6210  0.2857
  752TIP3    H123747   3.639   0.993   1.572 -0.8461 -1.9654  2.7479
  752TIP3    H223748   3.527   1.081   1.521  0.2360 -2.2818 -0.3557
  753TIP3   OH223749   4.389   2.964  15.284  0.0272 -0.6592 -0.4164
  753TIP3    H123750   4.450   2.989  15.214  0.6989 -0.0202  0.3742
  753TIP3    H223751   4.437   2.981  15.365 -0.5759 -1.7852  0.2127
  754TIP3   OH223752   1.433   3.647   4.498 -0.4279 -0.2589 -0.2078
  754TIP3    H123753   1.528   3.640   4.505 -0.3599  0.0313 -0.8119
  754TIP3    H223754   1.412   3.733   4.534 -0.4162 -0.1485 -0.4609
  755TIP3   OH223755   4.141   5.949  13.405 -0.0220  0.0499  0.0273
  755TIP3    H123756   4.120   5.869  13.357 -0.7506  0.2928 -0.0744
  755TIP3    H223757   4.168   6.012  13.337  1.4250 -0.3605  0.1867
  756TIP3   OH223758   4.884   6.659   5.825 -0.2869  0.0676 -0.3980
  756TIP3    H123759   4.881   6.752   5.843 -2.9748 -0.0022 -0.1076
  756TIP3    H223760   4.794   6.629   5.837  0.0578 -2.1771 -2.5008
  757TIP3   OH223761   5.795   3.795  13.646 -0.5585 -0.0787  0.3624
  757TIP3    H123762   5.768   3.704  13.647 -0.4374 -0.1751 -1.3198
  757TIP3    H223763   5.884   3.795  13.683  0.2411 -0.9785 -1.4227
  758TIP3   OH223764   4.170   2.495  15.331  0.2673  0.7360 -0.1449
  758TIP3    H123765   4.226   2.562  15.369 -0.7895  1.2609  0.5369
  758TIP3    H223766   4.101   2.543  15.287  0.3154  0.0981 -0.9534
  759TIP3   OH223767   2.018   1.286   2.359  0.5630  0.0498 -0.5169
  759TIP3    H123768   2.096   1.232   2.364  0.8032  0.4610  0.2757
  759TIP3    H223769   1.946   1.223   2.349  0.8829 -0.3922 -0.0724
  760TIP3   OH223770   6.546   4.812   1.858 -0.1563  0.3048 -0.1797
  760TIP3    H123771   6.546   4.783   1.949  0.2879  0.0297 -0.2619
  760TIP3    H223772   6.515   4.736   1.808 -0.7362  0.5713 -0.2221
  761TIP3   OH223773   2.664   3.930   1.052  0.0257 -0.1217 -0.0059
  761TIP3    H123774   2.699   3.890   1.131 -0.6200 -0.8107 -0.0555
  761TIP3    H223775   2.572   3.904   1.050  0.4474 -1.7275 -1.9435
  762TIP3   OH223776   6.300   4.600   5.670 -0.7291 -0.1086 -0.5527
  762TIP3    H123777   6.348   4.667   5.718  0.0661  0.2209 -1.7556
  762TIP3    H223778   6.241   4.649   5.612 -0.6981 -0.4637 -0.8895
  763TIP3   OH223779   0.209   1.767  14.702  0.7355  0.4541 -0.3539
  763TIP3    H123780   0.292   1.811  14.718  1.0540  0.4142 -1.7700
  763TIP3    H223781   0.198   1.770  14.607 -0.3631 -0.4891 -0.2796
  764TIP3   OH223782   4.186   5.084   6.311  0.0629  0.4436  0.2834
  764TIP3    H123783   4.241   5.052   6.383 -1.5806  0.2212  1.5207
  764TIP3    H223784   4.195   5.018   6.242  0.4692 -0.1745  0.9140
  765TIP3   OH223785   6.022   3.414  14.376 -0.4194 -0.5124  0.2273
  765TIP3    H123786   5.931   3.436  14.394 -0.6921  1.0649 -2.5354
  765TIP3    H223787   6.070   3.496  14.385  0.2703 -0.7670 -0.9059
  766TIP3   OH223788   2.140   1.704  12.727  0.0521  0.1125 -0.1563
  766TIP3    H123789   2.156   1.645  12.653  2.0185 -0.3794  0.5906
  766TIP3    H223790   2.226   1.740  12.748 -1.1269  3.6010 -0.7960
  767TIP3   OH223791   6.185   5.884   2.655 -0.0489  0.0467 -0.5068
  767TIP3    H123792   6.194   5.803   2.605 -0.1366  0.6110 -1.4721
  767TIP3    H223793   6.181   5.856   2.746  0.5833 -0.9852 -0.7751
  768TIP3   OH223794   5.675   0.452   6.562  0.9022  0.2586 -0.8862
  768TIP3    H123795   5.606   0.460   6.496 -1.5047 -1.8282  1.1106
  768TIP3    H223796   5.741   0.396   6.522  0.1684  0.1720 -1.9980
  769TIP3   OH223797   6.730   3.630   2.678 -0.5515 -0.0474 -0.6049
  769TIP3    H123798   6.776   3.655   2.758 -2.2419 -0.8639  0.6887
  769TIP3    H223799   6.799   3.606   2.616  0.8409  1.6004  0.2215
  770TIP3   OH223800   5.102   1.308  10.675  0.1735 -0.0327 -0.2751
  770TIP3    H123801   5.113   1.335  10.583 -0.8425  0.5804 -0.2248
  770TIP3    H223802   5.060   1.383  10.717 -0.1246 -0.6297  0.5085
  771TIP3   OH223803   3.130   1.971  13.010 -0.2217 -0.4839 -0.1788
  771TIP3    H123804   3.224   1.970  13.024 -0.2157 -1.6163 -0.1961
  771TIP3    H223805   3.099   1.888  13.047 -1.3893  0.4137  0.9769
  772TIP3   OH223806   0.817   3.506   5.168  0.0309  0.5379 -0.1947
  772TIP3    H123807   0.774   3.579   5.213  1.3726  1.0137  0.3480
  772TIP3    H223808   0.836   3.443   5.238 -1.9177 -0.7940 -0.7736
  773TIP3   OH223809   5.700   0.677   3.132 -0.4471 -0.1277 -0.5151
  773TIP3    H123810   5.791   0.701   3.118 -0.0411 -0.0079  1.9935
  773TIP3    H223811   5.698   0.582   3.119  0.7336 -0.6211  2.2666
  774TIP3   OH223812   1.521   0.547  11.061  0.4034  0.0827  0.1239
  774TIP3    H123813   1.468   0.483  11.014 -0.1323 -1.3334  2.4805
  774TIP3    H223814   1.472   0.629  11.055 -1.2050 -0.7948  0.7766
  775TIP3   OH223815   3.248   4.323  14.799  0.2204 -0.8853  0.1331
  775TIP3    H123816   3.333   4.337  14.841  0.4585 -0.9431 -0.3178
  775TIP3    H223817   3.193   4.395  14.830  0.0144 -1.6035  1.4937
  776TIP3   OH223818   4.160   4.341   3.274 -0.1941  0.0416  0.0571
  776TIP3    H123819   4.160   4.352   3.179 -0.4661  0.9428  0.1511
  776TIP3    H223820   4.178   4.429   3.308 -1.3516 -0.0212  0.8593
  777TIP3   OH223821   3.076   4.005   2.526  0.5415 -0.0501  0.3486
  777TIP3    H123822   3.019   4.059   2.580  2.1949  0.8504  1.2813
  777TIP3    H223823   3.017   3.946   2.480 -1.4900  3.1389 -1.4953
  778TIP3   OH223824   3.433   1.623  10.992 -0.8716  0.0438 -0.5065
  778TIP3    H123825   3.455   1.713  10.968 -0.8016  0.2904  0.4456
  778TIP3    H223826   3.476   1.569  10.926 -0.4861  0.6826 -0.7869
  779TIP3   OH223827   0.530   2.608   5.106 -0.1124 -0.3207 -0.2604
  779TIP3    H123828   0.603   2.669   5.113 -0.3519  0.0003 -0.5075
  779TIP3    H223829   0.491   2.606   5.194 -0.5428  0.4433 -0.4244
  780TIP3   OH223830   0.163   1.991  12.829  0.0954 -0.5637 -0.5084
  780TIP3    H123831   0.235   1.949  12.877  0.1053 -0.4835 -0.4527
  780TIP3    H223832   0.098   1.922  12.819  0.5419 -0.8810 -1.3225
  781TIP3   OH223833   5.893   6.778  12.950 -0.1054 -0.7667  0.3263
  781TIP3    H123834   5.829   6.844  12.980  2.1379  0.6316  2.3887
  781TIP3    H223835   5.896   6.714  13.021  0.6497 -0.9201  0.1593
  782TIP3   OH223836   3.877   4.025   0.978 -0.3246  1.0090  0.3004
  782TIP3    H123837   3.811   4.094   0.977 -0.7011  0.7373 -2.6701
  782TIP3    H223838   3.933   4.045   0.903  0.6449 -0.9318  0.4580
  783TIP3   OH223839   3.942   6.740  15.366  0.3019  0.4353  0.3825
  783TIP3    H123840   3.984   6.725  15.451 -1.4892  1.2208  1.4757
  783TIP3    H223841   3.996   6.807  15.324  2.0718 -1.0370  0.2088
  784TIP3   OH223842   0.129   4.988   5.419  0.2984 -0.2786 -0.7670
  784TIP3    H123843   0.181   5.068   5.411 -1.1423  0.9888  1.3811
  784TIP3    H223844   0.050   5.006   5.368  0.1482 -0.4903 -0.6095
  785TIP3   OH223845   4.908   5.345  17.190  0.3026 -0.3554  0.0298
  785TIP3    H123846   4.849   5.285  17.145 -1.0754  1.3241 -0.5417
  785TIP3    H223847   4.855   5.379  17.263  0.6284  0.9806 -0.3307
  786TIP3   OH223848   6.141   0.298  11.197 -0.2658  0.4021  0.3560
  786TIP3    H123849   6.079   0.369  11.211  0.8980  1.5768 -0.2145
  786TIP3    H223850   6.128   0.239  11.272 -0.7832  1.5724  1.2170
  787TIP3   OH223851   5.173   3.684   5.383  0.0659  0.5242 -0.2704
  787TIP3    H123852   5.101   3.621   5.374  2.1739 -2.2774  0.9250
  787TIP3    H223853   5.206   3.696   5.294 -0.1355 -0.4094 -0.4779
  788TIP3   OH223854   4.896   2.749   1.559 -0.8988  0.0994 -0.4317
  788TIP3    H123855   4.830   2.793   1.506 -1.6571 -0.5119 -0.0284
  788TIP3    H223856   4.876   2.776   1.649 -2.0624 -1.8201 -0.0332
  789TIP3   OH223857   5.238   3.243  11.510 -0.3884 -0.3007 -0.1415
  789TIP3    H123858   5.147   3.272  11.515  0.1358  1.8280 -1.7349
  789TIP3    H223859   5.279   3.283  11.587 -0.3617  0.4999 -0.5669
  790TIP3   OH223860   2.989   6.537  13.777 -0.5787  0.1171 -0.2760
  790TIP3    H123861   2.906   6.572  13.810 -0.2918  0.3841  0.1664
  790TIP3    H223862   3.047   6.538  13.853 -0.5237 -1.1984 -0.2891
  791TIP3   OH223863   3.738   1.701  13.147  0.1008 -0.3557 -0.0215
  791TIP3    H123864   3.652   1.696  13.104  0.2541 -2.5675 -0.1924
  791TIP3    H223865   3.719   1.695  13.240 -0.0342  1.3126  0.0810
  792TIP3   OH223866   4.547   1.109   3.663  0.0416 -0.3704  0.0967
  792TIP3    H123867   4.633   1.088   3.698  0.7878  1.5206 -0.4710
  792TIP3    H223868   4.500   1.026   3.663  0.6308 -0.8763  3.6659
  793TIP3   OH223869   6.319   1.325  13.701  0.3091  0.1233 -0.3085
  793TIP3    H123870   6.231   1.309  13.667 -0.1502  1.0692  0.3897
  793TIP3    H223871   6.328   1.421  13.699  0.7868  0.1198  0.8875
  794TIP3   OH223872   2.836   0.128  15.525  0.3404  0.1446 -0.5005
  794TIP3    H123873   2.822   0.034  15.538 -2.0583  0.0968 -2.7001
  794TIP3    H223874   2.930   0.135  15.509  0.8901 -1.5829  1.4751
  795TIP3   OH223875   3.073   1.564   0.352 -0.2928 -0.0472 -0.1961
  795TIP3    H123876   3.107   1.635   0.407  1.2533  0.5024 -1.7684
  795TIP3    H223877   3.142   1.498   0.351 -2.3633 -2.5380  2.6535
  796TIP3   OH223878   2.027   1.960   0.458  0.1823 -0.5176 -0.1173
  796TIP3    H123879   1.965   1.948   0.385 -0.3496 -0.9110  0.3882
  796TIP3    H223880   2.096   1.897   0.440 -0.2566 -1.0509  0.0379
  797TIP3   OH223881   3.698   4.159   5.687  0.0706 -0.0732 -0.2873
  797TIP3    H123882   3.742   4.092   5.740 -0.2505 -0.6150 -0.6952
  797TIP3    H223883   3.749   4.238   5.702  0.6173 -0.4692 -0.0031
  798TIP3   OH223884   4.052   0.560   0.388 -0.0452 -0.4057  0.1446
  798TIP3    H123885   4.012   0.561   0.301  0.4468  1.1888 -0.1083
  798TIP3    H223886   4.141   0.527   0.373  0.1807  0.2731 -0.0423
  799TIP3   OH223887   5.174   1.466   2.264 -0.3074  0.6730 -0.1015
  799TIP3    H123888   5.224   1.446   2.185  0.5090 -1.5495  0.8780
  799TIP3    H223889   5.234   1.520   2.317 -0.2425  0.8356 -0.3393
  800TIP3   OH223890   4.820   5.309  13.852  0.0426 -0.7142 -0.1949
  800TIP3    H123891   4.797   5.240  13.915  1.2350  0.4892  1.6647
  800TIP3    H223892   4.915   5.304  13.845  0.0491  0.0949 -0.8107
  801TIP3   OH223893   5.507   0.582  12.568  0.7662 -0.0436  0.2122
  801TIP3    H123894   5.450   0.535  12.507 -0.3507 -0.1358  1.3041
  801TIP3    H223895   5.472   0.671  12.570 -0.1181 -0.4035  1.8040
  802TIP3   OH223896   5.353   2.508   4.851  0.2017  0.1647  0.0769
  802TIP3    H123897   5.276   2.464   4.815  0.4748 -0.9510  0.8211
  802TIP3    H223898   5.422   2.493   4.787  0.1973 -0.1697  0.1508
  803TIP3   OH223899   6.266   3.606  11.672 -0.3489 -0.1302  0.2567
  803TIP3    H123900   6.185   3.649  11.648  0.7685  1.8326 -0.1900
  803TIP3    H223901   6.295   3.561  11.593 -0.1527  0.5842 -0.0805
  804TIP3   OH223902   5.707   5.424  10.896 -0.1460 -0.8567  0.6257
  804TIP3    H123903   5.643   5.450  10.963 -1.5593 -0.0746 -0.9583
  804TIP3    H223904   5.761   5.502  10.883 -1.1851 -0.2921 -0.5489
  805TIP3   OH223905   0.711   6.623  16.278 -0.1913  0.8088  0.0023
  805TIP3    H123906   0.795   6.614  16.324  0.8999 -0.6390 -2.1000
  805TIP3    H223907   0.731   6.675  16.201 -1.1101  0.0163 -0.7982
  806TIP3   OH223908   2.858   6.189   0.442 -0.2163  0.2795  0.5933
  806TIP3    H123909   2.828   6.103   0.468  1.8996 -0.3413  1.2149
  806TIP3    H223910   2.822   6.202   0.354 -1.1440 -0.9057  0.7813
  807TIP3   OH223911   1.385   6.083   4.173 -0.1696 -0.1177 -0.0130
  807TIP3    H123912   1.451   6.142   4.209  0.4821 -0.0450 -1.2692
  807TIP3    H223913   1.405   5.998   4.211 -2.0052  0.6359  2.9825
  808TIP3   OH223914   0.597   2.126  13.269 -0.2682  0.8001 -0.1357
  808TIP3    H123915   0.567   2.113  13.179 -0.2998 -0.7023  0.0660
  808TIP3    H223916   0.574   2.044  13.314 -2.8707  2.5090  1.9760
  809TIP3   OH223917   5.078   1.193   5.002  0.8664 -0.2132  0.3192
  809TIP3    H123918   5.111   1.133   5.069  2.3958  0.7394  0.4604
  809TIP3    H223919   5.111   1.157   4.919  0.7897 -0.2170  0.2903
  810TIP3   OH223920   1.907   6.431   2.852 -0.4506  0.2372  0.2738
  810TIP3    H123921   1.867   6.515   2.828  0.1007  0.2832 -0.5203
  810TIP3    H223922   1.921   6.438   2.946 -0.7668  0.8860  0.2828
  811TIP3   OH223923   2.412   2.246   5.218 -0.0925 -0.3211 -0.3480
  811TIP3    H123924   2.431   2.204   5.302 -0.1897  1.3510  0.5637
  811TIP3    H223925   2.316   2.244   5.211 -0.5231  3.4745  1.8705
  812TIP3   OH223926   2.892   5.620   2.915  0.4878 -0.0020 -0.3655
  812TIP3    H123927   2.878   5.659   2.829 -0.4619 -0.0575 -0.2453
  812TIP3    H223928   2.946   5.683   2.962 -0.4437  0.8609 -0.4076
  813TIP3   OH223929   3.422   5.776   5.518 -0.3636  0.4783  0.2871
  813TIP3    H123930   3.378   5.802   5.437  1.4528  0.0993 -0.8824
  813TIP3    H223931   3.379   5.828   5.586 -1.7651  1.0027 -0.9373
  814TIP3   OH223932   0.117   6.396   3.928 -0.4129  0.1548  0.6633
  814TIP3    H123933   0.167   6.315   3.929 -3.3592 -1.8635 -0.9925
  814TIP3    H223934   0.085   6.406   4.018  0.7475  0.0938  1.1093
  815TIP3   OH223935   4.871   2.399   2.276 -0.3764  0.4927 -0.5291
  815TIP3    H123936   4.840   2.432   2.192 -3.0731  1.1296  0.6073
  815TIP3    H223937   4.809   2.434   2.340  1.1931 -0.5043  1.6595
  816TIP3   OH223938   4.848   1.400   0.668  0.2393 -0.2191  0.4810
  816TIP3    H123939   4.803   1.360   0.742  0.6189 -1.0753  0.2640
  816TIP3    H223940   4.837   1.337   0.596 -1.8423  1.4819 -0.8095
  817TIP3   OH223941   4.453   0.324   4.546  0.0651  0.3261 -0.0571
  817TIP3    H123942   4.505   0.402   4.528 -0.9796  0.8917 -0.7373
  817TIP3    H223943   4.368   0.342   4.506 -0.3692 -0.9429  0.2398
  818TIP3   OH223944   0.690   5.076   6.226  0.0580  0.0675 -0.0986
  818TIP3    H123945   0.772   5.056   6.272 -0.0355  0.7334  0.3710
  818TIP3    H223946   0.708   5.156   6.178  0.1461 -0.6207 -1.2350
  819TIP3   OH223947   0.198   4.020  15.279  0.4876 -0.1819 -0.1901
  819TIP3    H123948   0.139   3.996  15.208 -1.2541  2.5004  0.2024
  819TIP3    H223949   0.152   3.994  15.359  0.5422  0.4689  0.0643
  820TIP3   OH223950   2.239   5.490   6.643  0.0222 -0.3159  0.1629
  820TIP3    H123951   2.323   5.450   6.665  0.1844 -0.4176 -0.6064
  820TIP3    H223952   2.236   5.569   6.697  0.8212 -0.0770 -0.1174
  821TIP3   OH223953   5.618   6.747  12.207  0.2643  0.1007 -0.1969
  821TIP3    H123954   5.540   6.754  12.153 -1.0768 -1.1841  1.4555
  821TIP3    H223955   5.659   6.665  12.180  1.0792  0.7833 -1.0748
  822TIP3   OH223956   5.118   2.521  12.364 -0.0320  0.0542  0.1701
  822TIP3    H123957   5.090   2.606  12.330 -2.8144  0.1388  2.2786
  822TIP3    H223958   5.077   2.457  12.305 -0.2561  0.1850  0.1831
  823TIP3   OH223959   1.876   3.269  14.520 -0.3049  0.3066 -0.0894
  823TIP3    H123960   1.788   3.236  14.499  0.0056 -0.3683 -0.3535
  823TIP3    H223961   1.863   3.362  14.537 -0.7216  0.7671 -2.5033
  824TIP3   OH223962   0.823   6.075   3.522  0.2811  0.1199 -0.7321
  824TIP3    H123963   0.770   6.047   3.596  0.0829 -1.4369 -1.4095
  824TIP3    H223964   0.760   6.110   3.459  0.4166  1.1707 -0.2892
  825TIP3   OH223965   3.700   1.411   2.274  0.2475  0.0558 -0.5827
  825TIP3    H123966   3.714   1.431   2.367  1.2656 -1.6744 -0.3137
  825TIP3    H223967   3.627   1.468   2.248 -0.6561 -0.0457  1.5094
  826TIP3   OH223968   6.289   4.001   4.339  0.6726  0.6503 -0.1161
  826TIP3    H123969   6.294   4.081   4.287 -0.3810 -0.4460 -2.0006
  826TIP3    H223970   6.304   3.930   4.277 -0.1826 -0.7079  1.1519
  827TIP3   OH223971   2.399   2.883   3.958 -0.5070 -0.1469 -0.1031
  827TIP3    H123972   2.358   2.813   3.906  1.7859  0.1849 -2.5729
  827TIP3    H223973   2.445   2.837   4.028 -0.9197 -0.9060 -0.3096
  828TIP3   OH223974   4.328   4.087  15.331 -0.5026 -0.1536 -0.0722
  828TIP3    H123975   4.385   4.067  15.256 -0.0254  1.1832 -0.0850
  828TIP3    H223976   4.283   4.168  15.307  0.3543  0.8270  1.4405
  829TIP3   OH223977   0.983   1.857   2.739 -0.0464  0.0044  0.2385
  829TIP3    H123978   0.958   1.889   2.652 -1.1812 -1.1585  0.1086
  829TIP3    H223979   0.931   1.910   2.800  0.9923  1.0442  0.2473
  830TIP3   OH223980   0.816   0.484  16.700 -0.4248 -0.2358 -0.1509
  830TIP3    H123981   0.756   0.537  16.647 -0.4385 -0.3686 -0.2723
  830TIP3    H223982   0.892   0.470  16.643  0.1410  0.7392  0.3531
  831TIP3   OH223983   0.026   3.743  13.360 -0.0425  0.4596 -0.2915
  831TIP3    H123984   0.035   3.758  13.454  2.1664  1.3699 -0.5808
  831TIP3    H223985   0.033   3.648  13.349 -3.0567  0.0542  0.6420
  832TIP3   OH223986   5.037   6.598  14.573  0.2134  0.5616  0.1048
  832TIP3    H123987   5.121   6.565  14.542 -1.1958 -1.5211 -1.8814
  832TIP3    H223988   5.000   6.525  14.623 -0.5478  1.2913  0.6246
  833TIP3   OH223989   5.928   0.293  14.304 -0.1974  0.3086  0.2901
  833TIP3    H123990   5.953   0.287  14.396 -0.3886 -2.3269  0.2341
  833TIP3    H223991   5.832   0.299  14.306 -0.3059 -1.2274  0.2519
  834TIP3   OH223992   2.726   2.710   0.738 -0.3378 -0.5183 -0.0503
  834TIP3    H123993   2.660   2.646   0.765  1.7324 -2.0356  1.6432
  834TIP3    H223994   2.810   2.666   0.749  1.0359  1.3324 -2.1713
  835TIP3   OH223995   0.217   4.441   0.427 -0.2603 -0.1509 -0.2166
  835TIP3    H123996   0.284   4.432   0.359  1.1318 -1.1427  1.2411
  835TIP3    H223997   0.165   4.361   0.421  0.0132 -0.3464  0.0634
  836TIP3   OH223998   0.888   1.201   3.316  0.0788  0.4784  0.3585
  836TIP3    H123999   0.910   1.295   3.315 -2.2984  1.1081  1.0034
  836TIP3    H224000   0.862   1.183   3.226  2.3426 -0.1103 -0.2475
  837TIP3   OH224001   4.727   2.235  14.491  0.3004 -0.0638 -0.2468
  837TIP3    H124002   4.657   2.274  14.439 -0.7546 -1.4289  0.0933
  837TIP3    H224003   4.795   2.212  14.427 -0.9885 -1.7561 -1.1016
  838TIP3   OH224004   5.562   3.359  12.184  0.3918 -0.2654 -0.6252
  838TIP3    H124005   5.585   3.279  12.232 -1.6451 -0.5994 -0.1076
  838TIP3    H224006   5.539   3.328  12.097 -0.9218 -0.3540 -0.2693
  839TIP3   OH224007   1.614   4.751  10.451  0.0474  0.6125  0.1137
  839TIP3    H124008   1.575   4.669  10.484  0.3448  1.1501  1.9244
  839TIP3    H224009   1.687   4.723  10.396 -0.5407 -0.3520 -0.1964
  840TIP3   OH224010   1.195   2.436  14.646 -0.1529  0.0021  0.4556
  840TIP3    H124011   1.263   2.457  14.583  0.2397  0.8644  1.1363
  840TIP3    H224012   1.219   2.486  14.724 -1.8024  0.7092  0.5634
  841TIP3   OH224013   3.013   5.151  11.279  0.1357  0.2663 -0.3076
  841TIP3    H124014   3.092   5.205  11.276  0.2265  0.3947  2.4521
  841TIP3    H224015   2.955   5.192  11.215  1.3928  1.6295 -0.6487
  842TIP3   OH224016   3.159   1.711  11.749  0.7233  0.4410 -0.9444
  842TIP3    H124017   3.185   1.669  11.667 -0.1657 -0.7645 -0.6474
  842TIP3    H224018   3.142   1.802  11.725 -0.5200 -0.1202 -2.3457
  843TIP3   OH224019   5.233   3.365   2.433  0.1465 -0.4899  0.2187
  843TIP3    H124020   5.242   3.459   2.453 -0.3319 -0.7965  2.0493
  843TIP3    H224021   5.319   3.328   2.456 -0.7642 -1.0376  3.1694
  844TIP3   OH224022   1.616   1.308   6.185  0.1442 -0.2775 -0.2606
  844TIP3    H124023   1.599   1.214   6.189 -0.4725 -0.2838 -2.1139
  844TIP3    H224024   1.556   1.347   6.249  0.1123 -1.0904  0.2137
  845TIP3   OH224025   5.033   1.380  12.323  0.3425  0.5580  1.5093
  845TIP3    H124026   4.960   1.432  12.288  1.2198 -0.1773 -1.7201
  845TIP3    H224027   4.992   1.299  12.353 -0.2182 -0.0915 -0.8113
  846TIP3   OH224028   5.249   0.912   1.997 -0.3766  0.0363 -0.1407
  846TIP3    H124029   5.241   0.817   1.995 -0.3635  0.0328 -0.0527
  846TIP3    H224030   5.159   0.944   1.998 -0.3829  0.0158  0.1610
  847TIP3   OH224031   3.441   5.158   2.260 -0.5787  0.0543  0.6203
  847TIP3    H124032   3.361   5.210   2.268 -0.1783  1.1971 -1.8594
  847TIP3    H224033   3.409   5.070   2.236 -1.1703  0.8718 -1.9596
  848TIP3   OH224034   4.438   6.629   0.284 -0.1549 -0.2109 -0.4547
  848TIP3    H124035   4.492   6.596   0.212  0.6026 -1.4405  0.6283
  848TIP3    H224036   4.501   6.660   0.349 -0.8295  1.0764 -0.3698
  849TIP3   OH224037   6.490   2.469  11.870  0.0131 -0.3205  0.0867
  849TIP3    H124038   6.580   2.477  11.901 -0.3746  0.2206  1.1544
  849TIP3    H224039   6.452   2.401  11.925  0.1145 -1.5179 -1.2622
  850TIP3   OH224040   0.656   4.666   3.599  0.3388  0.0340 -0.4452
  850TIP3    H124041   0.749   4.669   3.619  0.4697 -0.0645 -1.0164
  850TIP3    H224042   0.646   4.586   3.547 -0.1026 -0.0808 -0.1852
  851TIP3   OH224043   0.468   6.145  16.543 -0.0407 -0.4476 -0.5686
  851TIP3    H124044   0.499   6.148  16.453  0.6879 -2.0428 -0.3974
  851TIP3    H224045   0.541   6.109  16.593 -0.6814 -0.2488  0.5527
  852TIP3   OH224046   0.532   1.081   1.328 -0.3825  0.2945  0.2380
  852TIP3    H124047   0.447   1.120   1.349  0.4432  2.8037 -0.6831
  852TIP3    H224048   0.542   1.094   1.234  0.2627 -1.6140  0.0114
  853TIP3   OH224049   6.114   6.611  16.584  0.0137  0.5300 -0.1188
  853TIP3    H124050   6.180   6.566  16.637  0.9748  2.8435  0.7828
  853TIP3    H224051   6.031   6.591  16.627  0.6129  1.0885  1.3506
  854TIP3   OH224052   1.121   1.812   0.128 -0.6238 -0.1799 -0.2733
  854TIP3    H124053   1.177   1.844   0.198  0.7976 -1.7048 -0.6528
  854TIP3    H224054   1.146   1.864   0.051 -1.0921  0.4194 -0.0362
  855TIP3   OH224055   3.983   5.074  14.027  0.1621 -0.4111 -0.5497
  855TIP3    H124056   4.071   5.104  14.051 -0.1018  0.2683 -0.4290
  855TIP3    H224057   3.955   5.133  13.957  0.4767 -1.6904 -1.8165
  856TIP3   OH224058   3.803   4.401  14.404  0.1010  1.0197 -0.2649
  856TIP3    H124059   3.875   4.370  14.349  0.3343  1.1364 -0.0321
  856TIP3    H224060   3.724   4.368  14.362  0.3783 -0.6692  0.4621
  857TIP3   OH224061   2.448   1.977   5.143  0.3519 -0.0973 -0.5118
  857TIP3    H124062   2.536   2.010   5.158  0.7242 -1.3441  0.2024
  857TIP3    H224063   2.426   1.930   5.224 -0.0556 -1.7443 -1.5274
  858TIP3   OH224064   5.364   2.450   3.109  0.6361  0.2130  0.1674
  858TIP3    H124065   5.300   2.516   3.133  0.1364  0.0583 -0.6778
  858TIP3    H224066   5.448   2.494   3.116  0.2811  1.0694 -0.7453
  859TIP3   OH224067   1.294   2.026  11.301  0.0415  0.4696 -0.3052
  859TIP3    H124068   1.250   1.989  11.225 -1.0518  0.0796  0.4785
  859TIP3    H224069   1.277   1.963  11.372 -1.2586  2.0542  0.8909
  860TIP3   OH224070   3.400   4.401  16.821 -0.3249  0.0572  0.6608
  860TIP3    H124071   3.436   4.360  16.900  0.6530 -0.5598 -0.0863
  860TIP3    H224072   3.305   4.391  16.830 -0.1969 -0.5312  1.4714
  861TIP3   OH224073   0.782   4.910   2.954 -0.6998  0.4117  0.2638
  861TIP3    H124074   0.739   4.977   2.899 -0.3905  0.2703 -0.1557
  861TIP3    H224075   0.760   4.827   2.912 -0.5763  0.2906  0.4385
  862TIP3   OH224076   1.555   2.921   2.369  0.3007  0.3241 -0.1034
  862TIP3    H124077   1.504   3.002   2.374  0.5120  0.4906 -0.6495
  862TIP3    H224078   1.560   2.901   2.276  3.1896  1.5685 -0.2988
  863TIP3   OH224079   6.256   4.617  12.044 -0.3724 -0.0808  0.1551
  863TIP3    H124080   6.241   4.647  11.954 -1.6478 -1.0302  0.0259
  863TIP3    H224081   6.304   4.535  12.034  1.0419  0.6699  0.4339
  864TIP3   OH224082   2.652   6.386  16.553  0.2987  0.3948  0.0256
  864TIP3    H124083   2.685   6.426  16.472 -0.4624  1.1909  0.0946
  864TIP3    H224084   2.703   6.306  16.563 -0.4740 -0.3824 -1.9158
  865TIP3   OH224085   2.551   6.486  12.985 -0.4810  0.2240  0.2662
  865TIP3    H124086   2.456   6.475  12.981 -0.4887 -0.0132  1.0555
  865TIP3    H224087   2.566   6.578  12.963 -0.7727 -0.1055 -1.4695
  866TIP3   OH224088   4.701   5.583   4.698 -0.4032  0.6312 -0.3813
  866TIP3    H124089   4.679   5.509   4.641 -0.9801 -0.8625  1.6905
  866TIP3    H224090   4.792   5.567   4.723 -0.2680  1.0847 -0.5727
  867TIP3   OH224091   0.953   3.900   5.465 -0.0727  0.2143 -0.6182
  867TIP3    H124092   0.918   3.865   5.547 -0.4736  0.3584 -0.7238
  867TIP3    H224093   0.980   3.990   5.486 -1.9742  0.9516 -1.0815
  868TIP3   OH224094   0.678   4.217   5.000 -0.1900  0.2566 -0.0712
  868TIP3    H124095   0.643   4.191   5.085 -0.9397 -0.4761 -0.5836
  868TIP3    H224096   0.669   4.312   4.998  0.7106  0.3885  1.0349
  869TIP3   OH224097   0.496   5.549   3.148 -0.5443 -0.7063 -0.3643
  869TIP3    H124098   0.500   5.482   3.080  1.2080 -0.6906 -0.3297
  869TIP3    H224099   0.470   5.501   3.227 -2.3000 -0.7724 -0.9568
  870TIP3   OH224100   3.286   2.962   0.397  0.0340  0.6074  0.2503
  870TIP3    H124101   3.319   2.963   0.487  2.6692 -1.7708 -0.5515
  870TIP3    H224102   3.208   2.907   0.400 -0.4789  1.3543  1.2037
  871TIP3   OH224103   4.670   5.506   3.365  0.4990 -0.5210 -0.2350
  871TIP3    H124104   4.589   5.499   3.416  0.4234  0.8834 -0.1001
  871TIP3    H224105   4.738   5.469   3.422  0.1756 -0.3689  0.2601
  872TIP3   OH224106   6.673   1.629  15.022  0.6459 -0.0298  0.9082
  872TIP3    H124107   6.585   1.593  15.034  1.3844 -2.3830 -0.0200
  872TIP3    H224108   6.727   1.579  15.082  1.5981  0.2503  0.3004
  873TIP3   OH224109   1.609   5.513   0.298  0.1441  0.0522  0.0142
  873TIP3    H124110   1.613   5.508   0.203 -0.3062  1.1462 -0.0814
  873TIP3    H224111   1.548   5.585   0.315 -0.1094 -0.4080  1.1303
  874TIP3   OH224112   3.199   4.325  15.544 -0.3707 -0.3662  0.4288
  874TIP3    H124113   3.156   4.268  15.607  1.5337 -0.8666  1.3432
  874TIP3    H224114   3.213   4.407  15.591 -0.8602  0.0144 -0.0718
  875TIP3   OH224115   3.893   5.181   1.500 -0.5413 -0.5196  1.2901
  875TIP3    H124116   3.859   5.092   1.509 -0.7708 -0.7471 -1.1585
  875TIP3    H224117   3.907   5.192   1.406  1.6008  1.2763  1.7365
  876TIP3   OH224118   5.129   5.507  15.387 -0.3872  0.4032  0.6607
  876TIP3    H124119   5.079   5.587  15.403  1.7794  1.5779  2.0570
  876TIP3    H224120   5.085   5.440  15.441 -3.0883  0.1382 -1.6022
  877TIP3   OH224121   0.699   3.662  11.387  0.8152  0.3459  0.3015
  877TIP3    H124122   0.642   3.676  11.312  2.1202  1.5900 -0.5110
  877TIP3    H224123   0.657   3.710  11.458  0.4751  0.6507 -0.0975
  878TIP3   OH224124   3.644   3.973  14.804 -0.0107  0.6322  0.9338
  878TIP3    H124125   3.577   4.040  14.816  0.2292  0.7885  1.4663
  878TIP3    H224126   3.680   3.989  14.717  0.0595  1.2102  1.0661
  879TIP3   OH224127   2.478   3.900  13.790  0.4505 -0.6061  0.0555
  879TIP3    H124128   2.459   3.911  13.697  1.0438 -0.6572 -0.0759
  879TIP3    H224129   2.405   3.848  13.823  0.6616 -1.3109 -0.5595
  880TIP3   OH224130   5.012   3.891   0.536 -0.3769  0.3661  0.4556
  880TIP3    H124131   5.023   3.983   0.510 -1.8300  0.9583  1.7576
  880TIP3    H224132   5.098   3.852   0.523  0.1211  1.7576 -0.6933
  881TIP3   OH224133   4.398   0.529   4.826  0.3492  0.0320 -0.4789
  881TIP3    H124134   4.380   0.436   4.816  0.6596  0.0914 -1.6822
  881TIP3    H224135   4.370   0.549   4.916  1.2567 -1.4233  0.1533
  882TIP3   OH224136   3.729   2.025   1.550 -0.0869 -0.0134 -0.9744
  882TIP3    H124137   3.633   2.025   1.556 -0.1876  0.9273 -2.1882
  882TIP3    H224138   3.757   2.088   1.616 -0.0782 -2.2287  1.3312
  883TIP3   OH224139   3.128   5.906  15.616  0.4153  0.0789  0.0961
  883TIP3    H124140   3.076   5.826  15.612  0.0379  0.3861 -1.8082
  883TIP3    H224141   3.133   5.926  15.710 -0.8214 -1.2864  0.4914
  884TIP3   OH224142   1.290   1.871  11.551  0.3267  0.6630 -0.4966
  884TIP3    H124143   1.237   1.793  11.566 -1.0296  1.6895  0.1939
  884TIP3    H224144   1.378   1.845  11.580  0.1482 -0.9275 -1.2769
  885TIP3   OH224145   2.380   4.536   0.558  0.1388 -0.3748 -0.1694
  885TIP3    H124146   2.452   4.478   0.581  0.7217 -0.6937 -2.4829
  885TIP3    H224147   2.315   4.479   0.516 -1.5574 -0.1063  1.9367
  886TIP3   OH224148   5.732   1.507   1.721  0.0098  0.2361 -0.3073
  886TIP3    H124149   5.727   1.599   1.698 -2.3567  0.8230  2.0826
  886TIP3    H224150   5.763   1.506   1.811 -0.5190 -1.2552 -0.1116
  887TIP3   OH224151   2.849   4.840  15.804  0.4953  0.1314 -0.5607
  887TIP3    H124152   2.767   4.847  15.854  0.5520 -2.2862 -0.0224
  887TIP3    H224153   2.821   4.826  15.714  0.3597  0.8710 -0.6419
  888TIP3   OH224154   6.173   5.443   3.731 -0.4236 -0.0460  0.6041
  888TIP3    H124155   6.161   5.533   3.761  1.3870  0.0214  1.2131
  888TIP3    H224156   6.240   5.407   3.788 -0.4030 -1.4809 -0.2782
  889TIP3   OH224157   4.090   4.815  13.509  0.2233  0.2973 -0.1957
  889TIP3    H124158   4.088   4.856  13.595  0.0225 -0.5009  0.1913
  889TIP3    H224159   4.003   4.776  13.499  1.3060 -2.6614  0.7792
  890TIP3   OH224160   1.601   1.868  12.392  0.0348 -0.0402  0.3126
  890TIP3    H124161   1.681   1.846  12.345  0.7210 -1.0123  1.8414
  890TIP3    H224162   1.580   1.957  12.364  1.4726  0.1252 -0.3411
  891TIP3   OH224163   5.785   4.912   1.350 -0.0906  0.0845 -0.3341
  891TIP3    H124164   5.766   4.832   1.301  1.5554 -0.9937  0.6850
  891TIP3    H224165   5.780   4.982   1.284 -1.0780 -0.8974 -1.3452
  892TIP3   OH224166   4.267   4.223  14.165  0.4346 -0.3549  0.8805
  892TIP3    H124167   4.320   4.301  14.181  0.5460  0.5377 -2.8766
  892TIP3    H224168   4.205   4.249  14.097 -2.2174 -2.5286  2.2447
  893TIP3   OH224169   1.635   4.368   3.945 -0.3619  0.0397  0.4466
  893TIP3    H124170   1.718   4.347   3.989  0.2105 -0.5919 -0.8826
  893TIP3    H224171   1.577   4.296   3.967 -0.3953  0.2083  0.9340
  894TIP3   OH224172   6.738   5.800   6.199  0.1908 -0.0967  0.1903
  894TIP3    H124173   6.700   5.862   6.262  1.8174  1.0296  0.0933
  894TIP3    H224174   6.820   5.772   6.240  0.0798 -1.2611 -0.3428
  895TIP3   OH224175   1.536   2.746  13.231 -0.2213  0.0715  0.1476
  895TIP3    H124176   1.526   2.838  13.257 -1.7116 -0.7735  2.9396
  895TIP3    H224177   1.447   2.718  13.209  0.0791 -0.9659  0.2372
  896TIP3   OH224178   0.994   5.592  14.589 -0.2722 -0.2984  0.3104
  896TIP3    H124179   1.062   5.534  14.622 -0.1860 -1.1790 -1.3235
  896TIP3    H224180   0.912   5.545  14.607 -0.2128 -0.8915 -0.8373
  897TIP3   OH224181   5.819   1.985   3.998  0.0191  0.2063 -0.0880
  897TIP3    H124182   5.799   1.996   4.091  0.7595  0.0909  0.0905
  897TIP3    H224183   5.904   1.941   3.997 -1.4838 -2.9909 -0.7741
  898TIP3   OH224184   2.509   5.281   3.827 -0.2459 -0.1639 -0.4807
  898TIP3    H124185   2.548   5.368   3.834  1.2060 -0.5375 -2.8763
  898TIP3    H224186   2.554   5.229   3.894  2.2512 -0.1358 -2.0188
  899TIP3   OH224187   0.842   0.987   2.226 -0.3046  0.1240  0.5929
  899TIP3    H124188   0.793   0.913   2.261 -0.0057  0.1254  1.0207
  899TIP3    H224189   0.929   0.979   2.264  0.1354 -0.0608 -0.4046
  900TIP3   OH224190   4.717   3.306   1.611  0.1626 -0.4335  0.3692
  900TIP3    H124191   4.773   3.318   1.534  0.4469  0.2436  0.6801
  900TIP3    H224192   4.715   3.391   1.654  0.3006 -0.8950  1.3180
  901TIP3   OH224193   3.511   1.800  16.174 -0.0658  0.4933  0.3212
  901TIP3    H124194   3.604   1.819  16.160 -0.1352  0.5368 -0.0985
  901TIP3    H224195   3.480   1.871  16.230 -0.2746  1.5492 -1.0663
  902TIP3   OH224196   0.361   2.334   4.551  0.2273 -0.5187 -0.2648
  902TIP3    H124197   0.404   2.337   4.466 -0.0552  0.4741 -0.3856
  902TIP3    H224198   0.277   2.379   4.537 -0.6828 -2.0257  0.0631
  903TIP3   OH224199   1.769   6.654   2.851  0.0414  0.5130 -0.4864
  903TIP3    H124200   1.719   6.711   2.910  0.5190 -0.2807  0.6990
  903TIP3    H224201   1.716   6.651   2.771 -0.1052  2.4430 -0.5215
  904TIP3   OH224202   5.448   3.859  13.785  0.4118  0.3724  0.3034
  904TIP3    H124203   5.511   3.903  13.729  2.1584 -0.9108  1.1415
  904TIP3    H224204   5.445   3.769  13.752  0.0975  0.0581  1.1391
  905TIP3   OH224205   3.550   3.741  14.520  0.0945  0.5952 -0.4147
  905TIP3    H124206   3.520   3.662  14.475  2.0556 -1.2109  1.2431
  905TIP3    H224207   3.482   3.761  14.583  0.6964 -1.4596  1.0044
  906TIP3   OH224208   2.205   2.157  13.158 -0.4349 -0.7084 -0.5569
  906TIP3    H124209   2.212   2.114  13.073  0.7870 -1.5957 -0.0466
  906TIP3    H224210   2.277   2.220  13.159 -0.8430 -0.2404 -0.4265
  907TIP3   OH224211   3.699   3.798  10.873  0.1847 -0.1271 -0.1051
  907TIP3    H124212   3.687   3.783  10.780  1.2212  1.0570 -0.4572
  907TIP3    H224213   3.712   3.893  10.881  0.1197 -0.2101  1.2371
  908TIP3   OH224214   6.555   5.734  17.209 -0.0378  0.5277  0.0427
  908TIP3    H124215   6.513   5.725  17.294  1.7903 -0.7969  0.8891
  908TIP3    H224216   6.554   5.828  17.191 -2.2835  0.6357  0.5183
  909TIP3   OH224217   2.101   6.665  12.712 -0.0650 -0.6749 -0.1414
  909TIP3    H124218   2.068   6.755  12.716  0.5259 -0.4757  0.5249
  909TIP3    H224219   2.022   6.610  12.715 -0.4604 -0.1751 -1.1398
  910TIP3   OH224220   6.183   6.745  14.970 -0.4091  0.0751 -0.9152
  910TIP3    H124221   6.221   6.725  15.056 -0.3836  1.7004 -0.5056
  910TIP3    H224222   6.207   6.671  14.915 -1.0831 -1.3896  0.6678
  911TIP3   OH224223   4.054   5.165  13.641 -0.0091 -0.7006  0.1316
  911TIP3    H124224   4.013   5.084  13.674 -1.7262  0.4862  1.0629
  911TIP3    H224225   4.006   5.235  13.685  2.8958  0.8352  1.0858
  912TIP3   OH224226   6.186   0.401  13.382  0.6889  0.0288 -0.1906
  912TIP3    H124227   6.206   0.494  13.391 -1.3767  0.5655 -0.5965
  912TIP3    H224228   6.162   0.390  13.290  0.3634 -0.7691 -0.0245
  913TIP3   OH224229   1.237   6.363   6.481 -0.5326 -0.0641 -0.0231
  913TIP3    H124230   1.158   6.344   6.429 -1.2402 -0.0573  1.0071
  913TIP3    H224231   1.210   6.345   6.571  0.1374  1.5084  0.5300
  914TIP3   OH224232   6.500   0.367   2.959 -0.3447 -0.0784  0.9941
  914TIP3    H124233   6.423   0.416   2.931 -1.2235 -0.0910  3.1569
  914TIP3    H224234   6.467   0.280   2.982  0.8806 -1.1532 -0.9517
  915TIP3   OH224235   5.622   6.524  11.976 -0.0938 -0.5749 -0.1922
  915TIP3    H124236   5.631   6.595  11.913  0.8556  0.1271  0.6893
  915TIP3    H224237   5.560   6.463  11.936 -0.9035  0.7347 -0.9815
  916TIP3   OH224238   3.186   5.360  12.524 -0.4360 -0.4356  0.4133
  916TIP3    H124239   3.247   5.286  12.523 -2.0724 -1.8411  0.2716
  916TIP3    H224240   3.235   5.432  12.484  1.0973 -1.5039  0.2695
  917TIP3   OH224241   4.671   4.547  14.738 -0.0440 -0.0078 -0.3546
  917TIP3    H124242   4.742   4.540  14.802  0.4761  0.9038 -0.8206
  917TIP3    H224243   4.639   4.637  14.745 -1.1044 -0.3785 -0.2171
  918TIP3   OH224244   1.501   6.591   5.427  0.7170 -0.9895 -0.3098
  918TIP3    H124245   1.556   6.669   5.432  1.0627 -1.3046  1.6648
  918TIP3    H224246   1.521   6.543   5.507 -1.7919 -1.5642  0.0551
  919TIP3   OH224247   2.480   5.091  15.066 -0.0744  0.4059  0.1234
  919TIP3    H124248   2.392   5.067  15.095 -0.5083 -0.5948 -1.8197
  919TIP3    H224249   2.481   5.187  15.067 -2.3458  0.6016 -2.6961
  920TIP3   OH224250   3.582   1.866   2.238  0.3894  0.1140 -0.2690
  920TIP3    H124251   3.659   1.871   2.181  1.0430 -1.5574  0.4183
  920TIP3    H224252   3.575   1.954   2.276  4.0487 -0.4314  2.2548
  921TIP3   OH224253   3.885   1.278  14.362  0.1614 -0.4735 -0.4002
  921TIP3    H124254   3.977   1.269  14.386  0.4966 -1.2604 -1.8749
  921TIP3    H224255   3.840   1.212  14.414  0.3379  0.2212  0.6718
  922TIP3   OH224256   1.700   1.724   5.604 -0.5874  0.5335  0.1181
  922TIP3    H124257   1.627   1.775   5.640  0.4549  1.4034  1.0357
  922TIP3    H224258   1.775   1.782   5.608  0.5196 -0.8782  0.6604
  923TIP3   OH224259   5.888   0.508   4.028 -0.2917  0.3859 -0.4975
  923TIP3    H124260   5.810   0.512   3.972  1.2578  0.6448 -2.7697
  923TIP3    H224261   5.882   0.585   4.084 -0.7140  1.4962 -2.0150
  924TIP3   OH224262   5.312   2.551   1.816  0.3038 -0.3926 -0.3309
  924TIP3    H124263   5.368   2.622   1.787  0.7673 -1.0359 -1.0397
  924TIP3    H224264   5.341   2.533   1.906 -0.7358  1.2009  0.3710
  925TIP3   OH224265   2.046   5.031   4.304  0.4280 -0.3956  0.6929
  925TIP3    H124266   1.985   4.980   4.249 -0.7160  3.1919 -1.7058
  925TIP3    H224267   1.988   5.081   4.363  1.0792  1.5981 -0.2783
  926TIP3   OH224268   3.592   0.338  16.421  0.3864 -0.3750  0.3250
  926TIP3    H124269   3.667   0.396  16.427  2.0511 -2.2071 -1.2633
  926TIP3    H224270   3.518   0.396  16.402  1.9062  1.2646 -0.9170
  927TIP3   OH224271   6.293   5.038   1.522 -0.4370  0.3478 -0.5273
  927TIP3    H124272   6.363   5.051   1.586  0.8069  3.2063 -2.2874
  927TIP3    H224273   6.332   5.065   1.438 -3.0461  0.0652 -1.9308
  928TIP3   OH224274   2.994   1.403   2.095 -0.2819 -0.2244 -0.5031
  928TIP3    H124275   2.998   1.481   2.151  1.5001  1.5434 -2.8638
  928TIP3    H224276   2.908   1.408   2.054  0.0845  0.9793 -1.1817
  929TIP3   OH224277   0.142   4.034   3.827  0.2258 -0.3869  0.1000
  929TIP3    H124278   0.164   4.014   3.918  1.0547 -1.4568 -0.3118
  929TIP3    H224279   0.209   3.988   3.776 -1.2436 -1.2397 -1.1191
  930TIP3   OH224280   2.338   5.957  15.473  0.1866  0.1153  0.4765
  930TIP3    H124281   2.338   6.034  15.416  0.5766  0.2005  0.5931
  930TIP3    H224282   2.255   5.963  15.521  1.1042  1.5746  1.9726
  931TIP3   OH224283   1.166   3.386  13.215  0.9673  0.2664 -0.0641
  931TIP3    H124284   1.162   3.337  13.297 -0.6438  1.5847  0.6915
  931TIP3    H224285   1.251   3.361  13.177  1.6742 -0.5158  1.8890
  932TIP3   OH224286   2.595   1.840   4.957  0.3184 -0.2505  0.1055
  932TIP3    H124287   2.684   1.842   4.990  0.5415 -0.7704 -0.4511
  932TIP3    H224288   2.545   1.891   5.021  1.2397  1.1966 -0.2827
  933TIP3   OH224289   4.512   6.000  14.225  0.5152 -0.1853  0.1286
  933TIP3    H124290   4.469   5.993  14.310  0.3140 -2.6862 -0.1083
  933TIP3    H224291   4.605   5.982  14.243  0.7528  0.9170  0.0374
  934TIP3   OH224292   1.045   5.214  11.791  0.5044  0.0158  0.4004
  934TIP3    H124293   1.047   5.303  11.826 -0.1618 -0.6040  2.1526
  934TIP3    H224294   1.006   5.223  11.704  0.0276  1.3805  0.7335
  935TIP3   OH224295   6.533   5.249   4.385 -0.3816 -0.1273  0.0877
  935TIP3    H124296   6.538   5.162   4.344  0.9820 -0.1116  0.1695
  935TIP3    H224297   6.466   5.296   4.335  0.3664 -0.5214 -1.3286
  936TIP3   OH224298   4.244   0.584  17.167 -0.1351 -0.1027 -0.2533
  936TIP3    H124299   4.182   0.511  17.179 -1.3217  0.4727 -2.3987
  936TIP3    H224300   4.300   0.580  17.245 -1.7619 -1.7255  0.9438
  937TIP3   OH224301   3.683   3.355   0.767 -0.2551  0.3890  0.0615
  937TIP3    H124302   3.591   3.381   0.764 -0.3154  0.3983  1.5352
  937TIP3    H224303   3.696   3.322   0.856  1.6687  2.2593  0.5545
  938TIP3   OH224304   2.342   6.451   6.125 -0.0218  0.3080 -0.6041
  938TIP3    H124305   2.372   6.488   6.042 -0.3071  0.3042 -0.7083
  938TIP3    H224306   2.332   6.357   6.107  2.4077 -0.1818  0.1248
  939TIP3   OH224307   4.448   2.059  12.350 -0.0719  0.8668 -0.6694
  939TIP3    H124308   4.435   2.130  12.413 -1.7027  0.9719 -1.0976
  939TIP3    H224309   4.392   1.989  12.382 -0.0658  0.5235 -1.4138
  940TIP3   OH224310   6.141   0.607  17.254 -0.0329 -0.4956  0.4166
  940TIP3    H124311   6.173   0.539  17.195 -0.6280 -1.9627  1.7098
  940TIP3    H224312   6.219   0.633  17.304 -0.0136 -1.1186  0.7330
  941TIP3   OH224313   4.699   2.329   2.673  0.3491  0.1572  0.3453
  941TIP3    H124314   4.793   2.344   2.665  0.3721  0.4178  1.0586
  941TIP3    H224315   4.685   2.243   2.633  0.3702  1.5024 -2.8866
  942TIP3   OH224316   6.688   4.561   2.542  0.7113 -0.4848 -0.2504
  942TIP3    H124317   6.721   4.473   2.558  1.0393 -0.7717 -2.2457
  942TIP3    H224318   6.766   4.615   2.531  0.5225 -0.2430 -0.4468
  943TIP3   OH224319   3.706   6.526   1.309 -0.3534  0.3115 -0.6005
  943TIP3    H124320   3.634   6.551   1.367 -0.8164 -1.3701 -0.4118
  943TIP3    H224321   3.780   6.511   1.368 -0.5459 -0.3979 -0.5288
  944TIP3   OH224322   0.123   3.853   0.491 -0.0267 -0.2292  0.0391
  944TIP3    H124323   0.152   3.762   0.496 -0.0172 -0.2217  0.1219
  944TIP3    H224324   0.038   3.853   0.534 -0.7538 -0.5038 -1.3224
  945TIP3   OH224325   3.250   5.543   4.460  0.0731  0.1946  0.3687
  945TIP3    H124326   3.344   5.530   4.468  0.2593  0.4409 -1.1070
  945TIP3    H224327   3.225   5.593   4.538  1.1544  0.1609  0.7447
  946TIP3   OH224328   3.502   5.565   2.500  0.5087 -0.0740  0.4484
  946TIP3    H124329   3.434   5.599   2.558 -0.7738  0.5102 -1.3173
  946TIP3    H224330   3.486   5.471   2.497 -1.0002  0.1710 -0.8055
  947TIP3   OH224331   1.720   2.673   5.901  0.5761 -0.1933  0.4909
  947TIP3    H124332   1.699   2.736   5.971 -0.4121 -0.8395  0.7837
  947TIP3    H224333   1.796   2.712   5.857  1.6051 -0.0312  2.2716
  948TIP3   OH224334   2.684   2.508  14.344  0.3523 -0.3971 -0.7070
  948TIP3    H124335   2.684   2.422  14.302 -1.3067 -0.0936 -1.4271
  948TIP3    H224336   2.769   2.514  14.387  0.2443 -2.7060 -0.0048
  949TIP3   OH224337   1.902   5.089   6.054 -0.1763 -0.0503  0.3597
  949TIP3    H124338   1.961   5.014   6.059 -0.5893 -0.4933 -1.1096
  949TIP3    H224339   1.817   5.055   6.080  0.0192  0.4051  1.6861
  950TIP3   OH224340   1.048   4.066  16.161  0.3770  0.2556 -0.1142
  950TIP3    H124341   1.056   4.113  16.244  0.0925 -0.1988  0.1698
  950TIP3    H224342   0.993   4.122  16.107 -0.3240  0.0459  0.3763
  951TIP3   OH224343   5.686   5.739  16.682  0.1874 -0.2203  0.1464
  951TIP3    H124344   5.753   5.762  16.746 -0.4493  2.4043 -0.0259
  951TIP3    H224345   5.719   5.773  16.599 -2.2972  3.5337  0.4431
  952TIP3   OH224346   3.818   5.000  15.778  1.0280  0.4591  0.2009
  952TIP3    H124347   3.866   5.038  15.852  1.5495 -1.3577  0.8410
  952TIP3    H224348   3.787   4.915  15.810  0.7231 -0.0979 -1.4660
  953TIP3   OH224349   0.469   1.040  15.494 -0.4159  0.1039  0.4420
  953TIP3    H124350   0.517   1.018  15.574 -3.2148 -0.7384  2.0192
  953TIP3    H224351   0.482   1.134  15.483  1.4634 -0.0692  0.8073
  954TIP3   OH224352   4.718   5.591   5.004 -0.5577 -0.1933  0.3979
  954TIP3    H124353   4.668   5.608   5.084 -1.9705 -0.4903 -0.3998
  954TIP3    H224354   4.660   5.538   4.950  1.4030 -2.3461  0.2658
  955TIP3   OH224355   2.465   1.861  11.753  0.0119  0.3076 -0.0071
  955TIP3    H124356   2.434   1.901  11.835  2.9407  1.7661  0.5157
  955TIP3    H224357   2.490   1.772  11.779 -0.1028  0.3950  0.4236
  956TIP3   OH224358   4.480   2.547   4.874 -0.2662 -0.0646  0.4712
  956TIP3    H124359   4.417   2.617   4.860 -1.0032 -0.8429 -0.2174
  956TIP3    H224360   4.485   2.502   4.790  4.1776  2.2756 -0.8399
  957TIP3   OH224361   0.142   3.393  15.532  0.2246 -0.5716 -0.1024
  957TIP3    H124362   0.157   3.479  15.493  1.8989 -0.1927  1.2237
  957TIP3    H224363   0.052   3.370  15.509  0.1054  1.0556 -1.3656
  958TIP3   OH224364   4.838   1.744  11.827  0.3149  0.1309  0.6359
  958TIP3    H124365   4.926   1.758  11.791  0.0807 -1.0212 -0.4655
  958TIP3    H224366   4.779   1.775  11.758 -0.1633  1.1698  1.4849
  959TIP3   OH224367   3.054   6.742  15.927 -0.0367  0.5951  0.0610
  959TIP3    H124368   2.964   6.770  15.938 -0.5389 -0.2818 -1.5106
  959TIP3    H224369   3.079   6.773  15.840 -1.1374 -4.7401 -2.5655
  960TIP3   OH224370   5.493   2.541   3.611 -0.0526 -0.3908 -0.3780
  960TIP3    H124371   5.416   2.535   3.668 -0.1299  0.8132 -0.3389
  960TIP3    H224372   5.548   2.468   3.638 -0.3825 -0.2145  0.8105
  961TIP3   OH224373   0.965   1.945   5.150  0.2400  0.4218 -0.4153
  961TIP3    H124374   1.033   1.981   5.093 -0.3702  0.1209 -1.3555
  961TIP3    H224375   0.886   1.944   5.096 -1.4274  3.8368  1.6053
  962TIP3   OH224376   4.695   2.124   6.095 -0.4331  0.3590 -0.0283
  962TIP3    H124377   4.738   2.173   6.165  0.5640  0.1927 -0.5029
  962TIP3    H224378   4.740   2.153   6.015 -1.2842  0.2547 -0.5584
  963TIP3   OH224379   0.881   4.693   2.789 -0.2289 -0.3210 -0.0608
  963TIP3    H124380   0.974   4.713   2.801 -0.3912  2.7030 -2.6158
  963TIP3    H224381   0.880   4.611   2.739  1.1082  0.0220 -0.6803
  964TIP3   OH224382   6.414   5.470  12.959  0.3109  0.0447  0.2292
  964TIP3    H124383   6.425   5.468  13.054  0.1193  0.5926  0.2667
  964TIP3    H224384   6.493   5.428  12.925  1.0970  1.1713  0.5945
  965TIP3   OH224385   4.379   0.034  17.200  0.1144 -0.1345  0.2981
  965TIP3    H124386   4.420  -0.031  17.143  0.9535  1.6092 -1.1774
  965TIP3    H224387   4.311   0.074  17.146  0.3695  0.9824  0.7741
  966TIP3   OH224388   4.994   1.371   2.461 -0.1541 -0.0291 -0.2920
  966TIP3    H124389   4.939   1.448   2.476  0.8955  0.6805  0.0230
  966TIP3    H224390   5.045   1.394   2.383  0.4069 -0.2765  0.0058
  967TIP3   OH224391   4.115   1.400   1.863  0.2640 -0.2352  0.7349
  967TIP3    H124392   4.042   1.372   1.807  0.6618 -1.1683  0.6653
  967TIP3    H224393   4.079   1.471   1.916 -0.9579 -1.2525  1.3278
  968TIP3   OH224394   6.305   3.168  13.428 -0.0745 -0.1026 -0.3385
  968TIP3    H124395   6.364   3.102  13.393 -1.5356 -1.4005 -0.4607
  968TIP3    H224396   6.259   3.202  13.351 -0.1211  0.2543 -0.1534
  969TIP3   OH224397   0.113   4.482   2.799  0.1537 -0.1110 -0.0200
  969TIP3    H124398   0.185   4.460   2.857  0.1323 -0.3212 -0.0733
  969TIP3    H224399   0.131   4.434   2.719 -0.2789 -0.5167  0.1226
  970TIP3   OH224400   1.587   6.451  13.673 -0.0297 -0.5781  0.3223
  970TIP3    H124401   1.580   6.541  13.703 -0.9339 -0.7499  0.6568
  970TIP3    H224402   1.609   6.401  13.752  1.4036 -0.5390 -0.0331
  971TIP3   OH224403   4.506   6.150  16.753 -0.5657 -0.3984 -0.0220
  971TIP3    H124404   4.513   6.217  16.821  0.6123 -0.2462 -0.2747
  971TIP3    H224405   4.448   6.190  16.687  0.5077  0.6008 -0.3985
  972TIP3   OH224406   1.873   5.253  13.429 -0.0879  0.4978 -0.3089
  972TIP3    H124407   1.914   5.263  13.515 -0.5619  3.5986 -0.3381
  972TIP3    H224408   1.853   5.342  13.402 -2.5065 -0.5722 -2.4079
  973TIP3   OH224409   3.046   5.865   0.226  0.6417  0.4028 -0.3274
  973TIP3    H124410   2.983   5.797   0.247  1.0230 -0.1474 -0.9241
  973TIP3    H224411   2.997   5.928   0.173  0.7713 -0.4175 -1.4560
  974TIP3   OH224412   0.475   4.799  11.927 -0.1423  0.3444 -0.1070
  974TIP3    H124413   0.415   4.830  11.995  1.6495  3.6138  0.1734
  974TIP3    H224414   0.461   4.858  11.853  1.5911  0.1803 -0.6112
  975TIP3   OH224415   2.420   1.946   0.885  0.2999 -0.3219  0.0523
  975TIP3    H124416   2.432   1.997   0.805  0.3305  0.4863  0.5607
  975TIP3    H224417   2.423   2.011   0.956 -5.0582 -0.1229  0.5075
  976TIP3   OH224418   4.792   1.455   3.006 -0.2347 -0.0121 -0.0254
  976TIP3    H124419   4.792   1.541   2.963 -1.4406 -0.6442 -1.3679
  976TIP3    H224420   4.809   1.475   3.098  3.5293  1.3134 -0.8343
  977TIP3   OH224421   0.493   4.131  15.138  0.4539 -0.4373  0.0683
  977TIP3    H124422   0.491   4.146  15.044  3.0441  1.6529  0.2217
  977TIP3    H224423   0.427   4.190  15.174  0.6428  0.0495 -0.3650
  978TIP3   OH224424   1.152   2.931   0.495  0.6903 -0.3035  0.0463
  978TIP3    H124425   1.234   2.945   0.543  0.0409  1.2695  0.7681
  978TIP3    H224426   1.090   2.990   0.537 -1.4366 -2.9633  0.9475
  979TIP3   OH224427   4.412   0.017   2.515  0.5293  0.3333 -0.0190
  979TIP3    H124428   4.453  -0.035   2.445 -0.0369 -1.1720  0.7115
  979TIP3    H224429   4.443  -0.024   2.596 -2.7860 -1.3354  0.5831
  980TIP3   OH224430   6.367   1.648   1.757 -0.3723  0.0544 -0.1238
  980TIP3    H124431   6.283   1.651   1.710 -0.1420  3.1334 -0.5870
  980TIP3    H224432   6.420   1.586   1.707 -2.4208 -2.3267  0.4462
  981TIP3   OH224433   0.400   1.514   4.881  0.3107  0.0128  0.2552
  981TIP3    H124434   0.344   1.452   4.928  2.1083 -1.3135  0.7636
  981TIP3    H224435   0.399   1.484   4.790 -1.0505  0.9748 -0.0714
  982TIP3   OH224436   3.635   5.362  16.477  0.3839  0.2196  0.1317
  982TIP3    H124437   3.611   5.401  16.561  0.9842  0.6889  0.0948
  982TIP3    H224438   3.730   5.374  16.472  0.4135 -0.2067 -0.4142
  983TIP3   OH224439   5.772   1.776  16.500  0.7403  0.5077  0.4576
  983TIP3    H124440   5.712   1.845  16.530 -0.5536 -0.6189  0.5705
  983TIP3    H224441   5.836   1.822  16.446 -0.4353  1.7199  0.0241
  984TIP3   OH224442   5.422   0.782  13.748 -0.4162 -0.1064 -0.2952
  984TIP3    H124443   5.507   0.740  13.736  0.1617  0.9668  0.0113
  984TIP3    H224444   5.377   0.767  13.664  1.3278  2.1287 -1.7530
  985TIP3   OH224445   2.402   3.840  15.225 -0.3668 -0.1873  0.1644
  985TIP3    H124446   2.385   3.794  15.307 -0.2783 -0.0066  0.2842
  985TIP3    H224447   2.496   3.828  15.210 -0.2219  0.4934  0.5232
  986TIP3   OH224448   5.490   2.518   3.922 -0.0536 -0.8467  0.4576
  986TIP3    H124449   5.507   2.612   3.909 -1.0476 -0.6480  0.4759
  986TIP3    H224450   5.546   2.493   3.995 -0.3354 -0.0793  0.9473
  987TIP3   OH224451   4.641   6.683   0.460 -0.4022  0.2279  0.3257
  987TIP3    H124452   4.637   6.673   0.555 -2.1367  0.6255  0.3345
  987TIP3    H224453   4.684   6.767   0.446  0.5359 -0.1741  0.7131
  988TIP3   OH224454   5.084   5.678  11.213  0.2070 -0.3288  0.2289
  988TIP3    H124455   5.089   5.703  11.121 -0.1820 -0.7281  0.0928
  988TIP3    H224456   5.165   5.711  11.252  0.4326 -0.2701 -0.2843
  989TIP3   OH224457   5.759   4.087  14.158  0.0906  0.1008 -0.3861
  989TIP3    H124458   5.762   4.031  14.080 -0.3419 -1.1388  0.4500
  989TIP3    H224459   5.850   4.097  14.184  0.2655  0.8243 -1.2465
  990TIP3   OH224460   2.417   4.757   3.929  0.4424  0.3180  0.5554
  990TIP3    H124461   2.378   4.788   4.011 -0.7212 -1.2647  0.6275
  990TIP3    H224462   2.510   4.778   3.938  0.1458  1.2732  1.7411
  991TIP3   OH224463   4.653   6.635  12.054  0.4591 -0.3827  0.2275
  991TIP3    H124464   4.679   6.686  12.130  1.7333  0.2982 -0.6205
  991TIP3    H224465   4.707   6.670  11.982  1.8608 -3.3090 -0.2804
  992TIP3   OH224466   6.669   3.392   2.071 -0.4581  0.0111  0.3491
  992TIP3    H124467   6.727   3.398   2.147 -0.3038  1.2320  0.1518
  992TIP3    H224468   6.729   3.383   1.997 -0.5975 -4.4760  0.5099
  993TIP3   OH224469   5.077   4.332  15.809 -0.3243 -0.0511 -0.3813
  993TIP3    H124470   4.986   4.359  15.793  0.5843  2.8653 -1.3727
  993TIP3    H224471   5.099   4.276  15.734 -0.9597  0.2015 -0.7655
  994TIP3   OH224472   0.683   3.859  17.107 -0.1021  0.5304 -0.2328
  994TIP3    H124473   0.698   3.782  17.053 -0.6373 -0.7441  1.3780
  994TIP3    H224474   0.588   3.870  17.109 -0.0551  0.9314 -0.0578
  995TIP3   OH224475   4.435   0.102  14.491 -0.1412  0.2761 -0.3310
  995TIP3    H124476   4.392   0.185  14.468  1.8788  0.9402 -1.9819
  995TIP3    H224477   4.506   0.093  14.427  1.5034 -1.2891  1.5914
  996TIP3   OH224478   6.641   5.529   1.003  0.3383  0.1018 -0.3086
  996TIP3    H124479   6.553   5.557   0.976 -0.0913 -1.0328 -0.1479
  996TIP3    H224480   6.690   5.610   1.012 -0.8887  0.8197  0.2669
  997TIP3   OH224481   5.495   5.706  13.230  0.2724 -0.4377 -0.1111
  997TIP3    H124482   5.578   5.677  13.192  0.1872 -1.7915  0.6760
  997TIP3    H224483   5.519   5.748  13.312  0.2474 -0.0551 -0.3002
  998TIP3   OH224484   4.893   0.565   4.692 -0.0296  0.1400 -0.1222
  998TIP3    H124485   4.813   0.597   4.733 -1.1096 -1.2374 -1.0816
  998TIP3    H224486   4.914   0.485   4.741  0.3788  0.1103 -0.3405
  999TIP3   OH224487   5.358   5.923   5.589  0.2142 -0.2132  0.6112
  999TIP3    H124488   5.398   5.963   5.513 -1.9350  0.7552 -0.0884
  999TIP3    H224489   5.267   5.952   5.587  0.4566  1.5715  4.6709
 1000TIP3   OH224490   6.347   0.867   0.798  0.1997 -0.4563  0.8513
 1000TIP3    H124491   6.340   0.836   0.707  0.3094  1.8065  0.0196
 1000TIP3    H224492   6.260   0.852   0.835 -0.1572 -0.4344  0.0468
 1001TIP3   OH224493   1.901   1.406  12.885 -0.1471  0.5548  0.3499
 1001TIP3    H124494   1.922   1.497  12.904 -1.3627  0.9488 -0.0621
 1001TIP3    H224495   1.978   1.356  12.914  0.2299  1.6302  1.2629
 1002TIP3   OH224496   5.557   2.043  16.150 -0.7048  0.6239  0.0848
 1002TIP3    H124497   5.475   2.061  16.196 -0.4856 -0.0053  0.7242
 1002TIP3    H224498   5.581   2.127  16.110 -2.0409  0.6408 -0.7292
 1003TIP3   OH224499   4.876   5.689  16.098  0.1700  0.2592 -0.5829
 1003TIP3    H124500   4.969   5.688  16.123 -0.2812  0.1326  1.2216
 1003TIP3    H224501   4.842   5.605  16.127 -0.8796  0.9736  0.3524
 1004TIP3   OH224502   5.100   0.068  17.215 -0.2266 -0.0125 -0.3162
 1004TIP3    H124503   5.195   0.075  17.205 -0.2419 -0.0725 -0.4927
 1004TIP3    H224504   5.085  -0.024  17.236 -0.3698 -0.2965 -1.6133
 1005TIP3   OH224505   0.234   5.060   2.363  0.7154 -0.7058  0.4323
 1005TIP3    H124506   0.145   5.077   2.393 -0.3789 -2.7410 -1.3156
 1005TIP3    H224507   0.228   5.062   2.267  2.3003 -1.8507  0.2591
 1006TIP3   OH224508   5.633   5.026  10.923 -0.1472 -0.4078 -0.5994
 1006TIP3    H124509   5.558   4.973  10.897 -0.0060 -0.4178 -0.9901
 1006TIP3    H224510   5.701   4.962  10.944 -0.5800 -0.4337  0.8110
 1007TIP3   OH224511   3.064   3.928   2.052 -0.3804  0.1448  0.1684
 1007TIP3    H124512   3.101   3.995   1.995 -0.2127 -1.0562 -1.1988
 1007TIP3    H224513   3.139   3.874   2.077 -0.8028 -0.7756 -0.4996
 1008TIP3   OH224514   6.216   0.572   6.144  0.3339  0.5008  0.2511
 1008TIP3    H124515   6.181   0.660   6.158 -0.4771  0.0996  0.8692
 1008TIP3    H224516   6.311   0.581   6.154  0.4223  1.5978 -1.3068
 1009TIP3   OH224517   4.079   6.611  16.831 -0.2210  0.2096  0.4847
 1009TIP3    H124518   4.005   6.650  16.785 -0.8977 -0.9013  0.5814
 1009TIP3    H224519   4.080   6.655  16.916 -0.2224  0.8454  0.1598
 1010TIP3   OH224520   0.007   0.587   4.811 -0.5962  0.0902 -0.6267
 1010TIP3    H124521  -0.052   0.657   4.838 -1.5301 -0.9148  0.0070
 1010TIP3    H224522   0.080   0.592   4.873 -1.2226 -0.2265  0.1492
 1011TIP3   OH224523   2.992   5.908  15.974 -0.4089  0.5124  0.2411
 1011TIP3    H124524   3.022   5.967  15.905 -0.9542 -0.6391 -1.0297
 1011TIP3    H224525   3.071   5.888  16.025  0.1092  0.9655 -0.3739
 1012TIP3   OH224526   3.199   0.704  12.825 -0.2607 -0.0023  0.1954
 1012TIP3    H124527   3.267   0.672  12.766  0.5012 -1.4603  1.7612
 1012TIP3    H224528   3.128   0.641  12.816 -0.8775  0.7812 -0.4736
 1013TIP3   OH224529   5.696   5.650   4.801  0.6299 -0.4430 -0.3418
 1013TIP3    H124530   5.749   5.719   4.840  0.6139 -0.7274  0.1942
 1013TIP3    H224531   5.640   5.695   4.738  1.1538 -0.0750 -0.5524
 1014TIP3   OH224532   0.502   2.861  14.189  0.5054 -0.3679 -0.1332
 1014TIP3    H124533   0.492   2.772  14.157  1.8912 -0.4681 -0.3387
 1014TIP3    H224534   0.572   2.856  14.254 -0.6503  0.2536  1.2232
 1015TIP3   OH224535   2.760   3.268  16.973  0.6305 -0.5393  0.4165
 1015TIP3    H124536   2.689   3.250  17.035 -0.7056  3.4382  0.3232
 1015TIP3    H224537   2.721   3.251  16.887  0.3485 -0.0705  0.4460
 1016TIP3   OH224538   5.459   3.063   3.289 -0.0973  0.7882 -1.1448
 1016TIP3    H124539   5.540   3.047   3.338 -1.3251 -0.4763  0.5916
 1016TIP3    H224540   5.411   2.981   3.294 -1.3778  1.4101 -2.4115
 1017TIP3   OH224541   4.226   5.830   1.163  0.2143  0.1483  0.0353
 1017TIP3    H124542   4.244   5.910   1.114  0.3855  0.2664  0.2882
 1017TIP3    H224543   4.248   5.852   1.254 -0.6681  0.1140  0.2653
 1018TIP3   OH224544   0.118   6.702   0.367  0.1540 -0.1341  0.2874
 1018TIP3    H124545   0.081   6.669   0.449  1.5567 -4.3868 -0.5386
 1018TIP3    H224546   0.058   6.671   0.300 -0.8842  3.1474 -0.5181
 1019TIP3   OH224547   4.790   5.558  12.029  0.0116  0.5473  0.8771
 1019TIP3    H124548   4.729   5.614  11.982 -1.2583  0.1523  1.9977
 1019TIP3    H224549   4.876   5.594  12.009 -0.5375  0.9185 -1.0068
 1020TIP3   OH224550   4.578   0.588   0.344 -0.4249  0.1675 -0.2173
 1020TIP3    H124551   4.545   0.528   0.411  0.0119 -0.3604 -0.4652
 1020TIP3    H224552   4.518   0.577   0.270 -1.1439  1.0430  0.2116
 1021TIP3   OH224553   6.089   4.557   1.237  0.3052 -0.2883 -0.3658
 1021TIP3    H124554   6.161   4.494   1.242 -0.2003 -1.0240 -1.7163
 1021TIP3    H224555   6.047   4.552   1.323  1.0011 -0.8990 -0.0475
 1022TIP3   OH224556   6.289   2.649   3.333 -0.1544  0.1349  0.0414
 1022TIP3    H124557   6.289   2.679   3.424  0.6886  2.1104 -0.5677
 1022TIP3    H224558   6.226   2.706   3.289  0.1841 -0.1373 -0.8183
 1023TIP3   OH224559   3.385   5.341  13.635 -0.3897  0.3355 -0.1285
 1023TIP3    H124560   3.437   5.401  13.581 -0.4315  0.1281 -0.3987
 1023TIP3    H224561   3.296   5.375  13.628 -0.3880  0.3345 -0.1586
 1024TIP3   OH224562   3.569   2.572  15.012  0.6197 -0.8091  0.0487
 1024TIP3    H124563   3.532   2.659  15.028 -2.5853 -1.7327 -1.5832
 1024TIP3    H224564   3.559   2.559  14.917 -2.1265 -4.1277  0.5943
 1025TIP3   OH224565   1.709   1.039  13.055 -0.1169  0.2701 -0.2887
 1025TIP3    H124566   1.796   1.049  13.095 -0.3686  0.3311  0.2507
 1025TIP3    H224567   1.671   0.964  13.102 -0.0847 -0.2060 -1.0105
 1026TIP3   OH224568   0.039   1.262   4.072 -0.3094 -0.3181  0.5944
 1026TIP3    H124569   0.114   1.203   4.061 -1.1418 -1.1178 -1.2992
 1026TIP3    H224570   0.030   1.305   3.987 -1.8391 -0.0427  0.8703
 1027TIP3   OH224571   5.162   4.330  12.625 -0.5601  0.0137 -0.3597
 1027TIP3    H124572   5.124   4.407  12.666 -0.1956  1.6283 -2.8754
 1027TIP3    H224573   5.200   4.362  12.543 -0.5914 -2.8678 -1.6217
 1028TIP3   OH224574   5.557   4.856   3.307 -0.2350  0.2070  0.1368
 1028TIP3    H124575   5.640   4.832   3.350 -0.7282  0.8137  1.4777
 1028TIP3    H224576   5.577   4.937   3.261 -0.0680  0.3366  0.4339
 1029TIP3   OH224577   2.250   5.189  16.002  0.0428  0.3680 -0.3153
 1029TIP3    H124578   2.317   5.140  16.050  1.0714  3.6476  1.9682
 1029TIP3    H224579   2.300   5.238  15.936 -0.3681  1.1482 -0.0621
 1030TIP3   OH224580   4.580   1.217   0.006 -0.0381 -0.5628 -0.7573
 1030TIP3    H124581   4.661   1.176   0.034  0.5685 -0.0294 -1.6911
 1030TIP3    H224582   4.521   1.144  -0.012  0.9866 -1.0493 -2.2835
 1031TIP3   OH224583   5.696   2.285  11.972  0.2393 -0.6450 -0.1275
 1031TIP3    H124584   5.739   2.208  12.008  1.4682  0.0505 -0.0487
 1031TIP3    H224585   5.761   2.355  11.981 -1.0273  0.5266  0.2829
 1032TIP3   OH224586   3.088   0.733   4.058  0.1351  0.0681 -0.2859
 1032TIP3    H124587   3.149   0.802   4.084  0.4073  0.3519 -1.6022
 1032TIP3    H224588   3.024   0.778   4.004 -1.2185 -0.2480  0.9846
 1033TIP3   OH224589   6.547   2.068   5.464  0.0933 -0.0214 -0.1133
 1033TIP3    H124590   6.616   2.082   5.400  0.8169  0.4730  0.7542
 1033TIP3    H224591   6.521   1.976   5.452  0.1708  0.0853 -1.1394
 1034TIP3   OH224592   0.774   0.757   2.475 -0.4191 -0.0736 -0.1745
 1034TIP3    H124593   0.716   0.834   2.476 -0.6444 -0.2420  0.1254
 1034TIP3    H224594   0.723   0.689   2.518  0.3606  0.0422  0.9728
 1035TIP3   OH224595   1.779   0.123   3.973 -0.0450  0.0851  0.0806
 1035TIP3    H124596   1.829   0.042   3.985 -0.5447 -0.4402 -1.1988
 1035TIP3    H224597   1.833   0.191   4.013  0.8797 -0.7273  0.2433
 1036TIP3   OH224598   1.657   3.739  10.890 -0.2280 -0.2462 -0.4154
 1036TIP3    H124599   1.582   3.798  10.882 -1.2576 -1.3447  0.7348
 1036TIP3    H224600   1.725   3.793  10.931 -0.5354  0.6355 -1.0461
 1037TIP3   OH224601   1.625   1.060   0.893 -0.0233 -0.0446 -0.6686
 1037TIP3    H124602   1.666   0.981   0.859  1.9097  0.4938  0.2881
 1037TIP3    H224603   1.562   1.085   0.825  0.3438 -1.5937 -1.6333
 1038TIP3   OH224604   3.180   0.653   4.528 -0.0421  0.2369 -0.6309
 1038TIP3    H124605   3.115   0.687   4.589  0.5955  0.4676 -0.0705
 1038TIP3    H224606   3.134   0.649   4.444 -0.5268  1.1914 -0.4234
 1039TIP3   OH224607   1.139   3.625  15.024 -0.1323 -0.5244 -0.5414
 1039TIP3    H124608   1.072   3.676  14.980  0.3736  0.3861 -0.2895
 1039TIP3    H224609   1.222   3.665  14.995  0.2295 -0.4191  0.5938
 1040TIP3   OH224610   5.323   6.012  12.160 -0.8956  0.1110  0.3165
 1040TIP3    H124611   5.390   6.079  12.175  0.7462 -1.3702 -0.1776
 1040TIP3    H224612   5.312   5.970  12.246 -0.9609  0.1528  0.3283
 1041TIP3   OH224613   0.482   3.173   5.502 -0.3768 -0.4413  0.3330
 1041TIP3    H124614   0.414   3.111   5.528 -0.2211 -0.5687  0.4464
 1041TIP3    H224615   0.491   3.231   5.578  1.4763 -2.0268  1.4384
 1042TIP3   OH224616   4.766   1.693   1.866 -0.3354  0.0801  0.3661
 1042TIP3    H124617   4.743   1.621   1.808  0.1856  0.7367 -0.6951
 1042TIP3    H224618   4.859   1.679   1.887 -0.6445 -0.4282  1.4739
 1043TIP3   OH224619   5.124   6.532  11.875 -0.7811 -0.5515  0.2444
 1043TIP3    H124620   5.150   6.442  11.854  0.0418 -0.4501  0.7815
 1043TIP3    H224621   5.153   6.545  11.965  0.9202  0.8870 -0.4430
 1044TIP3   OH224622   5.999   0.368  10.915  0.1085  0.3981 -0.4282
 1044TIP3    H124623   5.975   0.454  10.881  0.4573  0.3120 -0.8893
 1044TIP3    H224624   6.015   0.384  11.009 -1.4080  0.5195 -0.1620
 1045TIP3   OH224625   3.364   2.686   1.522 -0.0227 -0.3120 -0.5068
 1045TIP3    H124626   3.347   2.698   1.428 -0.3895 -0.5329 -0.4730
 1045TIP3    H224627   3.455   2.657   1.527  0.5045  1.2501 -0.6760
 1046TIP3   OH224628   1.086   4.420   1.563 -0.0309  0.5553  0.6076
 1046TIP3    H124629   1.029   4.448   1.635  1.7003  2.1176  1.4800
 1046TIP3    H224630   1.027   4.407   1.489 -1.3962  4.2568  0.8296
 1047TIP3   OH224631   2.363   2.216  12.382  0.4044 -0.1440  0.6133
 1047TIP3    H124632   2.292   2.273  12.353  2.5021  2.9456  1.0576
 1047TIP3    H224633   2.323   2.129  12.388 -3.3380  1.4222  1.0932
 1048TIP3   OH224634   3.979   0.370  17.173 -0.4527  0.0137  0.0489
 1048TIP3    H124635   3.887   0.394  17.180 -0.5956 -0.8657  1.9439
 1048TIP3    H224636   3.978   0.277  17.151  0.0083  0.2764 -1.1203
 1049TIP3   OH224637   0.891   5.689   5.260 -0.0997 -0.2282  0.7238
 1049TIP3    H124638   0.909   5.624   5.327  2.5305 -0.2651  0.0644
 1049TIP3    H224639   0.967   5.687   5.202 -1.0061  1.7714 -0.6807
 1050TIP3   OH224640   0.644   5.700   3.819  0.2265  0.1969 -0.3301
 1050TIP3    H124641   0.701   5.692   3.743  0.6995  0.0517  0.0281
 1050TIP3    H224642   0.556   5.698   3.784  0.3382 -2.4630 -0.7204
 1051TIP3   OH224643   4.161   0.292   1.543  0.3252  0.4191 -0.0602
 1051TIP3    H124644   4.115   0.215   1.509  0.4142  0.4909 -0.3420
 1051TIP3    H224645   4.222   0.316   1.474 -0.3795  1.3278 -0.3817
 1052TIP3   OH224646   6.714   1.765  14.711 -0.0854 -0.5505 -0.7064
 1052TIP3    H124647   6.696   1.740  14.802 -0.3946  1.3152 -0.2120
 1052TIP3    H224648   6.805   1.795  14.712  0.3655 -1.8095 -1.3467
 1053TIP3   OH224649   4.086   3.684   4.799 -0.3446  0.1387 -0.3655
 1053TIP3    H124650   4.095   3.659   4.891  2.6087  0.9638 -0.3251
 1053TIP3    H224651   4.063   3.777   4.802  1.1421  0.5363 -0.3882
 1054TIP3   OH224652   3.252   2.198  12.688  0.1726  0.4097 -0.3030
 1054TIP3    H124653   3.289   2.149  12.614  1.1333  2.0082 -0.9441
 1054TIP3    H224654   3.319   2.192  12.756 -0.7665 -1.1689  0.5373
 1055TIP3   OH224655   2.636   5.752  17.021 -0.2693  0.2477 -0.2272
 1055TIP3    H124656   2.579   5.820  16.985  0.2451  0.0659 -1.4487
 1055TIP3    H224657   2.682   5.716  16.944  0.5903 -0.4283  0.5764
 1056TIP3   OH224658   3.675   1.124  12.377  0.0004  0.2919 -0.1582
 1056TIP3    H124659   3.745   1.061  12.394 -0.8015 -0.1114  1.8516
 1056TIP3    H224660   3.718   1.192  12.325  1.1255 -1.3777 -1.5324
 1057TIP3   OH224661   0.184   6.652   4.235  0.0204  0.5518 -0.0987
 1057TIP3    H124662   0.234   6.597   4.296  1.1648 -0.6397 -2.0312
 1057TIP3    H224663   0.101   6.607   4.224  0.1464  0.3152 -0.0810
 1058TIP3   OH224664   6.186   3.536  14.726  0.3344 -0.0664  0.6393
 1058TIP3    H124665   6.239   3.457  14.728  0.3622 -0.0482  0.6265
 1058TIP3    H224666   6.209   3.583  14.806 -0.1367 -0.3646  0.9527
 1059TIP3   OH224667   1.603   0.047  15.398  0.0600  0.4202 -0.1108
 1059TIP3    H124668   1.539  -0.024  15.392  1.6920 -1.0138 -1.9238
 1059TIP3    H224669   1.688   0.004  15.394  1.1437  2.4182 -0.2713
 1060TIP3   OH224670   6.777   5.752   4.450  0.1005 -0.4520 -0.3725
 1060TIP3    H124671   6.711   5.683   4.441  1.0552 -1.7185  1.5858
 1060TIP3    H224672   6.840   5.735   4.380  1.2209 -2.7196  1.0460
 1061TIP3   OH224673   4.510   1.442  12.046  0.1137 -0.7582 -0.1955
 1061TIP3    H124674   4.603   1.444  12.066 -0.2551 -1.3055  1.7173
 1061TIP3    H224675   4.497   1.359  12.000  0.8108  0.1124 -2.1078
 1062TIP3   OH224676   1.415   1.915   4.840  0.5298 -0.8564  0.0616
 1062TIP3    H124677   1.425   1.909   4.935 -0.3412 -2.3766  0.0875
 1062TIP3    H224678   1.467   1.842   4.806  0.0903 -0.8796 -0.5696
 1063TIP3   OH224679   4.764   4.219  12.732 -0.1284 -0.2612 -0.1782
 1063TIP3    H124680   4.702   4.245  12.664  0.9830 -0.1811 -1.1798
 1063TIP3    H224681   4.716   4.231  12.814 -1.2029  0.4426 -0.8923
 1064TIP3   OH224682   5.625   1.688   4.075  0.0923 -0.5694 -0.8605
 1064TIP3    H124683   5.559   1.754   4.098  0.6106 -0.4252  0.3206
 1064TIP3    H224684   5.605   1.664   3.985 -0.2940  1.0020 -1.2279
 1065TIP3   OH224685   4.029   6.688   5.137 -0.1672 -0.0947 -0.2139
 1065TIP3    H124686   4.070   6.705   5.053 -1.3632  0.6434 -0.6766
 1065TIP3    H224687   4.102   6.667   5.196  0.6889 -0.5203 -1.3898
 1066TIP3   OH224688   3.634   0.666  12.272 -0.2139 -0.5071 -1.1911
 1066TIP3    H124689   3.686   0.718  12.334 -0.0749 -2.7399  0.6742
 1066TIP3    H224690   3.682   0.583  12.264 -1.5055 -1.1703 -2.4497
 1067TIP3   OH224691   5.855   1.426   3.540 -0.1336 -0.6325 -0.3958
 1067TIP3    H124692   5.765   1.404   3.565 -0.3077  0.3290 -0.1733
 1067TIP3    H224693   5.850   1.446   3.447 -0.3662  0.5094 -0.1527
 1068TIP3   OH224694   4.613   6.008   2.074  0.2373  0.2245  0.0049
 1068TIP3    H124695   4.666   6.088   2.073 -1.1239  1.2874  2.6281
 1068TIP3    H224696   4.677   5.937   2.081  1.4668  1.4355  2.6391
 1069TIP3   OH224697   6.707   0.691   6.596  0.1819  0.0793 -0.6489
 1069TIP3    H124698   6.745   0.706   6.510 -1.0767  0.3662 -1.1836
 1069TIP3    H224699   6.642   0.622   6.582 -1.7763  1.7891 -0.4918
 1070TIP3   OH224700   0.017   0.987  13.806  0.5029 -0.0678 -0.2504
 1070TIP3    H124701   0.043   0.923  13.740  1.9464 -1.6957  1.7336
 1070TIP3    H224702  -0.076   1.002  13.790  0.8083 -0.3118 -2.6501
 1071TIP3   OH224703   2.740   0.226   2.579  0.4046  0.4060 -0.0108
 1071TIP3    H124704   2.683   0.297   2.609  0.1401 -0.4382  1.5956
 1071TIP3    H224705   2.820   0.271   2.550 -0.2355  1.4382 -0.2473
 1072TIP3   OH224706   3.843   3.881   6.653 -0.0233 -0.0561 -0.0167
 1072TIP3    H124707   3.914   3.828   6.691 -0.8607 -0.5510  0.8910
 1072TIP3    H224708   3.878   3.911   6.569  1.5087  0.2259  0.6842
 1073TIP3   OH224709   3.517   2.218   4.763 -0.1265  0.0917  0.5932
 1073TIP3    H124710   3.559   2.195   4.681 -1.3849 -1.0210  0.2255
 1073TIP3    H224711   3.438   2.267   4.738  0.1862  0.9564  1.2119
 1074TIP3   OH224712   4.682   1.334   3.493  0.0182 -0.0999  0.0366
 1074TIP3    H124713   4.612   1.316   3.555  1.0305 -1.9239  0.7608
 1074TIP3    H224714   4.642   1.321   3.407 -0.6804 -0.5950  0.4227
 1075TIP3   OH224715   2.034   3.321   4.487  0.3603 -0.2108  0.1933
 1075TIP3    H124716   1.947   3.318   4.528  1.2924 -2.1551  2.2210
 1075TIP3    H224717   2.094   3.335   4.560  2.0009 -2.4667 -0.6332
 1076TIP3   OH224718   5.039   6.124  16.722 -0.0915 -0.1311 -0.3915
 1076TIP3    H124719   5.099   6.114  16.647 -0.4702  1.9849 -1.0392
 1076TIP3    H224720   5.094   6.160  16.791 -0.3647  0.7422 -0.6232
 1077TIP3   OH224721   2.397   5.741  14.576  0.2564  0.0043  0.1191
 1077TIP3    H124722   2.369   5.757  14.486 -0.9300 -1.3528  0.2098
 1077TIP3    H224723   2.321   5.764  14.629  1.0327  1.0411  0.8262
 1078TIP3   OH224724   0.078   3.117  16.820  0.6705 -0.4999 -0.1907
 1078TIP3    H124725   0.132   3.117  16.899  0.2099 -0.1979  0.1244
 1078TIP3    H224726   0.104   3.037  16.774  1.3664 -0.3703 -0.0298
 1079TIP3   OH224727   1.784   6.691  17.133 -0.1597 -0.5864 -0.4858
 1079TIP3    H124728   1.857   6.749  17.156 -0.5615 -0.7615  1.3995
 1079TIP3    H224729   1.798   6.671  17.041  0.2558  2.1104 -1.0862
 1080TIP3   OH224730   5.372   1.141   5.395  0.0465  0.5220 -0.0155
 1080TIP3    H124731   5.415   1.086   5.330  0.9751  0.8219  0.3292
 1080TIP3    H224732   5.313   1.081   5.441 -1.5544  0.5653 -1.9136
 1081TIP3   OH224733   5.131   1.546   3.549  0.2628 -0.3240  0.9100
 1081TIP3    H124734   5.082   1.620   3.512  1.9617  1.2959  1.7665
 1081TIP3    H224735   5.067   1.474   3.550 -0.9505  0.5652 -1.6285
 1082TIP3   OH224736   3.803   6.694   0.078  0.5618 -0.1688  0.0755
 1082TIP3    H124737   3.794   6.766   0.140  0.5373  0.8944 -1.1239
 1082TIP3    H224738   3.844   6.624   0.128  0.4609  0.6240  1.3027
 1083TIP3   OH224739   4.346   0.700   1.404 -1.0293  0.3530  0.1692
 1083TIP3    H124740   4.335   0.703   1.499 -1.1700 -1.7053  0.2501
 1083TIP3    H224741   4.407   0.772   1.385 -0.6338  0.5017  1.8568
 1084TIP3   OH224742   5.236   2.639  13.369  0.3091 -0.3577  0.0644
 1084TIP3    H124743   5.284   2.696  13.429 -2.8433  0.9198  1.5860
 1084TIP3    H224744   5.215   2.561  13.421  0.1589 -0.5922 -0.3398
 1085TIP3   OH224745   1.351   1.176   5.022 -0.0275  0.4741 -0.2546
 1085TIP3    H124746   1.295   1.187   4.944  1.2415 -1.4524 -1.5315
 1085TIP3    H224747   1.396   1.260   5.030 -0.4316  0.8339 -1.4103
 1086TIP3   OH224748   5.352   3.891   0.205 -0.6668 -0.6775  0.0529
 1086TIP3    H124749   5.305   3.972   0.228  0.3096 -0.6578  2.2006
 1086TIP3    H224750   5.411   3.918   0.135  0.0885  0.6682  1.1454
 1087TIP3   OH224751   0.429   0.999  13.073 -0.4268 -0.5207  0.1440
 1087TIP3    H124752   0.363   1.033  13.012 -0.0215 -0.3515 -0.2099
 1087TIP3    H224753   0.389   0.920  13.109 -0.3040 -1.1674 -1.0695
 1088TIP3   OH224754   1.828   4.636  16.371  0.2521  0.0532  0.5756
 1088TIP3    H124755   1.803   4.711  16.317 -1.5455 -0.7236  0.2669
 1088TIP3    H224756   1.844   4.673  16.458 -1.4230  0.7261  0.6368
 1089TIP3   OH224757   2.680   1.531   1.102  0.2715  0.1626  0.2776
 1089TIP3    H124758   2.703   1.613   1.146  0.5444 -0.0726  0.5744
 1089TIP3    H224759   2.763   1.496   1.072  0.1440  0.0447  0.0615
 1090TIP3   OH224760   0.331   4.594  15.780  0.2434 -0.1362 -0.0721
 1090TIP3    H124761   0.322   4.504  15.748 -1.7210  0.0014 -0.0473
 1090TIP3    H224762   0.425   4.606  15.793  0.6183 -1.8997 -0.8799
 1091TIP3   OH224763   1.062   0.214  13.919  0.0812  0.2531 -0.2487
 1091TIP3    H124764   1.015   0.138  13.952 -1.5860  0.5996 -1.6723
 1091TIP3    H224765   1.003   0.252  13.853  0.9958  2.5876  0.1878
 1092TIP3   OH224766   6.803   6.296   1.952  0.0259  0.4136 -0.4133
 1092TIP3    H124767   6.744   6.262   1.885  0.9716 -2.5395  0.1332
 1092TIP3    H224768   6.745   6.331   2.019 -1.1754 -2.2576  0.0298
 1093TIP3   OH224769   3.965   2.450   1.799  0.2633 -0.4487 -0.4067
 1093TIP3    H124770   3.943   2.504   1.724  1.8373  1.4745  0.4119
 1093TIP3    H224771   3.932   2.363   1.778 -1.5366  0.6127 -2.1974
 1094TIP3   OH224772   3.695   2.152  12.225  0.5614 -0.2886 -0.1125
 1094TIP3    H124773   3.644   2.175  12.147  1.1016 -1.2685 -0.7871
 1094TIP3    H224774   3.720   2.235  12.263  1.9943  0.2837 -2.1389
 1095TIP3   OH224775   3.607   4.751   0.212 -0.2917 -0.4589  0.6402
 1095TIP3    H124776   3.551   4.815   0.257 -1.0989  0.0686 -1.0036
 1095TIP3    H224777   3.690   4.797   0.198 -0.4933 -0.1532  0.4372
 1096TIP3   OH224778   4.922   2.243  14.723 -0.0213 -0.0362  0.4553
 1096TIP3    H124779   4.979   2.168  14.706  0.1231  0.4075 -1.1861
 1096TIP3    H224780   4.849   2.233  14.663 -1.2687 -0.1172  1.9242
 1097TIP3   OH224781   5.319   6.795   1.028  0.2919 -0.0459 -0.5803
 1097TIP3    H124782   5.368   6.751   1.098  0.2332 -0.7664 -0.9857
 1097TIP3    H224783   5.267   6.726   0.988  0.6734  0.2646 -1.6382
 1098TIP3   OH224784   2.033   3.292  14.257 -0.0405  0.3292 -0.0069
 1098TIP3    H124785   1.951   3.324  14.220  0.2904  1.7099  0.3844
 1098TIP3    H224786   2.006   3.225  14.320 -0.9777  1.4326  0.8273
 1099TIP3   OH224787   6.742   2.714  14.477  0.0918  0.1234 -0.2936
 1099TIP3    H124788   6.685   2.781  14.515 -0.1394 -0.9419  1.3555
 1099TIP3    H224789   6.691   2.675  14.407 -0.9630 -0.3144  0.6833
 1100TIP3   OH224790   2.217   3.713  13.788 -0.5678 -0.3392  0.6269
 1100TIP3    H124791   2.174   3.798  13.780  1.2464  0.7260  1.5349
 1100TIP3    H224792   2.175   3.672  13.863 -1.6071 -0.3569  0.0476
 1101TIP3   OH224793   5.460   3.407  11.706 -0.1258 -0.3192  0.2030
 1101TIP3    H124794   5.451   3.313  11.724  1.5098 -0.7084 -0.8165
 1101TIP3    H224795   5.553   3.424  11.716 -0.2869  1.0365 -0.4490
 1102TIP3   OH224796   3.193   2.010   5.195 -0.4550  0.0126  0.8044
 1102TIP3    H124797   3.109   2.043   5.164 -0.4266 -0.0446  0.6614
 1102TIP3    H224798   3.185   1.914   5.189 -0.9082 -0.0518  2.2111
 1103TIP3   OH224799   3.648   1.203   5.871  0.0949 -0.3022  0.1788
 1103TIP3    H124800   3.644   1.281   5.926 -0.8561 -0.1890 -0.0370
 1103TIP3    H224801   3.653   1.237   5.782 -1.3365 -0.4647  0.0145
 1104TIP3   OH224802   0.819   6.056   0.986 -0.0723  0.4380 -0.2409
 1104TIP3    H124803   0.851   5.975   0.947 -1.7891  0.1016 -1.0566
 1104TIP3    H224804   0.794   6.111   0.912 -0.7203  0.9334  0.3270
 1105TIP3   OH224805   2.132   2.181   0.721 -0.0008 -0.4575  0.3088
 1105TIP3    H124806   2.190   2.257   0.732 -0.2534  0.0598 -1.6453
 1105TIP3    H224807   2.192   2.107   0.708  0.2354 -0.5463  1.7019
 1106TIP3   OH224808   2.208   4.993   2.430 -0.5462  0.4410  0.1313
 1106TIP3    H124809   2.221   5.064   2.367  0.2374 -0.6886 -1.0454
 1106TIP3    H224810   2.183   5.036   2.512 -0.0536  2.0498 -0.5440
 1107TIP3   OH224811   5.782   2.669   1.244 -0.6397  0.1901 -0.2995
 1107TIP3    H124812   5.874   2.689   1.262 -0.1711 -0.4398 -1.8726
 1107TIP3    H224813   5.735   2.747   1.274  0.5057  0.9480 -0.3944
 1108TIP3   OH224814   6.484   3.050  16.971 -0.2682  0.4084 -0.3532
 1108TIP3    H124815   6.545   3.030  17.042 -0.4811  0.6459 -0.0979
 1108TIP3    H224816   6.540   3.066  16.895  0.1705  2.8396  0.3841
 1109TIP3   OH224817   4.995   2.520   4.992  0.6503  0.3048  0.3225
 1109TIP3    H124818   5.001   2.587   4.924  3.0122 -0.8443 -0.6916
 1109TIP3    H224819   4.906   2.485   4.984  0.5818  0.8289 -1.5335
 1110TIP3   OH224820   1.140   4.821  11.566  0.0230  0.1737 -0.3273
 1110TIP3    H124821   1.210   4.826  11.631  1.8733  0.9218 -2.2722
 1110TIP3    H224822   1.109   4.911  11.556  0.1266  0.1561 -0.8482
 1111TIP3   OH224823   5.897   0.610  15.528  0.7083 -0.2982  0.2430
 1111TIP3    H124824   5.884   0.535  15.586  2.4285  0.4745  1.7188
 1111TIP3    H224825   5.963   0.663  15.572  1.2357  0.9209 -1.8893
 1112TIP3   OH224826   3.363   0.005  17.274 -0.1566  0.5138  0.4424
 1112TIP3    H124827   3.355   0.100  17.273 -0.4037  0.5140  1.3415
 1112TIP3    H224828   3.438  -0.014  17.218  0.1021  1.2639  0.5265
 1113TIP3   OH224829   2.147   1.774   0.671 -0.2978  0.6146 -0.2705
 1113TIP3    H124830   2.229   1.736   0.638  0.1392 -0.8091  2.2080
 1113TIP3    H224831   2.078   1.725   0.625  0.2797 -1.5894  1.0716
 1114TIP3   OH224832   6.132   5.819  16.100  0.1769 -0.4061 -0.1493
 1114TIP3    H124833   6.116   5.799  16.192 -1.8951  0.2596 -0.3073
 1114TIP3    H224834   6.137   5.734  16.057  0.2848 -0.7104  0.4599
 1115TIP3   OH224835   1.696   4.205   3.042  0.6108  0.2780 -0.2494
 1115TIP3    H124836   1.739   4.147   3.105  1.5512  0.2598 -0.9062
 1115TIP3    H224837   1.690   4.289   3.088 -1.8889 -0.5767  1.1981
 1116TIP3   OH224838   4.968   2.091   1.910  0.2759  0.0277 -0.3093
 1116TIP3    H124839   4.954   2.050   1.825 -1.2326  0.5807 -0.3602
 1116TIP3    H224840   4.898   2.056   1.966  0.3144  0.8335  0.2645
 1117TIP3   OH224841   1.257   2.781   2.222 -0.5444  0.1119 -0.6396
 1117TIP3    H124842   1.278   2.778   2.316  0.2033  0.6120 -0.7884
 1117TIP3    H224843   1.295   2.701   2.186  0.1412  0.4601 -0.7057
 1118TIP3   OH224844   6.618   6.111  14.938  0.2280 -0.0157  0.5294
 1118TIP3    H124845   6.592   6.043  15.000 -2.2827  1.4265  1.2075
 1118TIP3    H224846   6.585   6.081  14.854  0.4364 -0.3042  0.5503
 1119TIP3   OH224847   1.918   4.742  15.973  0.0422 -0.7687 -0.8527
 1119TIP3    H124848   1.885   4.681  15.907 -1.4365  0.4061 -1.2340
 1119TIP3    H224849   1.929   4.825  15.927 -2.6256  0.5525  0.6286
 1120TIP3   OH224850   3.264   0.269  14.176 -0.0177  0.5745  0.3887
 1120TIP3    H124851   3.264   0.363  14.162 -0.2453  0.3672 -1.1778
 1120TIP3    H224852   3.175   0.241  14.155  0.1231 -0.0286  0.5629
 1121TIP3   OH224853   2.002   5.633   1.743  0.1769  0.1573 -0.2723
 1121TIP3    H124854   1.917   5.676   1.754 -0.7904 -0.8403 -3.0700
 1121TIP3    H224855   1.982   5.551   1.698  2.6394 -0.1023 -1.0400
 1122TIP3   OH224856   5.753   3.255   4.691  0.3698  0.5048  0.1452
 1122TIP3    H124857   5.725   3.334   4.735 -0.7536  0.0333  0.3079
 1122TIP3    H224858   5.821   3.284   4.630  1.7564  1.2116  1.9416
 1123TIP3   OH224859   3.655   1.786   4.538 -0.2253  0.0990  0.0417
 1123TIP3    H124860   3.566   1.796   4.503 -0.4493 -1.3668  0.1284
 1123TIP3    H224861   3.645   1.799   4.632 -0.4866 -0.7525  0.1400
 1124TIP3   OH224862   2.972   6.459   3.205  0.1056  0.2892 -0.4252
 1124TIP3    H124863   2.894   6.513   3.212 -2.0730 -2.5804 -0.6814
 1124TIP3    H224864   2.974   6.408   3.286  1.4780  0.0013 -0.6116
 1125TIP3   OH224865   6.437   3.466  14.980 -0.0317  0.1460 -0.1344
 1125TIP3    H124866   6.520   3.476  14.933  0.2977  1.5361  0.6882
 1125TIP3    H224867   6.387   3.405  14.926  1.3262 -0.3481 -0.9125
 1126TIP3   OH224868   3.918   2.264  15.987 -0.0267 -0.5103 -0.0674
 1126TIP3    H124869   3.855   2.328  15.953  1.9213  2.1154  0.8952
 1126TIP3    H224870   3.894   2.255  16.080  0.8196  0.3179  0.2460
 1127TIP3   OH224871   5.173   3.125   4.490 -0.4689  0.2505 -0.3828
 1127TIP3    H124872   5.243   3.190   4.483  2.8030 -3.0119 -0.6642
 1127TIP3    H224873   5.148   3.126   4.583  1.2220  0.3201  0.0970
 1128TIP3   OH224874   6.456   1.296  14.631 -0.6786 -0.1192 -0.0333
 1128TIP3    H124875   6.376   1.252  14.602 -1.9745  2.3676 -0.5914
 1128TIP3    H224876   6.488   1.340  14.553  0.3622  0.1767  0.5487
 1129TIP3   OH224877   5.956   6.138   5.251  0.0632 -0.0971 -0.4025
 1129TIP3    H124878   5.896   6.066   5.271  1.7381 -1.2826  0.6627
 1129TIP3    H224879   6.018   6.100   5.189 -0.0134  0.9634 -1.1446
 1130TIP3   OH224880   1.067   3.105  13.723 -0.5403 -0.1139 -0.5927
 1130TIP3    H124881   1.119   3.183  13.743  0.7968 -1.3077  0.9421
 1130TIP3    H224882   0.977   3.136  13.720 -0.3248  1.1977  2.3156
 1131TIP3   OH224883   4.085   2.529   2.598 -0.6432 -0.0397 -0.4350
 1131TIP3    H124884   4.169   2.513   2.555 -0.7465 -1.1055 -0.2525
 1131TIP3    H224885   4.105   2.592   2.668  0.0612 -0.5294 -0.1915
 1132TIP3   OH224886   4.510   4.485  15.123 -0.4095  0.7799 -0.4699
 1132TIP3    H124887   4.590   4.446  15.088 -0.1224 -0.1077  1.0643
 1132TIP3    H224888   4.439   4.435  15.082 -0.2306  1.9073 -2.2253
 1133TIP3   OH224889   4.989   4.994  16.563  0.4316  0.7247  0.2900
 1133TIP3    H124890   4.963   5.039  16.644  1.3790  0.4214  0.7697
 1133TIP3    H224891   4.910   4.997  16.509 -0.1778  1.0642  1.1631
 1134TIP3   OH224892   0.851   0.302  13.760 -0.0300 -0.2927  0.3033
 1134TIP3    H124893   0.793   0.368  13.721 -0.3491 -0.6847  0.1188
 1134TIP3    H224894   0.797   0.255  13.823  0.2259 -0.3215  0.5072
 1135TIP3   OH224895   5.394   6.540  15.661 -0.3271  0.0705 -0.0199
 1135TIP3    H124896   5.306   6.515  15.637  0.1343 -2.8049  0.9376
 1135TIP3    H224897   5.408   6.625  15.618 -2.1386 -1.2045 -3.4326
 1136TIP3   OH224898   1.765   2.128   1.863 -0.6687  0.5930  0.5235
 1136TIP3    H124899   1.858   2.148   1.850 -0.4729 -0.3236  0.4931
 1136TIP3    H224900   1.720   2.180   1.796  0.0214 -0.9691 -1.2132
 1137TIP3   OH224901   5.334   1.424   4.215  0.0816 -0.2331 -0.7210
 1137TIP3    H124902   5.263   1.469   4.260 -1.1228 -0.3232 -2.4208
 1137TIP3    H224903   5.294   1.343   4.182  0.2978  0.7033 -3.5601
 1138TIP3   OH224904   0.364   0.002  16.707 -0.0305  0.0472 -0.7198
 1138TIP3    H124905   0.439  -0.052  16.680 -1.0553 -1.4031 -0.8009
 1138TIP3    H224906   0.324   0.029  16.624  0.4477  0.9363 -0.6771
 1139TIP3   OH224907   3.031   2.731   0.359 -0.1751 -0.6277 -0.9199
 1139TIP3    H124908   2.951   2.763   0.318 -1.7301 -2.1996  0.7502
 1139TIP3    H224909   3.076   2.683   0.288 -1.9024 -1.7389 -1.3309
 1140TIP3   OH224910   5.092   1.903  12.223 -0.0087 -0.1579 -0.3027
 1140TIP3    H124911   5.180   1.879  12.250  0.1567 -0.7204 -1.2935
 1140TIP3    H224912   5.071   1.980  12.276  0.6380 -0.6681  0.7332
 1141TIP3   OH224913   3.894   2.273  14.625 -0.2333  0.4371 -0.5426
 1141TIP3    H124914   3.832   2.202  14.610 -0.1319  0.3825 -0.7101
 1141TIP3    H224915   3.930   2.291  14.538  1.8533 -1.2455 -0.0944
 1142TIP3   OH224916   1.187   4.598   0.565 -0.3942 -0.0598 -0.4377
 1142TIP3    H124917   1.130   4.619   0.490 -1.8281  0.0643  0.6361
 1142TIP3    H224918   1.158   4.657   0.634  1.2953  0.2242  0.0762
 1143TIP3   OH224919   5.938   4.222  14.518 -0.0095  0.0814  0.1739
 1143TIP3    H124920   5.853   4.201  14.557 -0.2696  0.1043 -0.3701
 1143TIP3    H224921   5.994   4.149  14.542 -1.0494 -1.6703 -2.1901
 1144TIP3   OH224922   1.049   0.268   0.526 -0.1594 -0.2123  0.4506
 1144TIP3    H124923   1.090   0.355   0.520  0.4150 -0.5209 -4.0227
 1144TIP3    H224924   0.964   0.284   0.566  0.9453  1.9056  2.1926
 1145TIP3   OH224925   1.563   4.126   5.830  0.0092 -0.4027  0.4963
 1145TIP3    H124926   1.567   4.116   5.734  0.0608  0.5017  0.3921
 1145TIP3    H224927   1.655   4.139   5.856 -0.1914  1.7347  0.3576
 1146TIP3   OH224928   4.283   4.154  11.999 -0.2768 -0.4887 -0.2482
 1146TIP3    H124929   4.362   4.119  11.958 -0.2813  0.9091 -1.5523
 1146TIP3    H224930   4.248   4.081  12.050  1.4629 -1.3508 -0.2038
 1147TIP3   OH224931   0.339   0.441   4.242 -0.2085 -0.3716 -0.7460
 1147TIP3    H124932   0.293   0.380   4.299  1.7617  0.3786  1.8491
 1147TIP3    H224933   0.288   0.521   4.246 -0.2385 -0.4127 -0.2357
 1148TIP3   OH224934   4.297   1.462  13.009 -0.2262  0.5953  0.4570
 1148TIP3    H124935   4.248   1.529  12.962 -0.1674 -1.0231 -2.1483
 1148TIP3    H224936   4.388   1.476  12.982 -0.1708 -0.3008  0.1394
 1149TIP3   OH224937   2.641   3.051   4.648  0.3042  0.2833  0.6896
 1149TIP3    H124938   2.617   2.964   4.618 -1.7464  0.4752  1.5902
 1149TIP3    H224939   2.728   3.066   4.611  1.1803 -2.5360  1.3262
 1150TIP3   OH224940   5.194   0.839  12.944  0.7717 -0.3215  0.4184
 1150TIP3    H124941   5.257   0.865  12.877  0.6512 -1.2838 -0.0826
 1150TIP3    H224942   5.240   0.855  13.027  0.4740  2.0458  0.1936
 1151TIP3   OH224943   6.033   5.054  12.542  0.5320 -0.0184 -0.6927
 1151TIP3    H124944   6.057   4.967  12.576  0.4662 -0.0620 -0.7585
 1151TIP3    H224945   6.037   5.044  12.447 -0.1627 -0.1421 -0.7131
 1152TIP3   OH224946   6.214   1.095  15.920 -0.4466 -0.4602 -0.0233
 1152TIP3    H124947   6.162   1.124  15.846 -0.3397  1.5546  0.6411
 1152TIP3    H224948   6.151   1.087  15.992  0.0595  2.0376  0.7967
 1153TIP3   OH224949   6.034   5.140   3.875  0.5703  0.3079 -0.1144
 1153TIP3    H124950   6.050   5.046   3.868 -0.5939  0.1401 -0.7560
 1153TIP3    H224951   6.093   5.169   3.944  0.4861 -1.0063  0.5347
 1154TIP3   OH224952   4.459   3.193  12.048  0.5616  1.0577  0.3762
 1154TIP3    H124953   4.374   3.158  12.024  1.0999 -1.2594  1.5272
 1154TIP3    H224954   4.466   3.275  11.999 -1.9450  0.9042 -0.3884
 1155TIP3   OH224955   1.566   6.533   1.768  0.0236  0.0914  0.4519
 1155TIP3    H124956   1.594   6.476   1.696  1.3533 -0.7017  1.5353
 1155TIP3    H224957   1.541   6.472   1.838 -0.4408  0.8404  0.9529
 1156TIP3   OH224958   3.411   1.972  14.225  0.2982  0.1646 -0.4056
 1156TIP3    H124959   3.503   1.974  14.198  0.7508  0.0713  1.0192
 1156TIP3    H224960   3.386   1.880  14.218  1.5195 -0.5530  2.7590
 1157TIP3   OH224961   5.980   1.081   0.822  0.2207  0.4083  0.3817
 1157TIP3    H124962   5.984   0.990   0.791 -0.8262  0.0551  1.2379
 1157TIP3    H224963   5.887   1.104   0.818  0.5750  1.7742 -0.7076
 1158TIP3   OH224964   0.509   5.981   0.741  0.1332  0.1859 -0.2955
 1158TIP3    H124965   0.444   5.912   0.754  0.0648  0.2309 -0.3924
 1158TIP3    H224966   0.588   5.935   0.714  0.2231  0.1074  0.0964
 1159TIP3   OH224967   0.015   6.119  13.524  0.5811 -0.8338 -0.0351
 1159TIP3    H124968   0.014   6.039  13.471 -0.7062 -0.0602 -1.2461
 1159TIP3    H224969  -0.040   6.097  13.600  1.4414 -1.5577  0.3955
 1160TIP3   OH224970   4.224   0.177   1.091  0.2779 -0.8249 -0.6667
 1160TIP3    H124971   4.191   0.096   1.131  0.1745  0.2337  1.5359
 1160TIP3    H224972   4.145   0.227   1.071  0.3288 -1.3842 -2.3602
 1161TIP3   OH224973   5.464   4.637   2.804 -0.2211 -0.0421  0.1448
 1161TIP3    H124974   5.438   4.655   2.894  3.0836  0.3422  1.1188
 1161TIP3    H224975   5.386   4.598   2.764 -1.9433  0.2636  2.9814
 1162TIP3   OH224976   5.744   5.543  14.623  0.3348  0.0094  0.2734
 1162TIP3    H124977   5.780   5.613  14.569 -2.4291 -0.0205 -1.8537
 1162TIP3    H224978   5.706   5.588  14.698  1.0733  0.4468  0.3965
 1163TIP3   OH224979   1.860   6.305  15.283  0.1402 -0.5471 -0.3261
 1163TIP3    H124980   1.834   6.216  15.259 -0.6570  0.1556 -2.2588
 1163TIP3    H224981   1.778   6.352  15.295  0.4676  0.6066 -2.1536
 1164TIP3   OH224982   3.391   6.763   6.070  0.3764 -0.5136 -0.0425
 1164TIP3    H124983   3.299   6.745   6.088  0.2710  0.2574  0.2088
 1164TIP3    H224984   3.439   6.711   6.134  0.1688 -1.8877 -0.9638
 1165TIP3   OH224985   2.431   4.107  13.577 -0.1174  0.5640 -0.2884
 1165TIP3    H124986   2.371   4.049  13.530  0.7714 -1.0038  0.4390
 1165TIP3    H224987   2.518   4.074  13.556  0.3979  1.4701  0.3761
 1166TIP3   OH224988   2.649   2.644   1.076 -0.2084  0.4908 -0.1226
 1166TIP3    H124989   2.608   2.669   0.994 -0.7101 -1.4625 -0.4938
 1166TIP3    H224990   2.595   2.686   1.144 -0.3207  1.3597 -0.7371
 1167TIP3   OH224991   0.827   4.957  13.418 -0.0650 -0.4440 -0.1728
 1167TIP3    H124992   0.801   4.897  13.488  0.2804  1.1676  1.4159
 1167TIP3    H224993   0.822   5.044  13.458 -0.5502  0.6178 -2.3912
 1168TIP3   OH224994   3.667   0.917   1.171  0.6949 -0.2548  0.3224
 1168TIP3    H124995   3.572   0.916   1.163  0.0869  2.3340  4.1844
 1168TIP3    H224996   3.692   0.824   1.179 -1.6529 -0.9260  0.4749
 1169TIP3   OH224997   1.340   3.514   2.225 -0.3114 -0.2873  0.1369
 1169TIP3    H124998   1.369   3.519   2.316 -1.4491 -0.9304  0.5674
 1169TIP3    H224999   1.372   3.594   2.184  0.9912 -0.4194  0.8685
 1170TIP3   OH225000   0.616   6.490   6.139 -0.3128  0.4701 -0.6467
 1170TIP3    H125001   0.680   6.443   6.191  0.3990  2.4147  0.3526
 1170TIP3    H225002   0.666   6.558   6.094 -1.1606 -0.1921 -2.7314
 1171TIP3   OH225003   4.261   6.603  12.692 -0.5435 -0.6888 -0.4365
 1171TIP3    H125004   4.203   6.594  12.616 -0.6146 -1.7198 -0.2638
 1171TIP3    H225005   4.288   6.695  12.690  0.6850 -1.0085 -2.6248
 1172TIP3   OH225006   2.613   1.339   4.467  0.0260  0.1421  0.2890
 1172TIP3    H125007   2.689   1.394   4.488  0.2049  0.3802 -0.9128
 1172TIP3    H225008   2.561   1.338   4.548  0.2311  1.7296  0.4716
 1173TIP3   OH225009   5.105   2.629  11.456 -0.0003 -0.1462 -0.3223
 1173TIP3    H125010   5.066   2.580  11.527 -1.0758  1.9462  0.6306
 1173TIP3    H225011   5.194   2.650  11.487  0.5728 -1.6554 -0.8629
 1174TIP3   OH225012   1.307   3.149  12.343  0.1436 -0.5160  0.3579
 1174TIP3    H125013   1.330   3.205  12.418  2.6318 -0.0967 -0.6031
 1174TIP3    H225014   1.385   3.095  12.330  0.2265  0.1590 -2.5394
 1175TIP3   OH225015   0.360   4.738  15.018 -0.0698 -0.0096  0.0553
 1175TIP3    H125016   0.393   4.654  15.049 -1.2210 -1.1093 -1.5248
 1175TIP3    H225017   0.419   4.762  14.947  0.7169  0.9368  1.0030
 1176TIP3   OH225018   4.749   1.587  14.290 -0.2031  0.2957  0.4527
 1176TIP3    H125019   4.782   1.659  14.236 -0.5908  0.5543  0.5595
 1176TIP3    H225020   4.734   1.516  14.228 -0.0178  0.3750  0.3149
 1177TIP3   OH225021   4.177   0.771   0.220 -0.0938 -0.1137 -0.8398
 1177TIP3    H125022   4.167   0.682   0.187  1.3658 -0.5531 -0.1862
 1177TIP3    H225023   4.105   0.781   0.283 -0.6637 -0.5823 -1.3957
 1178TIP3   OH225024   6.725   6.133  16.025  0.3735  0.0695  0.4349
 1178TIP3    H125025   6.645   6.108  15.979  0.5870  0.5107 -0.1928
 1178TIP3    H225026   6.695   6.166  16.110 -0.0685 -0.2149  0.3907
 1179TIP3   OH225027   3.106   5.190  16.497 -0.6579  0.4281 -0.2407
 1179TIP3    H125028   3.135   5.280  16.480  1.6685  0.1412  1.6725
 1179TIP3    H225029   3.047   5.171  16.425 -0.4127  3.1226 -1.3043
 1180TIP3   OH225030   2.539   5.271  12.439 -0.3245 -0.0143  0.5216
 1180TIP3    H125031   2.536   5.245  12.532  0.0141 -1.2753  0.1945
 1180TIP3    H225032   2.587   5.201  12.396 -1.7735 -0.2027 -0.8717
 1181TIP3   OH225033   4.034   0.535  15.892 -0.3773 -0.3878 -0.1200
 1181TIP3    H125034   3.997   0.617  15.859  0.4898 -0.5425 -1.5599
 1181TIP3    H225035   4.085   0.560  15.968 -1.3421  0.1824  0.3587
 1182TIP3   OH225036   2.702   4.918   0.674 -0.0880 -0.8662  0.3876
 1182TIP3    H125037   2.611   4.928   0.700 -0.0859 -2.2348  1.0328
 1182TIP3    H225038   2.731   5.006   0.651 -1.5520 -0.4094  0.2215
 1183TIP3   OH225039   6.055   1.234  13.296  0.3682 -0.2100  0.1530
 1183TIP3    H125040   6.127   1.178  13.328  1.1338 -0.0702 -1.2399
 1183TIP3    H225041   6.070   1.319  13.338  0.9740 -0.2013 -0.0796
 1184TIP3   OH225042   4.630   3.787  14.927  0.2148 -0.1817 -0.1689
 1184TIP3    H125043   4.554   3.749  14.970  0.9613 -2.2506 -0.5701
 1184TIP3    H225044   4.594   3.835  14.852 -0.8167  0.7046  0.8426
 1185TIP3   OH225045   5.994   1.333   3.301  0.1722  0.9885 -0.2803
 1185TIP3    H125046   6.036   1.395   3.362  0.5931 -0.5303  1.0377
 1185TIP3    H225047   6.066   1.293   3.254 -0.1293  1.8068 -1.4775
 1186TIP3   OH225048   2.882   4.664   4.119 -1.1343 -0.0566  0.0023
 1186TIP3    H125049   2.972   4.644   4.093 -1.3288  0.1861 -0.8785
 1186TIP3    H225050   2.872   4.622   4.205  0.1142  0.7334  0.5552
 1187TIP3   OH225051   4.395   4.003  14.083  0.2087 -0.7081 -0.0497
 1187TIP3    H125052   4.356   4.066  14.144 -1.3175 -2.4918  0.8958
 1187TIP3    H225053   4.322   3.971  14.031  0.7555 -2.4784  0.2167
 1188TIP3   OH225054   4.921   1.531  12.613  0.3922  0.0612 -0.0486
 1188TIP3    H125055   4.877   1.447  12.622 -0.5471  0.6247  0.8635
 1188TIP3    H225056   4.852   1.591  12.584  1.0923  0.4926 -0.8759
 1189TIP3   OH225057   5.208   4.862   2.731 -0.0147 -0.4610 -0.1530
 1189TIP3    H125058   5.206   4.844   2.825  0.2185 -1.8632 -0.3838
 1189TIP3    H225059   5.159   4.943   2.721 -0.2100 -0.3925  1.1602
 1190TIP3   OH225060   1.423   6.481  11.906  0.1310  0.0096 -0.2478
 1190TIP3    H125061   1.494   6.440  11.955 -1.1311 -0.7179  1.0406
 1190TIP3    H225062   1.410   6.423  11.831 -0.1320 -0.7254  0.3555
 1191TIP3   OH225063   0.873   3.506   2.862  0.4971  0.8244 -0.1838
 1191TIP3    H125064   0.914   3.442   2.804 -0.7365  0.4070 -0.6290
 1191TIP3    H225065   0.938   3.522   2.930  2.2321  1.7351 -1.9355
 1192TIP3   OH225066   2.848   6.268   4.796  0.1394 -0.3823 -0.4910
 1192TIP3    H125067   2.935   6.271   4.756 -0.3492 -1.5006 -1.6776
 1192TIP3    H225068   2.797   6.331   4.747  0.6892  1.5875  1.3395
 1193TIP3   OH225069   6.442   6.707   1.035  0.3062  0.0816 -0.1399
 1193TIP3    H125070   6.350   6.716   1.010  0.5623 -0.5084 -1.3610
 1193TIP3    H225071   6.440   6.704   1.131 -1.2040 -2.2667 -0.1387
 1194TIP3   OH225072   4.439   4.412  11.148 -0.3743  0.4281 -0.0019
 1194TIP3    H125073   4.469   4.439  11.061  2.1770  0.8487  0.8931
 1194TIP3    H225074   4.512   4.361  11.183 -1.5602 -0.1730  1.6937
 1195TIP3   OH225075   5.176   1.940   0.503  0.0884 -0.1516  0.0142
 1195TIP3    H125076   5.223   1.859   0.481 -0.3859 -0.0609 -1.4653
 1195TIP3    H225077   5.246   2.004   0.516  0.4493 -0.6442  0.5818
 1196TIP3   OH225078   2.626   6.800   2.662  0.6693 -0.2030  0.2137
 1196TIP3    H125079   2.667   6.881   2.631  0.3738  0.1536  0.7382
 1196TIP3    H225080   2.696   6.754   2.707  0.9218 -0.3941 -0.3667
 1197TIP3   OH225081   2.212   3.145  16.140 -0.3165 -0.0671  0.6696
 1197TIP3    H125082   2.181   3.105  16.221  1.3650 -0.1483  1.3232
 1197TIP3    H225083   2.150   3.116  16.073 -0.2500 -2.2066  1.4571
 1198TIP3   OH225084   4.308   0.963   3.600  0.2321  0.4618 -0.6514
 1198TIP3    H125085   4.244   0.968   3.671  0.0145  0.5590 -0.8547
 1198TIP3    H225086   4.302   1.048   3.556 -0.6798 -0.1153 -1.6940
 1199TIP3   OH225087   5.758   2.804  12.530 -0.2211  0.1995 -0.0739
 1199TIP3    H125088   5.843   2.759  12.534 -1.2396 -1.8173  0.6949
 1199TIP3    H225089   5.728   2.788  12.440  0.0020  0.4940 -0.2011
 1200TIP3   OH225090   5.702   2.324   4.029 -0.4867  0.4408  0.7000
 1200TIP3    H125091   5.788   2.360   4.051 -0.7621  1.4911  0.1460
 1200TIP3    H225092   5.720   2.261   3.959  0.0349 -0.7159  1.8454
 1201TIP3   OH225093   0.665   0.724   1.891 -0.3041  0.2995 -0.6808
 1201TIP3    H125094   0.701   0.638   1.869 -3.0814 -1.6019  1.6334
 1201TIP3    H225095   0.706   0.746   1.975 -0.0316  1.0356 -0.9938
 1202TIP3   OH225096   6.331   6.632   6.132 -0.1449  0.2222  0.3232
 1202TIP3    H125097   6.243   6.660   6.160  0.4288  1.3680  1.0385
 1202TIP3    H225098   6.344   6.548   6.175 -0.6139  0.3847  0.7897
 1203TIP3   OH225099   5.475   4.672   3.530 -0.1184 -0.0192 -0.5420
 1203TIP3    H125100   5.420   4.669   3.452  1.8855 -1.3853 -2.0017
 1203TIP3    H225101   5.547   4.611   3.512  1.8117  1.5184  1.3031
 1204TIP3   OH225102   1.821   0.169  14.574 -0.4701 -0.9492 -0.0996
 1204TIP3    H125103   1.854   0.084  14.601  2.0241 -0.3082 -0.8802
 1204TIP3    H225104   1.823   0.222  14.654 -1.0605 -1.3305  0.1732
 1205TIP3   OH225105   3.113   5.746   1.104  0.4541  0.1889  0.3051
 1205TIP3    H125106   3.089   5.707   1.019  2.5013 -2.0965  0.6518
 1205TIP3    H225107   3.046   5.715   1.164  0.6939 -0.8392  0.0776
 1206TIP3   OH225108   2.631   0.115  17.205  0.3147 -0.0162  1.1188
 1206TIP3    H125109   2.589   0.172  17.142 -0.0908 -0.9474  0.5224
 1206TIP3    H225110   2.567   0.046  17.222  1.2068 -0.9093  0.9643
 1207TIP3   OH225111   6.585   3.221  16.075  0.2205 -0.2446 -0.2693
 1207TIP3    H125112   6.523   3.290  16.098  1.0233  1.8087 -3.4933
 1207TIP3    H225113   6.666   3.246  16.120  0.3271  0.6293 -0.9134
 1208TIP3   OH225114   2.974   0.591   4.320 -0.5909  0.0394 -0.4126
 1208TIP3    H125115   2.905   0.527   4.303  2.3731 -3.8555  0.6962
 1208TIP3    H225116   2.993   0.629   4.234 -2.4309 -0.5910 -1.1532
 1209TIP3   OH225117   4.467   4.959  15.042 -0.1153  0.5825 -0.3425
 1209TIP3    H125118   4.407   5.030  15.021 -0.2588  0.9985  1.3510
 1209TIP3    H225119   4.554   4.996  15.027 -0.1110  1.7492  2.1498
 1210TIP3   OH225120   2.293   6.732   4.913  0.1138  0.1766  0.2595
 1210TIP3    H125121   2.365   6.771   4.863 -1.0465  0.2634 -1.4210
 1210TIP3    H225122   2.336   6.686   4.984  1.8782 -0.1987 -0.9843
 1211TIP3   OH225123   0.638   0.781   3.454 -0.5625 -0.0821 -0.4125
 1211TIP3    H125124   0.652   0.821   3.540 -0.8300  0.5064 -0.6364
 1211TIP3    H225125   0.713   0.723   3.442 -1.0290 -0.9372  0.6491
 1212TIP3   OH225126   3.729   3.659  13.786 -0.1523  0.2975 -0.2048
 1212TIP3    H125127   3.650   3.688  13.741  0.6105  0.7609 -1.3205
 1212TIP3    H225128   3.792   3.643  13.715  1.0991  1.0399  0.6824
 1213TIP3   OH225129   6.310   4.532   3.193  0.5937 -0.6679  0.0924
 1213TIP3    H125130   6.382   4.575   3.148 -1.3396  1.9328 -0.7672
 1213TIP3    H225131   6.274   4.472   3.128 -0.5268  1.1111 -1.0133
 1214TIP3   OH225132   0.407   2.842   0.227 -0.1404  0.4736  0.0672
 1214TIP3    H125133   0.328   2.883   0.261 -1.5280 -0.7514 -1.5629
 1214TIP3    H225134   0.429   2.775   0.292 -1.6225 -0.5231 -0.4274
 1215TIP3   OH225135   2.799   0.395  16.830 -0.0584 -0.0236 -0.2419
 1215TIP3    H125136   2.725   0.449  16.856 -0.5457 -1.6380  1.9501
 1215TIP3    H225137   2.772   0.355  16.747 -0.7424  1.0178 -0.5399
 1216TIP3   OH225138   3.577   1.890   0.637  0.1014 -0.0190 -0.1129
 1216TIP3    H125139   3.527   1.966   0.607  1.5260  1.3147  0.7269
 1216TIP3    H225140   3.556   1.821   0.574 -2.4540  0.5696 -0.0037
 1217TIP3   OH225141   2.688   4.399   5.981  0.9447 -0.5458  0.4676
 1217TIP3    H125142   2.696   4.377   6.074 -1.0030  1.5035  1.2045
 1217TIP3    H225143   2.690   4.494   5.978  0.9613 -0.5626 -1.6290
 1218TIP3   OH225144   1.451   0.102   3.616 -0.0596 -0.4331  0.2571
 1218TIP3    H125145   1.384   0.087   3.549  0.4238 -2.7130  0.2178
 1218TIP3    H225146   1.525   0.049   3.588  2.4319  3.0515 -0.4750
 1219TIP3   OH225147   5.048   1.898  10.225 -0.4077 -0.0343  0.5612
 1219TIP3    H125148   5.053   1.804  10.207  2.3796  0.0859  0.3221
 1219TIP3    H225149   5.069   1.905  10.318 -1.9069  0.2985  0.8986
 1220TIP3   OH225150   1.790   2.502  13.593  0.0524  0.0816  0.3120
 1220TIP3    H125151   1.828   2.541  13.672  0.1460  1.6721 -0.4982
 1220TIP3    H225152   1.733   2.569  13.557 -0.1038 -0.6699 -0.9056
 1221TIP3   OH225153   3.043   0.992   6.834  0.1040  0.0325  0.0533
 1221TIP3    H125154   2.995   0.940   6.898 -0.5450  2.2925  1.5136
 1221TIP3    H225155   3.129   1.006   6.873  0.0766  0.5064 -0.0469
 1222TIP3   OH225156   4.426   6.321   4.901 -0.1158 -0.2275 -0.8715
 1222TIP3    H125157   4.395   6.235   4.930 -0.3375 -0.3869 -1.5471
 1222TIP3    H225158   4.389   6.383   4.964 -0.6735 -0.5478 -0.8801
 1223TIP3   OH225159   4.168   2.867  14.273  0.2905  0.7748 -0.2719
 1223TIP3    H125160   4.229   2.938  14.254  0.1697  0.8660 -0.3195
 1223TIP3    H225161   4.199   2.830  14.356  1.0072  0.1730 -0.7846
 1224TIP3   OH225162   5.345   3.641  12.787  0.5039  0.2902  0.0208
 1224TIP3    H125163   5.437   3.645  12.813  0.6498 -0.4172 -0.3414
 1224TIP3    H225164   5.299   3.620  12.868  0.9180 -1.5754 -0.1713
 1225TIP3   OH225165   5.723   0.735  13.743  0.7925  0.1405  0.3060
 1225TIP3    H125166   5.731   0.640  13.738  2.2410  0.2138  0.7856
 1225TIP3    H225167   5.744   0.766  13.655 -0.4920 -0.0025 -0.0737
 1226TIP3   OH225168   1.390   6.064  16.973  0.1501 -0.0719  0.0075
 1226TIP3    H125169   1.308   6.106  16.950 -1.2058 -2.3709  0.2960
 1226TIP3    H225170   1.434   6.050  16.889 -1.2372 -1.5525 -0.5378
 1227TIP3   OH225171   6.728   2.797  13.404 -0.4749 -0.2420 -0.8454
 1227TIP3    H125172   6.771   2.848  13.336  0.1610  1.0998  0.5051
 1227TIP3    H225173   6.639   2.833  13.409 -0.4309 -0.1457 -0.7626
 1228TIP3   OH225174   5.531   0.331  15.305  0.0053 -0.1416  0.3362
 1228TIP3    H125175   5.539   0.241  15.273  1.4816  0.2054 -0.3371
 1228TIP3    H225176   5.437   0.344  15.316 -0.3498 -1.2139 -1.1766
 1229TIP3   OH225177   4.126   2.032   0.216  0.1651  0.3717 -0.0987
 1229TIP3    H125178   4.199   1.973   0.200 -0.8801 -0.8406 -0.5234
 1229TIP3    H225179   4.057   2.003   0.157 -1.5906 -0.1901  2.0738
 1230TIP3   OH225180   6.310   1.514  14.450 -0.3432  0.5364  0.1238
 1230TIP3    H125181   6.348   1.501  14.363  0.9925  1.0437  0.6056
 1230TIP3    H225182   6.258   1.594  14.442  0.0312  0.7545 -0.1229
 1231TIP3   OH225183   4.090   3.849   1.731  0.5247  0.4717  0.1343
 1231TIP3    H125184   4.056   3.938   1.721  0.8091  0.5038 -0.5837
 1231TIP3    H225185   4.034   3.810   1.798 -0.5345  0.7223 -0.5904
 1232TIP3   OH225186   1.396   2.946   4.978 -0.0569 -0.0402  0.7254
 1232TIP3    H125187   1.439   2.931   5.062  1.8264  2.4622  0.2931
 1232TIP3    H225188   1.334   3.017   4.995  0.7008  0.8311 -0.0799
 1233TIP3   OH225189   4.838   1.529  12.237 -0.0284  0.2193 -0.0731
 1233TIP3    H125190   4.821   1.560  12.326  2.5433  0.3207  0.4545
 1233TIP3    H225191   4.866   1.607  12.189  1.4159 -0.3383 -0.1630
 1234TIP3   OH225192   1.977   5.163   0.525  0.1107  0.6096 -0.2740
 1234TIP3    H125193   2.065   5.201   0.523  0.2589  0.2486 -0.9382
 1234TIP3    H225194   1.942   5.180   0.438 -0.9571  1.8312  0.3599
 1235TIP3   OH225195   2.581   4.320   3.038 -0.4241 -0.1878 -0.4550
 1235TIP3    H125196   2.603   4.231   3.065  0.2131  0.0555 -0.1563
 1235TIP3    H225197   2.616   4.375   3.107 -0.1636  0.3449 -1.0021
 1236TIP3   OH225198   6.074   6.463   6.120 -0.1653  0.7169 -0.0475
 1236TIP3    H125199   6.162   6.427   6.111 -0.0840  0.0307  2.7479
 1236TIP3    H225200   6.018   6.403   6.070  0.6751 -0.1060 -0.0112
 1237TIP3   OH225201   3.191   1.366  17.104 -0.2499 -0.2357  0.6288
 1237TIP3    H125202   3.161   1.360  17.195  0.1286 -0.0934  0.7669
 1237TIP3    H225203   3.286   1.355  17.110 -0.0724  1.0054  0.3900
 1238TIP3   OH225204   0.407   5.397  16.450  0.0039 -0.6023 -1.1280
 1238TIP3    H125205   0.353   5.352  16.385  1.6440 -3.2701 -0.8114
 1238TIP3    H225206   0.360   5.385  16.532  0.1905 -1.3566 -1.1244
 1239TIP3   OH225207   0.126   4.482   4.079  0.8275 -0.5260 -0.1804
 1239TIP3    H125208   0.132   4.386   4.072  2.0398 -0.4600 -0.3813
 1239TIP3    H225209   0.097   4.510   3.992 -0.0265 -0.7373  0.0308
 1240TIP3   OH225210   0.230   2.842  15.166 -0.2199 -0.0474  0.4529
 1240TIP3    H125211   0.215   2.925  15.211  2.7669 -0.0850  1.7379
 1240TIP3    H225212   0.259   2.867  15.078 -0.2205  0.2371  0.5334
 1241TIP3   OH225213   1.174   3.736   0.511 -0.0706  0.4053 -0.2925
 1241TIP3    H125214   1.266   3.722   0.487 -0.0562  1.3794 -0.8388
 1241TIP3    H225215   1.176   3.745   0.607  0.7352  2.6453 -0.4766
 1242TIP3   OH225216   0.155   4.598  11.043  0.5539 -0.1294  0.8497
 1242TIP3    H125217   0.165   4.508  11.011  2.6258 -0.1609  1.4307
 1242TIP3    H225218   0.129   4.648  10.966 -1.2300 -1.2951  0.6496
 1243TIP3   OH225219   5.574   0.800   5.445  0.4796  0.7136  0.6286
 1243TIP3    H125220   5.619   0.854   5.379 -1.9346  1.3274 -0.6370
 1243TIP3    H225221   5.614   0.825   5.528  3.0929  0.4938 -0.4638
 1244TIP3   OH225222   3.902   3.216  14.987  0.7733  0.4646  0.1943
 1244TIP3    H125223   3.894   3.124  15.014 -0.8696  0.8407  1.1096
 1244TIP3    H225224   3.833   3.261  15.035  1.4785  2.1783 -0.3323
 1245TIP3   OH225225   4.091   1.104  14.850  0.4802  0.0618  0.4199
 1245TIP3    H125226   4.133   1.186  14.825  2.0557 -0.6319  0.6961
 1245TIP3    H225227   4.096   1.103  14.945 -0.7171  0.2287  0.4998
 1246TIP3   OH225228   3.077   3.792   4.464 -0.3405 -0.1913 -0.2618
 1246TIP3    H125229   3.066   3.826   4.553 -0.2929  0.8251 -0.6279
 1246TIP3    H225230   3.172   3.788   4.451 -0.2722 -2.7458  0.5976
 1247TIP3   OH225231   1.027   2.205   0.839 -0.2422  0.3862 -0.1074
 1247TIP3    H125232   0.979   2.124   0.856 -0.9333  0.7338 -0.3609
 1247TIP3    H225233   0.968   2.274   0.868 -0.3488  0.8671 -1.4115
 1248TIP3   OH225234   5.227   2.624   6.521 -0.1615  0.5465  0.1934
 1248TIP3    H125235   5.271   2.547   6.558  0.2528  0.0319 -1.2906
 1248TIP3    H225236   5.138   2.619   6.554 -0.5713 -1.4377 -1.0217
 1249TIP3   OH225237   2.706   3.577   4.003 -0.2748 -0.5781 -0.5608
 1249TIP3    H125238   2.617   3.540   3.997 -0.2335 -0.8677  0.5008
 1249TIP3    H225239   2.693   3.663   4.043 -0.1314 -0.3549 -0.9863
 1250TIP3   OH225240   2.106   1.542   3.343 -0.0714 -1.0890 -0.0010
 1250TIP3    H125241   2.188   1.512   3.383  0.1939  0.2913  0.5501
 1250TIP3    H225242   2.120   1.530   3.249  0.8883 -0.6289  0.0671
 1251TIP3   OH225243   5.153   4.894   4.868  0.2389 -0.1614 -0.1528
 1251TIP3    H125244   5.148   4.948   4.947 -2.1807 -0.8451  0.2472
 1251TIP3    H225245   5.244   4.863   4.866  0.8210  1.3062  1.3613
 1252TIP3   OH225246   6.438   6.328  17.207  0.0316  1.1870  0.5620
 1252TIP3    H125247   6.509   6.340  17.144 -0.4716 -1.9888 -0.8041
 1252TIP3    H225248   6.472   6.266  17.271 -1.5714 -0.7543 -0.3713
 1253TIP3   OH225249   4.600   4.595   4.415 -0.2829  0.1400 -0.8875
 1253TIP3    H125250   4.534   4.651   4.374 -0.4540 -0.4516 -1.4233
 1253TIP3    H225251   4.573   4.506   4.395 -1.0870 -0.2594  1.5972
 1254TIP3   OH225252   2.834   2.747   2.634  0.6319  0.0402 -0.1739
 1254TIP3    H125253   2.773   2.720   2.566  0.4936  1.4563 -0.6605
 1254TIP3    H225254   2.780   2.755   2.713  0.5457 -0.4127 -0.1856
 1255TIP3   OH225255   5.692   0.923   5.984  0.5079  0.1083 -0.3005
 1255TIP3    H125256   5.691   0.878   6.068  0.9775  1.7085  0.6068
 1255TIP3    H225257   5.705   1.015   6.006  1.0107  0.5285 -2.1481
 1256TIP3   OH225258   1.638   6.301  14.734 -0.2522 -0.5224  0.0501
 1256TIP3    H125259   1.558   6.251  14.754  0.8993 -1.7944  1.7446
 1256TIP3    H225260   1.642   6.368  14.802 -1.2941  1.3906 -1.6755
 1257TIP3   OH225261   3.844   3.801  14.841 -0.0543  0.2400  0.0589
 1257TIP3    H125262   3.767   3.857  14.843 -0.4490 -0.3019  0.1300
 1257TIP3    H225263   3.888   3.817  14.925 -0.3530  0.1821  0.2266
 1258TIP3   OH225264   4.370   2.712   4.545 -0.2943  0.1036  0.0893
 1258TIP3    H125265   4.430   2.646   4.509 -0.1951  0.8841 -1.2431
 1258TIP3    H225266   4.422   2.793   4.546 -0.6309  0.3259  1.0699
 1259TIP3   OH225267   1.297   4.964   0.733  0.3612  0.2988  0.1406
 1259TIP3    H125268   1.267   4.965   0.642  0.1700  0.6823  0.2075
 1259TIP3    H225269   1.383   5.006   0.731  0.8021 -0.5804 -0.0126
 1260TIP3   OH225270   2.452   1.334   4.671  0.2560 -1.2086 -0.7697
 1260TIP3    H125271   2.439   1.343   4.765 -0.2957  2.8910 -1.0596
 1260TIP3    H225272   2.364   1.341   4.634  0.7641  1.1454 -1.6805
 1261TIP3   OH225273   1.265   2.524  11.175 -0.0357  0.4570 -0.3585
 1261TIP3    H125274   1.251   2.454  11.239  1.8121 -0.3225 -0.7361
 1261TIP3    H225275   1.286   2.601  11.227 -1.2710  0.5532  0.0326
 1262TIP3   OH225276   6.810   2.457  10.306  0.5630  0.2899  0.2316
 1262TIP3    H125277   6.810   2.538  10.255  1.3011 -1.6961 -3.2486
 1262TIP3    H225278   6.890   2.462  10.359  1.7293  0.9991 -1.4911
 1263TIP3   OH225279   4.185   1.717  15.343 -0.6478  0.5139 -0.0135
 1263TIP3    H125280   4.226   1.799  15.316 -0.2312  0.1159 -0.6100
 1263TIP3    H225281   4.094   1.740  15.360 -1.2769  0.6205 -2.9373
 1264TIP3   OH225282   5.425   4.182   4.656  0.8931  0.0277  0.3250
 1264TIP3    H125283   5.341   4.225   4.669  1.6114  1.5797  0.1145
 1264TIP3    H225284   5.429   4.114   4.724 -0.7247 -0.4247 -0.0068
 1265TIP3   OH225285   4.585   3.624  17.143 -0.0367 -0.6545 -0.2013
 1265TIP3    H125286   4.667   3.632  17.191  0.0680 -0.8700 -0.3401
 1265TIP3    H225287   4.562   3.531  17.150 -0.1272 -0.6482 -0.3874
 1266TIP3   OH225288   2.426   1.453  17.280  0.0420  0.4092  0.2697
 1266TIP3    H125289   2.478   1.525  17.314  0.3608  0.1034  0.4372
 1266TIP3    H225290   2.489   1.395  17.238 -0.2737  0.4828 -0.3295
 1267TIP3   OH225291   5.486   4.410   1.512  0.6363 -0.4806  0.3730
 1267TIP3    H125292   5.409   4.384   1.462  0.8795 -0.2498 -0.1317
 1267TIP3    H225293   5.559   4.363   1.470  1.0304  0.6974 -0.3187
 1268TIP3   OH225294   0.016   5.390   0.324  0.6778 -0.1680 -0.1902
 1268TIP3    H125295   0.000   5.297   0.342  1.0616 -0.0127  0.9846
 1268TIP3    H225296   0.071   5.390   0.245  1.3486 -0.9758  0.2621
 1269TIP3   OH225297   1.655   3.774  11.398 -0.4096 -0.3412  0.2945
 1269TIP3    H125298   1.634   3.844  11.335 -1.2732  0.2086  1.1708
 1269TIP3    H225299   1.699   3.707  11.345  2.3407  1.6908 -0.2429
 1270TIP3   OH225300   4.865   4.759   2.185  0.0421  0.1362  0.4942
 1270TIP3    H125301   4.913   4.757   2.102  1.9288  2.4749  1.4175
 1270TIP3    H225302   4.916   4.702   2.243 -0.1293  0.0915  0.6014
 1271TIP3   OH225303   3.600   3.339  15.708  0.1645  0.2836 -0.1112
 1271TIP3    H125304   3.571   3.301  15.791  0.2282 -0.8219 -0.5732
 1271TIP3    H225305   3.565   3.280  15.642  0.6049  0.8342 -0.8434
 1272TIP3   OH225306   3.119   1.474  13.069  0.7536 -0.1804  0.0016
 1272TIP3    H125307   3.079   1.467  12.983  0.1640  3.4575 -0.1810
 1272TIP3    H225308   3.055   1.436  13.129 -0.1233 -0.1539 -0.8919
 1273TIP3   OH225309   0.999   3.658  12.716  0.0186 -0.0106 -0.4585
 1273TIP3    H125310   0.991   3.740  12.668 -0.1142 -0.9721 -2.1755
 1273TIP3    H225311   0.911   3.639  12.746  0.3840  1.4737  1.8143
 1274TIP3   OH225312   4.123   3.735   3.823 -0.1095  0.0221  0.3501
 1274TIP3    H125313   4.196   3.744   3.762  0.1089  1.0294  0.7279
 1274TIP3    H225314   4.115   3.641   3.838 -0.0577 -0.2342 -1.0792
 1275TIP3   OH225315   5.421   5.918   5.132 -0.2294  0.0737 -0.2914
 1275TIP3    H125316   5.502   5.936   5.085  0.7932  1.5599  1.8812
 1275TIP3    H225317   5.434   5.832   5.172  0.3345  0.3594  0.1439
 1276TIP3   OH225318   5.207   1.817  16.344  0.2823  0.5008 -0.1395
 1276TIP3    H125319   5.137   1.771  16.389  0.8092  1.1671  1.4397
 1276TIP3    H225320   5.271   1.748  16.324  0.0973  0.2060  0.2624
 1277TIP3   OH225321   1.659   2.968  11.228 -0.9242 -0.2611 -0.8860
 1277TIP3    H125322   1.650   3.038  11.162 -1.8338  1.2146  0.7245
 1277TIP3    H225323   1.751   2.944  11.225 -0.5038  1.2928 -1.2107
 1278TIP3   OH225324   6.462   1.256   3.779 -0.1816 -0.3249 -0.0215
 1278TIP3    H125325   6.475   1.168   3.743 -0.6549 -0.7375  0.8048
 1278TIP3    H225326   6.519   1.260   3.855  0.7271  0.5101 -0.7302
 1279TIP3   OH225327   0.144   0.686   0.613  0.1540  0.0108 -0.1509
 1279TIP3    H125328   0.063   0.634   0.613  0.9683 -1.3079 -0.1524
 1279TIP3    H225329   0.214   0.621   0.604  1.1741  1.2102 -1.2213
 1280TIP3   OH225330   1.205   0.837  16.869  0.2890  0.0449 -0.6615
 1280TIP3    H125331   1.244   0.819  16.784  0.2010 -0.9150 -0.5153
 1280TIP3    H225332   1.120   0.792  16.866 -0.6781  1.8063 -0.8500
 1281TIP3   OH225333   3.201   2.175   4.357  0.3190 -0.3499  0.3054
 1281TIP3    H125334   3.183   2.126   4.277 -0.2612  1.0420 -0.4646
 1281TIP3    H225335   3.243   2.255   4.327  0.1849  0.1495  1.3985
 1282TIP3   OH225336   2.031   2.102  11.298  0.2875 -0.3673 -0.0908
 1282TIP3    H125337   2.118   2.064  11.293 -0.4255 -1.9964 -1.7124
 1282TIP3    H225338   2.011   2.128  11.208 -0.5932  0.7514  0.3981
 1283TIP3   OH225339   5.760   5.604  16.211 -0.1295  0.4037 -0.1560
 1283TIP3    H125340   5.808   5.684  16.192  1.2515 -0.2283  0.5122
 1283TIP3    H225341   5.825   5.534  16.201 -1.3378 -0.6607 -0.8837
 1284TIP3   OH225342   4.362   5.922   3.712  0.2837  0.3923 -0.3033
 1284TIP3    H125343   4.280   5.919   3.762  0.4034  1.3715 -0.0363
 1284TIP3    H225344   4.381   5.830   3.693 -0.2306  0.0672  0.6862
 1285TIP3   OH225345   0.148   5.836  11.221 -0.0734 -0.5488  0.1327
 1285TIP3    H125346   0.157   5.744  11.246 -1.5074 -1.6288 -2.8654
 1285TIP3    H225347   0.223   5.853  11.164  0.4292  0.3451  1.0137
 1286TIP3   OH225348   6.690   4.961  12.499  0.0310 -0.3396 -0.6882
 1286TIP3    H125349   6.721   4.927  12.415  0.5652 -0.4477 -0.4473
 1286TIP3    H225350   6.610   4.911  12.517  0.9003 -1.6058 -0.2456
 1287TIP3   OH225351   5.817   5.513  15.320 -0.7494  0.0775  0.0096
 1287TIP3    H125352   5.848   5.429  15.353  0.7542  0.3479 -0.6207
 1287TIP3    H225353   5.770   5.552  15.393 -4.0816 -2.5060 -0.5275
 1288TIP3   OH225354   1.336   3.258  14.509  0.2655  0.0471 -0.2151
 1288TIP3    H125355   1.317   3.164  14.505  2.9026 -0.5694 -0.0732
 1288TIP3    H225356   1.339   3.286  14.418  1.6939 -0.5467 -0.3707
 1289TIP3   OH225357   6.504   5.183   0.618 -0.3470  0.0309  0.3909
 1289TIP3    H125358   6.486   5.257   0.560  1.0221 -0.5333 -0.8128
 1289TIP3    H225359   6.590   5.151   0.590 -0.2182 -1.0544  1.9172
 1290TIP3   OH225360   0.053   2.056   6.649 -0.2935 -0.1785 -0.9243
 1290TIP3    H125361   0.097   2.120   6.594 -0.2085 -0.6769 -1.4535
 1290TIP3    H225362   0.088   1.972   6.619 -0.3836 -0.4662 -0.2268
 1291TIP3   OH225363   6.616   4.483   4.787 -0.0696 -0.5097  0.3920
 1291TIP3    H125364   6.627   4.574   4.812 -1.6471 -0.5428  1.3177
 1291TIP3    H225365   6.636   4.481   4.693  0.4067  0.6943  0.4603
 1292TIP3   OH225366   5.439   0.288   4.333  0.2118  0.4883  0.2209
 1292TIP3    H125367   5.358   0.333   4.355  0.1631 -0.4783  2.2788
 1292TIP3    H225368   5.497   0.306   4.407  1.3150 -0.1527 -0.4576
 1293TIP3   OH225369   0.754   5.239  14.470  0.6670 -0.6425 -0.3237
 1293TIP3    H125370   0.719   5.199  14.550 -0.5346 -1.9229 -1.4296
 1293TIP3    H225371   0.846   5.256  14.490 -0.1901  1.5799  2.2218
 1294TIP3   OH225372   5.200   6.672   3.450 -0.0593  0.2194 -0.5960
 1294TIP3    H125373   5.143   6.715   3.514  0.7081  0.1267  0.1743
 1294TIP3    H225374   5.147   6.600   3.415 -0.2811 -0.1361  0.4252
 1295TIP3   OH225375   3.604   0.654  13.165  0.2099  0.0899 -0.2244
 1295TIP3    H125376   3.569   0.673  13.252  0.6409  0.7124 -0.1782
 1295TIP3    H225377   3.527   0.640  13.111 -0.0524 -1.8040  0.5628
 1296TIP3   OH225378   4.547   6.613   2.355 -0.3609 -0.0016  0.3587
 1296TIP3    H125379   4.638   6.640   2.365 -0.1875 -0.5005  0.1536
 1296TIP3    H225380   4.536   6.541   2.417 -0.3448 -0.5712 -0.2796
 1297TIP3   OH225381   2.361   2.663  15.546  0.4819 -0.0167 -0.1760
 1297TIP3    H125382   2.418   2.611  15.489  1.1468 -0.5857  0.9635
 1297TIP3    H225383   2.287   2.604  15.565  0.8117 -0.2414  0.4291
 1298TIP3   OH225384   3.837   1.044  14.914  0.2124 -0.6560 -0.0756
 1298TIP3    H125385   3.899   1.105  14.874  0.0498 -0.5034 -0.0897
 1298TIP3    H225386   3.838   1.066  15.007  1.4342 -1.7311  0.2055
 1299TIP3   OH225387   5.408   2.255  15.548 -0.0886  0.2963 -0.5954
 1299TIP3    H125388   5.494   2.285  15.577 -1.1871  1.0526  2.1230
 1299TIP3    H225389   5.403   2.165  15.580 -0.2827  0.2109 -0.8657
 1300TIP3   OH225390   0.370   5.764   5.328 -0.4329  0.3874 -0.2198
 1300TIP3    H125391   0.312   5.839   5.339 -0.2595  0.8594 -2.1195
 1300TIP3    H225392   0.362   5.741   5.235 -1.2045 -2.5762  0.5081
 1301TIP3   OH225393   4.090   2.866  11.651 -0.4434 -0.5917 -0.2710
 1301TIP3    H125394   4.048   2.781  11.638  0.4298 -1.3142  1.3332
 1301TIP3    H225395   4.179   2.854  11.618  0.5480 -1.2233  2.3762
 1302TIP3   OH225396   5.794   4.190  13.667  0.6532 -0.1182  0.1705
 1302TIP3    H125397   5.824   4.167  13.579  0.6020 -1.3899  0.4574
 1302TIP3    H225398   5.711   4.142  13.677  0.5330  0.2115  0.8185
 1303TIP3   OH225399   5.403   4.317  11.626  0.2871 -0.3344 -0.6047
 1303TIP3    H125400   5.436   4.383  11.565 -2.0093  0.7571 -0.7511
 1303TIP3    H225401   5.481   4.266  11.650  1.8528  1.3971 -1.7195
 1304TIP3   OH225402   2.806   1.309   3.923  0.1288  0.1488  0.3799
 1304TIP3    H125403   2.863   1.384   3.942  1.3260 -0.6877  0.2183
 1304TIP3    H225404   2.754   1.298   4.002  1.0098  0.2372  0.9831
 1305TIP3   OH225405   5.153   3.623   3.455 -0.7414  0.4218  0.2635
 1305TIP3    H125406   5.218   3.691   3.474 -0.9334  0.2090  1.8040
 1305TIP3    H225407   5.118   3.599   3.541 -1.3200 -0.9866 -0.3432
 1306TIP3   OH225408   4.031   4.901  13.776 -0.3978  0.3410  0.0773
 1306TIP3    H125409   3.951   4.905  13.828 -0.2156 -3.4959  0.9365
 1306TIP3    H225410   4.100   4.877  13.838  0.4525 -1.1382 -1.3633
 1307TIP3   OH225411   3.510   5.838   0.476 -0.3288 -0.8798 -0.0349
 1307TIP3    H125412   3.544   5.897   0.409 -0.9640 -0.1200  0.2904
 1307TIP3    H225413   3.418   5.826   0.453 -0.2574 -1.5770  0.0280
 1308TIP3   OH225414   3.427   3.535  15.445  0.0634 -0.8103 -1.2087
 1308TIP3    H125415   3.389   3.510  15.361 -1.0859 -0.7666 -0.7194
 1308TIP3    H225416   3.469   3.620  15.427 -0.6512 -0.5320 -1.6157
 1309TIP3   OH225417   4.528   5.863  15.188  0.4416  0.2100  0.1681
 1309TIP3    H125418   4.472   5.939  15.200  0.9781  0.8953 -1.3913
 1309TIP3    H225419   4.613   5.891  15.223  0.6216  0.3278 -0.3482
 1310TIP3   OH225420   3.017   6.377  10.451 -0.2400 -0.7027 -0.5492
 1310TIP3    H125421   2.989   6.287  10.434 -3.6800  0.0525  0.4198
 1310TIP3    H225422   2.999   6.390  10.544 -0.2427  1.1221 -0.7728
 1311TIP3   OH225423   2.444   4.739  13.299  0.1013  0.7509  0.1976
 1311TIP3    H125424   2.491   4.656  13.306 -1.0085  0.0462 -0.3627
 1311TIP3    H225425   2.513   4.804  13.290  0.9966 -0.1178  0.5124
 1312TIP3   OH225426   6.021   6.171  15.124 -0.6034 -0.5892 -0.0466
 1312TIP3    H125427   6.083   6.101  15.101 -0.1388  0.1278 -1.0442
 1312TIP3    H225428   5.971   6.135  15.197  0.7691 -1.3189  0.5727
 1313TIP3   OH225429   5.859   0.102   0.991  0.0848 -0.0773  0.6449
 1313TIP3    H125430   5.834   0.015   1.021  1.9927 -0.4246  1.3674
 1313TIP3    H225431   5.777   0.143   0.964 -1.1136 -1.3668  2.1634
 1314TIP3   OH225432   6.431   3.499  12.399 -0.1252  0.2700 -0.1027
 1314TIP3    H125433   6.501   3.509  12.335  0.1522 -1.0064 -0.0096
 1314TIP3    H225434   6.464   3.542  12.478  0.0566  0.7003 -0.4051
 1315TIP3   OH225435   2.558   3.520   4.531  0.1630  0.0769  0.2289
 1315TIP3    H125436   2.591   3.483   4.613  4.3670  2.4364 -0.0812
 1315TIP3    H225437   2.489   3.580   4.557  2.3278  1.8177  2.3604
 1316TIP3   OH225438   6.474   2.275   4.357  0.5932 -0.3211  0.4692
 1316TIP3    H125439   6.455   2.237   4.443  1.1743 -2.9839 -0.4816
 1316TIP3    H225440   6.569   2.285   4.355  0.4994  0.6621  0.4695
 1317TIP3   OH225441   1.103   5.922  15.851  0.0296  0.0759  0.0483
 1317TIP3    H125442   1.117   5.839  15.896 -1.8601 -0.7534 -0.7868
 1317TIP3    H225443   1.052   5.975  15.912  0.1313  0.1356  0.0819
 1318TIP3   OH225444   6.196   1.920   5.549 -0.0869 -0.2429 -0.9287
 1318TIP3    H125445   6.214   1.876   5.632  2.3655  1.1094 -0.6364
 1318TIP3    H225446   6.133   1.863   5.505  0.7742 -2.5405  0.6011
 1319TIP3   OH225447   6.735   5.322  11.588  0.3756 -0.0833 -0.2124
 1319TIP3    H125448   6.660   5.302  11.532  0.5463  0.2024 -0.5498
 1319TIP3    H225449   6.711   5.402  11.634 -0.4270 -1.1779  1.3599
 1320TIP3   OH225450   4.606   6.197  12.803 -0.4520 -0.3020 -0.1804
 1320TIP3    H125451   4.576   6.115  12.763  0.8129 -1.0251  0.2908
 1320TIP3    H225452   4.529   6.253  12.803 -0.4594  0.0238 -4.1870
 1321TIP3   OH225453   0.727   0.457  15.246  0.1034  0.1527 -0.5280
 1321TIP3    H125454   0.699   0.394  15.312 -0.5584  1.3856  0.4096
 1321TIP3    H225455   0.675   0.435  15.168  0.1600 -0.6797 -0.3418
 1322TIP3   OH225456   6.599   0.719  12.796  0.4013 -0.2304  0.0631
 1322TIP3    H125457   6.541   0.795  12.790  1.3156  0.3691 -2.9228
 1322TIP3    H225458   6.615   0.708  12.889 -1.8070  1.6401  0.7483
 1323TIP3   OH225459   4.241   0.544  16.661  0.0137  0.1139  0.0005
 1323TIP3    H125460   4.281   0.561  16.746  0.3831 -0.9156  0.0398
 1323TIP3    H225461   4.278   0.461  16.632 -1.0566 -0.1888 -0.5891
 1324TIP3   OH225462   4.387   1.390   0.096 -0.4202  0.0410 -0.0025
 1324TIP3    H125463   4.371   1.335   0.172 -0.3627  0.4479  0.3051
 1324TIP3    H225464   4.473   1.363   0.064  0.1563  0.8037  0.8836
 1325TIP3   OH225465   0.546   3.377   2.562 -0.3504 -0.6910 -0.8197
 1325TIP3    H125466   0.569   3.436   2.490  1.2644  1.5326  1.3450
 1325TIP3    H225467   0.483   3.426   2.615 -1.2100 -2.1136 -0.4627
 1326TIP3   OH225468   4.324   3.517  12.782  0.3955 -0.5461 -0.2107
 1326TIP3    H125469   4.228   3.526  12.780  0.4077  1.5876 -4.9727
 1326TIP3    H225470   4.340   3.427  12.754 -0.0632 -1.4620  2.2076
 1327TIP3   OH225471   6.200   3.032  11.335 -0.1985  0.6123 -0.1456
 1327TIP3    H125472   6.258   3.090  11.384 -0.4775 -0.4134  1.4726
 1327TIP3    H225473   6.238   3.028  11.248  0.0696  2.8476 -0.1748
 1328TIP3   OH225474   2.423   6.335   1.717 -0.4730 -0.0559 -0.2132
 1328TIP3    H125475   2.407   6.276   1.644  1.1702 -1.1676  0.2815
 1328TIP3    H225476   2.374   6.296   1.790  0.3026 -0.6288  0.0153
 1329TIP3   OH225477   2.855   0.398  15.656  0.2608 -0.0009  0.1349
 1329TIP3    H125478   2.785   0.462  15.644  1.4140  0.8534 -3.2521
 1329TIP3    H225479   2.850   0.342  15.578  1.1172 -2.2622  1.5859
 1330TIP3   OH225480   6.425   0.022  14.012 -0.4582 -0.1101  0.4506
 1330TIP3    H125481   6.490   0.030  13.941  0.3650  2.2675  1.3490
 1330TIP3    H225482   6.477  -0.002  14.089 -1.4171 -3.1887  0.2362
 1331TIP3   OH225483   5.071   6.497  12.873 -0.0708  0.6436  1.0955
 1331TIP3    H125484   5.052   6.569  12.813 -2.0815 -1.6054 -1.2079
 1331TIP3    H225485   5.140   6.447  12.829  0.0108  0.1719  1.7379
 1332TIP3   OH225486   0.296   0.826  12.296 -0.5060  0.4663 -0.1940
 1332TIP3    H125487   0.205   0.854  12.305 -0.2067  1.9592 -1.4440
 1332TIP3    H225488   0.297   0.772  12.217 -0.7694 -1.9076  1.3192
 1333TIP3   OH225489   2.444   3.929   0.774 -0.3232 -0.9316 -0.7029
 1333TIP3    H125490   2.407   3.939   0.862  0.2675 -1.0924 -0.4339
 1333TIP3    H225491   2.386   3.866   0.731 -0.3125 -1.2455 -0.2585
 1334TIP3   OH225492   1.267   1.202  12.845 -0.6129 -0.7334  0.0557
 1334TIP3    H125493   1.294   1.160  12.764 -2.0268  2.7781 -2.5278
 1334TIP3    H225494   1.348   1.215  12.894  0.5558 -1.3781 -1.6317
 1335TIP3   OH225495   1.512   1.295  15.943  0.1038 -0.2907 -0.1317
 1335TIP3    H125496   1.485   1.386  15.929  2.4142  0.1960 -2.3831
 1335TIP3    H225497   1.439   1.243  15.912 -0.8422  0.7784  0.2027
 1336TIP3   OH225498   0.010   1.044   1.183  0.3941 -0.0583 -0.0318
 1336TIP3    H125499  -0.035   1.022   1.265  1.0865  0.9156  0.6381
 1336TIP3    H225500   0.021   0.960   1.139 -0.8196 -0.4891  0.4291
 1337TIP3   OH225501   5.376   4.018   1.596 -0.1037 -0.4148  0.4104
 1337TIP3    H125502   5.354   4.032   1.688  0.2167 -0.1897  0.4557
 1337TIP3    H225503   5.339   3.932   1.575 -2.0733  0.4299  0.1537
 1338TIP3   OH225504   0.960   1.635   0.844  0.4066  0.2566 -0.0867
 1338TIP3    H125505   1.035   1.666   0.894  0.6038  1.4833 -1.1243
 1338TIP3    H225506   0.988   1.552   0.807  1.1949  0.6347 -0.3408
 1339TIP3   OH225507   3.579   3.523   2.547  0.9349  0.4184  0.0975
 1339TIP3    H125508   3.487   3.549   2.543  0.8818  0.2870  0.4049
 1339TIP3    H225509   3.581   3.453   2.613  1.2790  0.5259  0.2036
 1340TIP3   OH225510   0.823   6.108  12.071 -0.4351 -0.2729  0.4671
 1340TIP3    H125511   0.744   6.080  12.025  0.0148 -1.3498  0.3251
 1340TIP3    H225512   0.792   6.134  12.158 -0.8697 -1.3108  0.6365
 1341TIP3   OH225513   4.534   6.442  16.214 -1.3713 -1.2705 -0.4174
 1341TIP3    H125514   4.503   6.362  16.257 -4.5651 -0.8455 -1.6010
 1341TIP3    H225515   4.593   6.410  16.145 -1.8999 -2.5577 -0.3188
 1342TIP3   OH225516   0.405   5.935   5.726  0.3512 -0.1630  0.2232
 1342TIP3    H125517   0.394   5.844   5.700  1.8211 -0.3693  0.2447
 1342TIP3    H225518   0.413   5.932   5.821 -3.0408  0.3915  0.6546
 1343TIP3   OH225519   5.454   4.471   0.861 -0.0858 -0.1613  0.3558
 1343TIP3    H125520   5.405   4.553   0.852  0.0580  0.0423  1.2886
 1343TIP3    H225521   5.387   4.405   0.879 -0.1747 -0.1978 -0.1079
 1344TIP3   OH225522   0.981   1.375  16.273  0.2986  0.1685  0.6327
 1344TIP3    H125523   0.971   1.460  16.230 -1.1569  0.8325  2.1707
 1344TIP3    H225524   1.005   1.315  16.202 -4.0173  0.7300 -1.6624
 1345TIP3   OH225525   0.369   3.142  13.540 -0.1531 -0.0412 -0.4277
 1345TIP3    H125526   0.317   3.121  13.462  1.5401 -0.5285 -1.4561
 1345TIP3    H225527   0.388   3.057  13.579  0.6151  0.0716 -0.5576
 1346TIP3   OH225528   1.416   0.650  14.673 -0.3760  0.4315 -0.3061
 1346TIP3    H125529   1.349   0.660  14.741  1.6677  0.6906  1.8287
 1346TIP3    H225530   1.368   0.655  14.591 -3.0466 -0.2152  1.0907
 1347TIP3   OH225531   3.461   6.122  12.999  0.2711  0.3330 -0.0235
 1347TIP3    H125532   3.377   6.079  13.012  0.5643  0.1293  1.4000
 1347TIP3    H225533   3.526   6.053  13.015  0.7190  0.6700 -0.3534
 1348TIP3   OH225534   5.962   5.373   0.100 -0.3468  0.6412 -0.1733
 1348TIP3    H125535   5.895   5.313   0.069 -0.1712  0.3407  0.0220
 1348TIP3    H225536   5.948   5.379   0.194 -0.0026  0.4530 -0.1085
 1349TIP3   OH225537   6.618   6.093  11.465 -0.3801 -0.8309  0.1512
 1349TIP3    H125538   6.712   6.091  11.445 -0.3036  0.2408  0.3364
 1349TIP3    H225539   6.605   6.020  11.525  0.3429 -0.9919  0.1206
 1350TIP3   OH225540   2.339   2.946   4.264 -0.1104  0.6453 -0.2073
 1350TIP3    H125541   2.340   2.858   4.301 -0.1560  0.5703 -0.3867
 1350TIP3    H225542   2.263   2.988   4.305  0.0977  0.7092  0.1252
 1351TIP3   OH225543   6.243   1.933  14.599  0.5505 -0.4930 -0.7058
 1351TIP3    H125544   6.272   1.887  14.678 -0.0535 -0.7145 -0.6085
 1351TIP3    H225545   6.302   2.008  14.592  0.4538 -0.3369  0.0911
 1352TIP3   OH225546   5.260   2.057  14.316 -0.2524  0.1209 -0.5826
 1352TIP3    H125547   5.328   2.124  14.311 -0.7929  0.6871 -0.6052
 1352TIP3    H225548   5.304   1.976  14.292  0.3414  0.5258 -0.9100
 1353TIP3   OH225549   1.475   5.314  14.071  0.4430  0.3938 -0.5643
 1353TIP3    H125550   1.466   5.262  13.991  0.8910 -0.0210 -0.3542
 1353TIP3    H225551   1.417   5.272  14.134 -0.8336  1.4373 -1.0023
 1354TIP3   OH225552   4.279   3.500   0.679  0.1987  0.3419  0.0253
 1354TIP3    H125553   4.254   3.425   0.733  2.1380  0.7316  1.5773
 1354TIP3    H225554   4.289   3.464   0.591  0.5996 -1.1125  0.6396
 1355TIP3   OH225555   0.490   3.556   1.991 -0.0847 -0.3804  0.1078
 1355TIP3    H125556   0.558   3.501   1.954  0.0553 -0.7396  0.8670
 1355TIP3    H225557   0.426   3.495   2.028 -0.8413 -0.0488 -0.6242
 1356TIP3   OH225558   0.468   4.817   1.243 -0.0216 -0.1977 -0.4572
 1356TIP3    H125559   0.466   4.727   1.275  1.6405  0.2499  1.1071
 1356TIP3    H225560   0.417   4.867   1.307 -1.8495 -0.1303 -1.8971
 1357TIP3   OH225561   1.987   0.748  16.750  0.4092  0.4774  0.6235
 1357TIP3    H125562   1.991   0.677  16.814 -0.4194  1.4819  1.8290
 1357TIP3    H225563   1.926   0.717  16.684  1.1659 -0.5160  0.3688
 1358TIP3   OH225564   0.441   4.895   2.904  0.0625  0.1657  0.2097
 1358TIP3    H125565   0.514   4.840   2.933 -0.1012 -0.1220  0.0756
 1358TIP3    H225566   0.467   4.984   2.930  0.8267  0.1781 -0.5493
 1359TIP3   OH225567   6.360   4.152  13.017 -0.1471 -0.2263  0.4763
 1359TIP3    H125568   6.276   4.107  13.018 -0.1729 -0.3099 -1.4578
 1359TIP3    H225569   6.410   4.107  12.948  1.1848  0.3376  1.0413
 1360TIP3   OH225570   6.061   3.340   1.723 -0.3015  0.3345  0.9786
 1360TIP3    H125571   6.147   3.366   1.756 -0.1586  0.5958  0.4159
 1360TIP3    H225572   6.002   3.352   1.797 -0.1681  1.8897  0.8641
 1361TIP3   OH225573   4.434   4.183  11.728 -0.3083 -0.2243 -0.4261
 1361TIP3    H125574   4.505   4.187  11.664 -1.0720 -0.7858 -1.3130
 1361TIP3    H225575   4.354   4.186  11.676 -0.9419 -0.2247  0.5290
 1362TIP3   OH225576   3.781   5.348   5.347  0.4498  0.2686 -0.6758
 1362TIP3    H125577   3.760   5.441   5.340  1.8099  0.6891  0.4074
 1362TIP3    H225578   3.865   5.339   5.302  1.0077 -0.1538  0.4184
 1363TIP3   OH225579   1.502   6.402   0.138 -0.1839 -0.1554 -0.0066
 1363TIP3    H125580   1.412   6.391   0.108 -0.5223  1.8613  0.0673
 1363TIP3    H225581   1.555   6.398   0.059 -0.5527  0.4167 -0.2894
 1364TIP3   OH225582   5.609   4.366  16.798  0.2466  1.0236 -0.3379
 1364TIP3    H125583   5.528   4.357  16.748  0.7640 -0.6749 -0.9261
 1364TIP3    H225584   5.674   4.393  16.733  0.8506 -0.8819 -0.5714
 1365TIP3   OH225585   5.239   2.594  13.873 -0.2070  0.1721  0.3963
 1365TIP3    H125586   5.324   2.638  13.880  0.2408 -0.5631 -0.3393
 1365TIP3    H225587   5.241   2.551  13.788 -2.8094  3.2544 -1.4334
 1366TIP3   OH225588   4.135   6.125   0.801 -0.2308  0.1904  0.0339
 1366TIP3    H125589   4.067   6.162   0.857 -0.9400  0.4416 -0.9649
 1366TIP3    H225590   4.141   6.185   0.727  0.6037 -0.1987 -0.2329
 1367TIP3   OH225591   6.550   2.055  15.302 -0.3986 -0.0605  0.4159
 1367TIP3    H125592   6.635   2.072  15.343 -0.2083 -0.0321  0.0146
 1367TIP3    H225593   6.541   1.960  15.306  0.9801 -0.3794 -2.0962
 1368TIP3   OH225594   2.466   0.219   2.045 -0.0571 -0.1228 -0.3482
 1368TIP3    H125595   2.388   0.210   2.100 -0.5475  1.0721 -0.7987
 1368TIP3    H225596   2.539   0.192   2.101 -0.7741 -1.1510  0.1137
 1369TIP3   OH225597   0.688   4.223   6.482  0.3683 -0.2924 -0.6209
 1369TIP3    H125598   0.679   4.243   6.576  1.2807  0.3157 -0.6497
 1369TIP3    H225599   0.759   4.280   6.452 -1.4016  1.2051 -2.2006
 1370TIP3   OH225600   3.783   5.249  10.926  0.4235  0.1450 -0.3000
 1370TIP3    H125601   3.850   5.192  10.888  0.5927  2.4798 -4.0400
 1370TIP3    H225602   3.704   5.229  10.877  0.4416  2.8206 -1.5715
 1371TIP3   OH225603   1.210   1.523  12.375  0.3545  0.0683 -0.8274
 1371TIP3    H125604   1.256   1.440  12.388  2.2580  1.0566 -0.8693
 1371TIP3    H225605   1.252   1.562  12.298 -0.4205  1.1316 -0.7401
 1372TIP3   OH225606   1.377   5.470  16.916 -0.1779  0.3094  0.1079
 1372TIP3    H125607   1.417   5.386  16.894 -0.2810 -0.2655  1.9834
 1372TIP3    H225608   1.283   5.455  16.904 -0.4610 -0.7319  2.9303
 1373TIP3   OH225609   6.770   0.708  13.973  0.1167 -0.0185  0.2945
 1373TIP3    H125610   6.706   0.766  13.931  1.2493  1.7539  0.8743
 1373TIP3    H225611   6.789   0.749  14.057  3.0374  0.3818 -0.4271
 1374TIP3   OH225612   4.826   4.894   5.381  0.5264 -0.2738  0.0305
 1374TIP3    H125613   4.856   4.886   5.472  1.2748 -0.4943 -0.2290
 1374TIP3    H225614   4.841   4.807   5.343 -1.8597 -0.8762  0.2847
 1375TIP3   OH225615   1.322   1.241  13.196  0.0923  0.3034 -0.7357
 1375TIP3    H125616   1.268   1.236  13.275  1.4730  2.5269  0.4600
 1375TIP3    H225617   1.326   1.151  13.164 -2.8847 -0.2280  0.0330
 1376TIP3   OH225618   0.818   2.597  11.534  0.6768 -0.1269 -0.2006
 1376TIP3    H125619   0.839   2.690  11.527  1.1564 -0.0641  1.5547
 1376TIP3    H225620   0.901   2.553  11.514 -0.2152 -0.4206 -4.1851
 1377TIP3   OH225621   6.103   3.829  13.181  0.3377  0.0045  0.2935
 1377TIP3    H125622   6.035   3.804  13.244  1.1837  0.0257  1.2423
 1377TIP3    H225623   6.178   3.854  13.235  0.9320  0.5002 -0.7214
 1378TIP3   OH225624   3.439   2.477  16.037 -0.0413 -0.4445 -0.2397
 1378TIP3    H125625   3.448   2.520  16.122  4.3004  1.7406 -1.5081
 1378TIP3    H225626   3.362   2.518  15.998  0.6024  2.0528  0.8924
 1379TIP3   OH225627   6.414   6.398  13.325  0.0600  0.2769 -0.1191
 1379TIP3    H125628   6.455   6.330  13.378  0.2087  0.3873 -0.0917
 1379TIP3    H225629   6.479   6.422  13.260 -0.2312 -0.0667 -0.5433
 1380TIP3   OH225630   3.342   6.690  15.072 -0.1674  0.1876  0.2655
 1380TIP3    H125631   3.327   6.773  15.116 -2.2415 -0.4788  0.9097
 1380TIP3    H225632   3.275   6.632  15.106  1.4280 -1.8851  0.0739
 1381TIP3   OH225633   4.949   5.328  12.904  0.0272  0.0239 -0.0715
 1381TIP3    H125634   4.894   5.249  12.905 -0.9911  0.6990 -0.6333
 1381TIP3    H225635   5.020   5.308  12.965  0.4881 -1.7985 -1.1290
 1382TIP3   OH225636   4.131   0.638   4.278  0.1106  0.1640 -0.3329
 1382TIP3    H125637   4.171   0.725   4.282 -0.4248  0.3965 -0.0440
 1382TIP3    H225638   4.179   0.594   4.207  0.6046  0.5752 -0.2650
 1383TIP3   OH225639   2.102   3.125  13.231 -0.2540  0.7287 -0.1282
 1383TIP3    H125640   2.192   3.111  13.262 -0.2896  0.7200 -0.0282
 1383TIP3    H225641   2.051   3.137  13.311 -0.3595  0.6318 -0.1797
 1384TIP3   OH225642   5.875   0.900   2.547  0.1341  0.5140 -0.1033
 1384TIP3    H125643   5.881   0.862   2.635 -0.7411  0.0111 -0.2468
 1384TIP3    H225644   5.825   0.836   2.496  0.6387  0.7964 -0.9748
 1385TIP3   OH225645   3.025   3.517   5.343  0.7857 -0.3052 -0.2507
 1385TIP3    H125646   2.998   3.432   5.377  3.0824 -0.9102  0.2052
 1385TIP3    H225647   3.068   3.497   5.260  0.2092  0.5617 -0.7686
 1386TIP3   OH225648   2.438   3.432   3.150  0.1965 -0.1475  0.3170
 1386TIP3    H125649   2.364   3.492   3.157  0.7541  0.4962  0.8398
 1386TIP3    H225650   2.515   3.489   3.143  0.5920 -0.7990 -0.9652
 1387TIP3   OH225651   0.716   5.293   3.083  0.1860  0.4987  0.2806
 1387TIP3    H125652   0.651   5.331   3.025  1.8511  1.0390 -1.3247
 1387TIP3    H225653   0.726   5.357   3.154 -0.1234  0.9882 -0.1179
 1388TIP3   OH225654   5.007   5.559   0.510  0.5069 -0.2591  0.2621
 1388TIP3    H125655   4.927   5.561   0.458  0.0137  0.2676  1.0247
 1388TIP3    H225656   5.077   5.551   0.445 -0.1177 -0.0018 -0.4621
 1389TIP3   OH225657   5.806   1.281   4.893 -0.6130 -0.2576  0.6414
 1389TIP3    H125658   5.859   1.205   4.868 -0.7967 -0.4669  0.8809
 1389TIP3    H225659   5.857   1.356   4.863 -0.4721 -0.4771  0.3194
 1390TIP3   OH225660   5.766   1.639  11.892  0.5948  0.1928  0.3518
 1390TIP3    H125661   5.833   1.578  11.860 -0.3011 -0.0351 -1.1673
 1390TIP3    H225662   5.751   1.698  11.818 -0.4747  0.5975  0.8795
 1391TIP3   OH225663   0.907   2.712   3.001 -0.6304  0.3081  0.2562
 1391TIP3    H125664   0.967   2.786   2.998  0.4443 -0.5725 -1.7775
 1391TIP3    H225665   0.838   2.733   2.938  0.1495 -0.7449 -1.0011
 1392TIP3   OH225666   3.307   3.937   5.455  0.0751 -0.3558 -0.9101
 1392TIP3    H125667   3.290   3.844   5.465 -0.3326 -0.0580  2.0115
 1392TIP3    H225668   3.388   3.952   5.503  1.6646  0.4399 -3.6136
 1393TIP3   OH225669   4.124   6.722  12.094 -0.4200 -0.1575  0.4343
 1393TIP3    H125670   4.058   6.727  12.025 -1.1343  0.0518  1.1084
 1393TIP3    H225671   4.106   6.798  12.150 -0.3636 -0.7410  1.2696
 1394TIP3   OH225672   1.275   6.709  13.321 -0.5694  0.3328 -0.0652
 1394TIP3    H125673   1.254   6.767  13.248  0.6467  1.8621  0.7144
 1394TIP3    H225674   1.352   6.660  13.291 -0.0133  1.0266  0.1719
 1395TIP3   OH225675   3.399   0.877  11.153 -0.4030 -0.2516  0.0008
 1395TIP3    H125676   3.445   0.951  11.114 -0.5779  0.7123  1.5647
 1395TIP3    H225677   3.378   0.820  11.079 -0.2559  1.2487 -1.2275
 1396TIP3   OH225678   6.655   0.802   4.818  0.7805 -0.1884  0.1770
 1396TIP3    H125679   6.563   0.780   4.836  0.6195 -0.8696 -1.3544
 1396TIP3    H225680   6.675   0.872   4.881 -1.3165  1.1967 -0.6005
 1397TIP3   OH225681   6.455   5.621   3.200 -0.2360  0.6738 -0.2948
 1397TIP3    H125682   6.491   5.544   3.244 -1.4824  0.4101  0.3162
 1397TIP3    H225683   6.380   5.587   3.151 -1.0145  1.5317  0.2554
 1398TIP3   OH225684   2.496   0.038   1.829 -0.2699 -0.2907  0.3318
 1398TIP3    H125685   2.481   0.104   1.896 -0.4385 -0.3889  0.3918
 1398TIP3    H225686   2.413  -0.009   1.822 -0.2614 -0.2637  0.0344
 1399TIP3   OH225687   4.653   1.600  15.210  0.2680 -0.2511 -0.0511
 1399TIP3    H125688   4.685   1.640  15.291  0.5954 -0.3130 -0.1491
 1399TIP3    H225689   4.728   1.600  15.151  0.4081 -1.4283  0.0984
 1400TIP3   OH225690   0.976   3.482   6.136 -0.0718  0.0768 -0.7576
 1400TIP3    H125691   1.007   3.569   6.159  0.5930 -0.1535 -0.7682
 1400TIP3    H225692   1.025   3.423   6.193 -1.3406 -0.2231  0.0638
 1401TIP3   OH225693   3.808   2.653   1.625  0.3228  0.0278 -0.0869
 1401TIP3    H125694   3.831   2.652   1.532 -0.2669  1.6188 -0.2807
 1401TIP3    H225695   3.724   2.699   1.628  0.2279 -0.2060  1.2146
 1402TIP3   OH225696   4.852   2.497   0.002  0.5036 -0.4173 -0.1981
 1402TIP3    H125697   4.823   2.478   0.091  1.4044  0.7105  0.3587
 1402TIP3    H225698   4.874   2.411  -0.034 -0.1437 -0.9189  0.5488
 1403TIP3   OH225699   3.454   0.668  13.400  0.2633 -1.0227  0.1893
 1403TIP3    H125700   3.481   0.752  13.436  0.0443 -0.7365 -0.3117
 1403TIP3    H225701   3.371   0.649  13.443 -0.4259 -0.2754 -0.7626
 1404TIP3   OH225702   6.459   6.369   2.998  0.5053 -0.2738 -0.0917
 1404TIP3    H125703   6.365   6.367   2.978  0.9007  2.8635 -3.4552
 1404TIP3    H225704   6.489   6.280   2.984 -1.7393 -1.0749 -0.1936
 1405TIP3   OH225705   5.598   3.616   2.578  0.1811 -0.3799  0.2268
 1405TIP3    H125706   5.622   3.538   2.529 -2.4183 -1.7108  0.9457
 1405TIP3    H225707   5.597   3.587   2.670  1.6285  1.2008  0.8071
 1406TIP3   OH225708   0.878   0.039  11.841  0.4780 -0.4937  0.3239
 1406TIP3    H125709   0.847   0.011  11.927  1.8177 -1.8306  0.4170
 1406TIP3    H225710   0.972   0.019  11.842  1.0253  1.7552 -0.5770
 1407TIP3   OH225711   3.130   0.032  13.638 -0.6891 -0.0172 -0.1512
 1407TIP3    H125712   3.164  -0.058  13.641 -1.6573 -0.4055 -0.4431
 1407TIP3    H225713   3.179   0.073  13.567 -0.2964 -0.3380 -0.0695
 1408TIP3   OH225714   2.560   5.712  12.883 -0.1404  0.2208  0.3672
 1408TIP3    H125715   2.604   5.794  12.863  0.2311 -0.0828 -0.0732
 1408TIP3    H225716   2.627   5.645  12.872 -0.4383 -0.1423  0.7385
 1409TIP3   OH225717   0.704   6.395   1.931 -0.0478 -0.3030 -0.2731
 1409TIP3    H125718   0.795   6.394   1.900 -0.2265  0.6262 -0.8829
 1409TIP3    H225719   0.665   6.317   1.892  1.1343 -2.2233  2.1600
 1410TIP3   OH225720   0.633   1.164   2.723 -0.0325 -0.3820  0.1977
 1410TIP3    H125721   0.619   1.123   2.808 -0.1742  2.5770  1.7361
 1410TIP3    H225722   0.704   1.227   2.738 -1.3547  1.5881 -1.3365
 1411TIP3   OH225723   5.867   5.263  13.814 -0.2774  0.6064 -0.2021
 1411TIP3    H125724   5.817   5.324  13.868 -3.3430 -1.5297 -0.3935
 1411TIP3    H225725   5.880   5.309  13.731 -1.5946  1.3803 -0.0045
 1412TIP3   OH225726   4.493   1.132  11.599 -0.6820  0.0134  0.0259
 1412TIP3    H125727   4.497   1.220  11.637  1.1218 -0.3816  0.8373
 1412TIP3    H225728   4.439   1.142  11.521 -1.4747  1.5943  0.7368
 1413TIP3   OH225729   2.800   0.145   0.150 -0.3032  0.0056  0.2097
 1413TIP3    H125730   2.748   0.159   0.070 -0.5755  3.3298  0.8332
 1413TIP3    H225731   2.891   0.152   0.120 -0.2785 -1.6406 -0.2037
 1414TIP3   OH225732   2.407   5.841  16.539  0.1394  0.3177  0.3560
 1414TIP3    H125733   2.489   5.852  16.589 -0.2872 -0.6010  1.3077
 1414TIP3    H225734   2.428   5.774  16.474  0.2375  0.3014  0.4022
 1415TIP3   OH225735   1.398   2.837   1.894  0.7155 -0.2061  0.1019
 1415TIP3    H125736   1.361   2.902   1.835  0.5024 -0.9604 -0.6165
 1415TIP3    H225737   1.357   2.755   1.868  1.7687 -0.8099  0.2906
 1416TIP3   OH225738   3.895   3.458   0.403 -0.2044 -0.1473 -0.3849
 1416TIP3    H125739   3.811   3.412   0.408 -0.8666  0.5924 -2.9446
 1416TIP3    H225740   3.877   3.545   0.438 -0.0599 -0.4849  0.5502
 1417TIP3   OH225741   1.720   4.547  13.781  0.3348 -0.7349 -0.9131
 1417TIP3    H125742   1.797   4.594  13.813  0.2379 -0.6263 -0.8347
 1417TIP3    H225743   1.720   4.465  13.830  0.1890 -0.5715 -0.6295
 1418TIP3   OH225744   4.815   1.491  14.706 -0.9210  0.8431  0.5570
 1418TIP3    H125745   4.886   1.538  14.751  0.4440 -1.3419  0.8323
 1418TIP3    H225746   4.764   1.560  14.664  2.0443  2.5046 -0.6364
 1419TIP3   OH225747   2.697   2.566  11.787  0.5455 -0.4451 -0.1101
 1419TIP3    H125748   2.671   2.542  11.876 -1.2419 -0.3913 -0.5818
 1419TIP3    H225749   2.668   2.494  11.732 -0.7290  0.6520 -0.9537
 1420TIP3   OH225750   6.164   5.678   3.871  0.6034 -0.2242  0.0145
 1420TIP3    H125751   6.093   5.742   3.870  0.8257  0.0698  1.2510
 1420TIP3    H225752   6.237   5.721   3.826  0.0481 -0.4996 -1.1929
 1421TIP3   OH225753   6.728   3.187   3.306 -0.3228 -0.6664 -0.4235
 1421TIP3    H125754   6.786   3.263   3.309 -1.3645  0.2028 -1.4455
 1421TIP3    H225755   6.772   3.125   3.249  0.0031 -0.3555 -0.5144
 1422TIP3   OH225756   5.180   3.258  13.459 -0.0239 -0.2749 -0.0900
 1422TIP3    H125757   5.153   3.321  13.526 -0.3433  0.6091 -1.0259
 1422TIP3    H225758   5.109   3.259  13.396  0.5159 -0.7023 -0.7113
 1423TIP3   OH225759   6.251   0.052  17.162 -0.1476 -0.4689  0.0537
 1423TIP3    H125760   6.177   0.001  17.128 -0.3729  0.0145 -0.1908
 1423TIP3    H225761   6.222   0.083  17.248 -0.1184 -0.5268  0.0837
 1424TIP3   OH225762   6.574   1.275   3.256 -0.8069  0.3903  0.1318
 1424TIP3    H125763   6.618   1.255   3.173 -1.7128  1.0684 -0.5264
 1424TIP3    H225764   6.602   1.204   3.315  1.4613  0.9912 -0.1271
 1425TIP3   OH225765   0.195   2.967  12.367 -0.5124 -0.0403 -0.3280
 1425TIP3    H125766   0.234   3.004  12.288 -1.5183 -0.4870 -1.0667
 1425TIP3    H225767   0.269   2.937  12.419  0.1849  0.5698 -0.9456
 1426TIP3   OH225768   5.549   0.882   5.105  0.3367  0.1695  0.2980
 1426TIP3    H125769   5.562   0.975   5.122 -0.5645  0.5897 -1.1489
 1426TIP3    H225770   5.632   0.853   5.067  1.0595  0.0575  1.8644
 1427TIP3   OH225771   5.957   0.821   3.353 -0.2740  0.2893 -0.1069
 1427TIP3    H125772   5.933   0.901   3.306 -2.4915  0.8277  1.7433
 1427TIP3    H225773   5.876   0.770   3.357 -0.3357  0.4396  3.3277
 1428TIP3   OH225774   1.295   3.732  12.390  0.0548 -0.2102 -0.4298
 1428TIP3    H125775   1.360   3.767  12.450 -1.4501  0.4986  0.8835
 1428TIP3    H225776   1.224   3.701  12.447 -0.1479 -2.3500 -1.7157
 1429TIP3   OH225777   2.479   5.987  14.197 -0.4521 -0.2750  0.7336
 1429TIP3    H125778   2.540   5.940  14.139 -1.1442 -1.7853  1.1709
 1429TIP3    H225779   2.536   6.039  14.253  0.2292  1.7596 -1.6430
 1430TIP3   OH225780   5.637   6.376  16.363  0.7092  0.6495  0.2469
 1430TIP3    H125781   5.682   6.339  16.287  0.3248  1.0135 -0.1646
 1430TIP3    H225782   5.565   6.427  16.326  0.3123  0.5561  0.8712
 1431TIP3   OH225783   6.589   0.215  13.340  0.0097  0.3616  0.3633
 1431TIP3    H125784   6.493   0.214  13.337  0.0323 -1.2777 -1.4409
 1431TIP3    H225785   6.613   0.131  13.378  0.7669  0.6228  0.4860
 1432TIP3   OH225786   2.360   1.387   3.402  0.5707  0.5733 -0.1523
 1432TIP3    H125787   2.404   1.408   3.484  0.9858 -0.9246  0.0219
 1432TIP3    H225788   2.336   1.295   3.409 -0.6389  0.7764 -1.1511
 1433TIP3   OH225789   4.083   3.587  14.035 -0.1053  0.2552 -0.1798
 1433TIP3    H125790   4.159   3.535  14.063  0.4080 -0.4313 -2.6700
 1433TIP3    H225791   4.052   3.544  13.956 -1.2431  2.2767 -0.8898
 1434TIP3   OH225792   1.100   0.045   3.127  0.3455  0.7366 -0.0847
 1434TIP3    H125793   1.109   0.026   3.034 -0.0382  0.9383 -0.1636
 1434TIP3    H225794   1.183   0.084   3.152  0.8486 -0.2745 -0.1082
 1435TIP3   OH225795   1.359   6.068  13.798  0.1326  0.1151 -0.2280
 1435TIP3    H125796   1.297   6.039  13.865 -1.3543  0.2376 -1.5236
 1435TIP3    H225797   1.389   5.987  13.757 -0.7401  0.1452 -0.9547
 1436TIP3   OH225798   2.599   1.848   0.425 -0.0410 -0.6261 -0.2122
 1436TIP3    H125799   2.536   1.861   0.354 -0.8028  0.4003  0.6253
 1436TIP3    H225800   2.591   1.755   0.447 -0.2645 -0.8107 -1.0197
 1437TIP3   OH225801   6.024   5.815  11.972 -0.0398 -0.0905 -0.0233
 1437TIP3    H125802   6.118   5.812  11.955 -0.4954 -2.2438 -2.9102
 1437TIP3    H225803   5.994   5.894  11.927  0.3933  1.0197  1.5339
 1438TIP3   OH225804   0.030   4.491   1.752 -0.2052  0.2385 -0.2991
 1438TIP3    H125805   0.008   4.402   1.724  0.0300 -0.1993  0.8490
 1438TIP3    H225806   0.116   4.507   1.714  1.1063 -1.1785  1.8487
 1439TIP3   OH225807   3.659   2.118  15.579  0.0390 -0.4378 -0.3242
 1439TIP3    H125808   3.736   2.158  15.618 -0.5972 -0.6940  1.2797
 1439TIP3    H225809   3.675   2.024  15.586 -0.9562 -0.5223  1.2437
 1440TIP3   OH225810   3.320   1.000  13.709  0.7576 -0.9566  0.1790
 1440TIP3    H125811   3.332   1.085  13.667 -0.3309 -0.8618  0.0277
 1440TIP3    H225812   3.232   0.973  13.682  1.1734 -2.2310  0.0437
 1441TIP3   OH225813   3.737   0.011   5.627  0.0034 -0.1626 -0.3754
 1441TIP3    H125814   3.654   0.005   5.676 -0.0647  0.0252 -0.4695
 1441TIP3    H225815   3.712   0.048   5.543  0.4729  1.7431  0.2897
 1442TIP3   OH225816   6.049   1.801   6.240 -0.4456 -0.2216  0.0694
 1442TIP3    H125817   6.141   1.783   6.221 -0.5554  0.9292 -1.8229
 1442TIP3    H225818   6.036   1.769   6.329  1.2751 -2.1762 -0.3106
 1443TIP3   OH225819   6.423   2.425  16.140 -0.1958  0.4999  0.2632
 1443TIP3    H125820   6.500   2.475  16.165 -0.6767  1.8183 -0.7249
 1443TIP3    H225821   6.422   2.430  16.044  0.2654 -2.2843  0.0506
 1444TIP3   OH225822   5.738   1.719  15.891  0.0263 -0.1044 -0.0470
 1444TIP3    H125823   5.787   1.795  15.922 -0.8979  1.0658 -1.3453
 1444TIP3    H225824   5.747   1.654  15.961 -0.3428  1.6913  1.7340
 1445TIP3   OH225825   4.984   6.403  15.783 -0.3097  0.1427  0.0876
 1445TIP3    H125826   4.916   6.420  15.717  0.6623  1.0349 -0.7328
 1445TIP3    H225827   4.971   6.312  15.808  0.1524 -0.7024 -2.4231
 1446TIP3   OH225828   5.006   1.466   1.522 -0.1107 -0.3493  0.1967
 1446TIP3    H125829   5.051   1.385   1.545  0.2732 -0.3338 -0.5109
 1446TIP3    H225830   5.074   1.533   1.524 -0.1396 -0.2871 -0.6295
 1447TIP3   OH225831   6.132   2.052   0.832 -0.0236 -0.0352  0.6729
 1447TIP3    H125832   6.208   2.110   0.825 -0.2275  0.0783 -0.8524
 1447TIP3    H225833   6.063   2.105   0.871  0.4677  0.0538  1.4420
 1448TIP3   OH225834   4.676   6.008  13.834 -0.3503 -1.0809 -0.2858
 1448TIP3    H125835   4.612   6.067  13.873 -0.3895 -0.2885 -1.4915
 1448TIP3    H225836   4.635   5.978  13.753  0.8834 -0.3298 -1.2263
 1449TIP3   OH225837   6.347   5.803   2.899 -0.0937  0.3111  0.5379
 1449TIP3    H125838   6.424   5.751   2.920  0.0923  0.8717  1.2984
 1449TIP3    H225839   6.276   5.760   2.946 -0.2443 -0.1907 -0.1419
 1450TIP3   OH225840   4.337   3.104  10.735 -0.2182 -0.0065 -0.5781
 1450TIP3    H125841   4.301   3.075  10.819 -1.7932 -1.1783 -1.6122
 1450TIP3    H225842   4.293   3.050  10.670  0.3063  1.4968 -2.2473
 1451TIP3   OH225843   6.699   3.403  14.862 -0.3490 -0.2507  0.0373
 1451TIP3    H125844   6.762   3.337  14.892 -0.9337 -0.0328  1.8240
 1451TIP3    H225845   6.710   3.404  14.766  0.4082 -2.1862  0.0526
 1452TIP3   OH225846   3.837   5.739   4.335 -0.7376  0.1903 -0.2692
 1452TIP3    H125847   3.926   5.759   4.366 -0.3431 -1.0242 -0.5468
 1452TIP3    H225848   3.784   5.737   4.415 -0.5537  1.0738 -0.1161
 1453TIP3   OH225849   3.962   1.552  12.407 -0.6096  0.5185 -0.6670
 1453TIP3    H125850   4.011   1.491  12.353 -0.4982  0.6796 -0.7505
 1453TIP3    H225851   3.895   1.499  12.450  1.6578 -0.4335  2.0822
 1454TIP3   OH225852   2.657   3.493  12.966 -0.6636  0.1800  0.0006
 1454TIP3    H125853   2.610   3.467  13.045  0.1220  0.1349  0.4702
 1454TIP3    H225854   2.745   3.458  12.979 -0.1636  1.2873 -0.3065
 1455TIP3   OH225855   5.042   3.667  16.172 -0.0553 -0.0741 -0.2274
 1455TIP3    H125856   5.099   3.592  16.156 -0.7868 -0.9810  1.1687
 1455TIP3    H225857   5.040   3.714  16.089  1.6156 -0.7581 -0.7079
 1456TIP3   OH225858   1.490   1.896   5.109  0.2060 -0.0732 -0.0184
 1456TIP3    H125859   1.420   1.833   5.127 -0.6425  0.8833  0.1458
 1456TIP3    H225860   1.564   1.863   5.159  0.7130 -2.5028 -2.1826
 1457TIP3   OH225861   2.187   4.506  14.816  0.1776 -0.7844  0.3789
 1457TIP3    H125862   2.119   4.455  14.773 -0.4244  0.4574 -0.1854
 1457TIP3    H225863   2.245   4.441  14.855 -0.5935 -1.8876 -0.2737
 1458TIP3   OH225864   6.553   4.463  10.961  0.2328  0.2268  0.6845
 1458TIP3    H125865   6.491   4.418  10.904  1.5391 -2.2040  1.0394
 1458TIP3    H225866   6.566   4.549  10.920 -2.0049  0.1419 -0.3233
 1459TIP3   OH225867   4.134   5.824  13.796  0.3361  0.1824  0.4634
 1459TIP3    H125868   4.166   5.841  13.707 -1.2939  1.7487  0.1265
 1459TIP3    H225869   4.203   5.859  13.853  1.0306 -0.1252 -0.1659
 1460TIP3   OH225870   6.803   4.534   0.334  0.6028 -0.5595  0.5868
 1460TIP3    H125871   6.893   4.536   0.368  0.5873 -0.5928  0.6302
 1460TIP3    H225872   6.749   4.523   0.412  0.4998  0.4072  0.6707
 1461TIP3   OH225873   0.274   5.229  15.327 -0.0122 -0.3004 -0.2578
 1461TIP3    H125874   0.331   5.192  15.260  0.9680 -0.7917  0.8168
 1461TIP3    H225875   0.266   5.322  15.303 -1.4613 -0.8504 -2.2458
 1462TIP3   OH225876   3.628   5.251   4.364  0.4771  0.5019  0.2594
 1462TIP3    H125877   3.692   5.181   4.353  2.0341  1.5973  1.7511
 1462TIP3    H225878   3.560   5.214   4.419  1.4691  0.2336  1.3349
 1463TIP3   OH225879   1.683   6.684  14.393  0.1653 -0.0281 -0.5423
 1463TIP3    H125880   1.617   6.748  14.367  1.1320  1.3205  0.1699
 1463TIP3    H225881   1.636   6.618  14.443 -0.7008  0.6876 -0.3965
 1464TIP3   OH225882   0.597   2.864  12.662 -0.3430  0.2740 -0.9475
 1464TIP3    H125883   0.692   2.857  12.655 -0.1660  0.9647  0.3924
 1464TIP3    H225884   0.576   2.817  12.743 -0.9289  1.5050 -0.3511
 1465TIP3   OH225885   6.680   3.486  13.599 -0.2879 -0.4870  0.1354
 1465TIP3    H125886   6.736   3.416  13.633  2.0747 -0.3612 -2.9579
 1465TIP3    H225887   6.619   3.442  13.540  0.0004 -0.1613 -0.4199
 1466TIP3   OH225888   4.938   2.049   2.741  0.1767 -0.1003 -0.6463
 1466TIP3    H125889   4.935   1.954   2.752  0.2908  0.0079  0.4266
 1466TIP3    H225890   4.928   2.063   2.647 -1.8872 -1.0911 -0.6221
 1467TIP3   OH225891   5.349   0.320   2.797  0.3344 -0.5336 -0.5061
 1467TIP3    H125892   5.254   0.314   2.806  0.4126  0.2238  1.1181
 1467TIP3    H225893   5.365   0.315   2.703 -1.3729  0.2262 -0.8593
 1468TIP3   OH225894   6.439   0.476   1.192 -0.1660  0.1776  0.2566
 1468TIP3    H125895   6.347   0.500   1.181 -1.0323 -2.6875  0.5102
 1468TIP3    H225896   6.443   0.383   1.172  2.8997  0.3786 -0.6485
 1469TIP3   OH225897   0.027   1.094   4.309  0.4900 -0.0303  0.0648
 1469TIP3    H125898   0.051   1.161   4.244  0.5373 -0.9573 -0.8959
 1469TIP3    H225899  -0.044   1.134   4.359 -0.2513  0.3216 -1.2347
 1470TIP3   OH225900   4.134   0.532   1.322  0.0749 -0.7758  0.5144
 1470TIP3    H125901   4.226   0.553   1.341  0.1923  0.7961 -1.4076
 1470TIP3    H225902   4.084   0.582   1.387  0.5108  2.6164 -1.5102
 1471TIP3   OH225903   4.592   3.411  10.736  0.2933  0.4042 -0.7373
 1471TIP3    H125904   4.590   3.498  10.776  0.1818 -0.1289  0.4756
 1471TIP3    H225905   4.646   3.359  10.795  0.7513 -0.2324 -1.7061
 1472TIP3   OH225906   0.661   5.864   1.125  0.2777  0.5854  0.1668
 1472TIP3    H125907   0.682   5.922   1.052 -2.5788  0.1739 -1.0994
 1472TIP3    H225908   0.687   5.913   1.203  0.4934  2.3729 -0.9848
 1473TIP3   OH225909   1.003   3.944  16.859  0.3489 -0.1645  0.4637
 1473TIP3    H125910   0.986   3.887  16.934 -0.6715  0.2023  0.5215
 1473TIP3    H225911   0.923   3.939  16.806  0.5503  0.5970  0.0704
 1474TIP3   OH225912   3.963   4.152  14.849  0.0333  0.1208  0.7123
 1474TIP3    H125913   3.926   4.144  14.937 -1.3439 -0.2840  0.1280
 1474TIP3    H225914   3.912   4.223  14.809 -0.2678 -0.5844 -0.1808
 1475TIP3   OH225915   2.163   5.811   1.898 -0.0091  0.3779  0.1919
 1475TIP3    H125916   2.100   5.746   1.865  0.6554  0.3630 -1.0959
 1475TIP3    H225917   2.239   5.759   1.924 -0.2032  0.4733  0.9724
 1476TIP3   OH225918   1.715   5.468   3.722 -0.2439  0.4297  0.0568
 1476TIP3    H125919   1.752   5.380   3.721 -1.1033  0.0600 -1.4161
 1476TIP3    H225920   1.631   5.459   3.767 -0.2338  0.5599  0.1050
 1477TIP3   OH225921   1.893   3.154  11.734  0.2583  0.2404 -0.2846
 1477TIP3    H125922   1.902   3.112  11.648  0.5377 -2.0275  0.7845
 1477TIP3    H225923   1.834   3.096  11.783 -0.1240  1.6395  0.9692
 1478TIP3   OH225924   3.118   0.788  14.549 -0.4259 -0.3499  0.4510
 1478TIP3    H125925   3.103   0.866  14.496 -4.4209  1.4327  3.6506
 1478TIP3    H225926   3.042   0.732  14.534  0.6224 -1.9722  0.8855
 1479TIP3   OH225927   3.130   3.596  14.458  0.2808  0.0463 -0.1901
 1479TIP3    H125928   3.104   3.506  14.480 -0.0288 -0.2990 -1.8670
 1479TIP3    H225929   3.183   3.587  14.379 -0.3203  1.3957 -0.7759
 1480TIP3   OH225930   4.105   5.667   3.490  0.0653 -0.4508  0.3299
 1480TIP3    H125931   4.094   5.623   3.405  0.8734  0.2991 -0.1813
 1480TIP3    H225932   4.135   5.755   3.468  1.0758 -0.4974  1.4214
 1481TIP3   OH225933   5.266   3.819   6.120 -0.6854 -0.0614 -0.0546
 1481TIP3    H125934   5.349   3.860   6.143 -1.1945  1.2845 -0.5345
 1481TIP3    H225935   5.222   3.806   6.203  0.4097 -1.7493  0.3060
 1482TIP3   OH225936   0.233   3.620  14.907  0.3963  0.0618  0.3877
 1482TIP3    H125937   0.246   3.577  14.823  1.3823  1.7886 -0.4041
 1482TIP3    H225938   0.281   3.565  14.970  2.8648  0.6868 -0.8117
 1483TIP3   OH225939   0.481   5.424   1.568  0.0034  0.7364  0.0679
 1483TIP3    H125940   0.408   5.366   1.544  1.0082 -0.6074  0.1113
 1483TIP3    H225941   0.533   5.372   1.629  0.8203  1.8035  0.3035
 1484TIP3   OH225942   4.221   0.242   4.765  0.7681 -0.4898  0.5909
 1484TIP3    H125943   4.171   0.236   4.846 -1.6841  0.0958 -0.7844
 1484TIP3    H225944   4.163   0.206   4.698  3.0772 -1.8408 -0.8150
 1485TIP3   OH225945   1.287   0.400  15.403 -0.0711 -0.0013  0.1799
 1485TIP3    H125946   1.295   0.333  15.336  1.2157 -1.3837  1.6338
 1485TIP3    H225947   1.377   0.422  15.426 -0.4326 -0.4534  2.2571
 1486TIP3   OH225948   3.387   5.733   6.452  0.3686  0.2125  0.0000
 1486TIP3    H125949   3.401   5.734   6.547  5.3701  0.8260 -0.4550
 1486TIP3    H225950   3.353   5.820   6.432 -1.8631 -0.2975  1.1899
 1487TIP3   OH225951   5.411   1.254  11.368 -0.2764  0.7956 -0.4646
 1487TIP3    H125952   5.383   1.345  11.372 -1.5812  0.4150 -0.3107
 1487TIP3    H225953   5.351   1.213  11.305 -1.9142 -0.6627  1.8894
 1488TIP3   OH225954   2.098   3.261  16.465  0.1933 -0.8334 -0.1348
 1488TIP3    H125955   2.035   3.213  16.519 -0.2450  0.5810  0.6617
 1488TIP3    H225956   2.184   3.228  16.494 -0.1175 -2.1471 -0.6229
 1489TIP3   OH225957   3.181   5.113  12.711 -0.3066  0.0388 -0.2966
 1489TIP3    H125958   3.093   5.086  12.684 -0.1720  0.4071 -1.1365
 1489TIP3    H225959   3.220   5.034  12.748 -1.6856  0.3414  1.9770
 1490TIP3   OH225960   2.503   1.462  16.957 -0.3387 -0.5174  0.0312
 1490TIP3    H125961   2.524   1.435  17.046  1.3819 -3.3667 -1.0760
 1490TIP3    H225962   2.555   1.541  16.943  2.9767 -2.4589  0.2988
 1491TIP3   OH225963   3.516   5.272  15.250 -0.2563  0.5139  0.3439
 1491TIP3    H125964   3.581   5.238  15.312 -1.0081  1.4339  1.6841
 1491TIP3    H225965   3.567   5.296  15.173  0.8574  0.2488  0.9703
 1492TIP3   OH225966   2.536   0.972   1.672 -0.8659  0.6505 -0.2619
 1492TIP3    H125967   2.560   0.917   1.597 -0.9111 -2.1765  1.6575
 1492TIP3    H225968   2.448   1.003   1.651 -0.0488  1.8420 -2.3220
 1493TIP3   OH225969   2.374   2.702  15.812 -0.4028 -0.0979  0.3618
 1493TIP3    H125970   2.292   2.743  15.840 -1.2253 -1.0541 -0.5850
 1493TIP3    H225971   2.360   2.679  15.720  0.0899 -2.2920  0.7909
 1494TIP3   OH225972   5.996   5.820  13.540  0.0453  0.4855  0.0729
 1494TIP3    H125973   5.944   5.858  13.611 -1.3673  1.9270 -1.6340
 1494TIP3    H225974   5.961   5.861  13.461  2.8312  0.3868 -1.3084
 1495TIP3   OH225975   0.924   1.812  15.264 -0.2916  0.6493 -0.1547
 1495TIP3    H125976   0.853   1.778  15.210 -1.1635 -0.0724  1.3687
 1495TIP3    H225977   0.880   1.853  15.339  0.8500  2.2331 -0.2824
 1496TIP3   OH225978   6.048   4.903  12.875 -0.0100  0.6246  0.1528
 1496TIP3    H125979   6.114   4.856  12.824 -0.1261  1.7020 -1.0676
 1496TIP3    H225980   6.092   4.928  12.956  1.0098  1.0701 -0.5214
 1497TIP3   OH225981   2.048   6.181   5.904  0.2800  0.1049 -0.6186
 1497TIP3    H125982   2.026   6.110   5.843  0.5539 -0.2710 -0.2861
 1497TIP3    H225983   2.041   6.261   5.852 -1.7729  0.0053 -0.5677
 1498TIP3   OH225984   4.628   4.889  10.627 -0.1517  0.3810  0.3537
 1498TIP3    H125985   4.651   4.935  10.708  1.9044  0.9238 -0.4721
 1498TIP3    H225986   4.712   4.863  10.590 -1.1346 -2.0253 -0.4118
 1499TIP3   OH225987   1.152   6.183  14.906 -0.1945  0.3412 -0.1017
 1499TIP3    H125988   1.202   6.135  14.971  0.1702 -0.5365 -1.0078
 1499TIP3    H225989   1.080   6.125  14.883 -0.2914  0.6207 -0.5131
 1500TIP3   OH225990   5.056   4.754   0.820 -0.5541 -0.2585  0.7644
 1500TIP3    H125991   4.974   4.757   0.771 -0.5963 -1.8501  0.6625
 1500TIP3    H225992   5.100   4.676   0.787  1.6662  1.2977 -0.1641
 1501TIP3   OH225993   2.778   5.763  12.263  0.0629 -0.0949 -0.2161
 1501TIP3    H125994   2.774   5.677  12.305  2.2337 -0.9387 -1.5765
 1501TIP3    H225995   2.831   5.817  12.323  0.5359 -0.3669 -0.3852
 1502TIP3   OH225996   5.448   4.605   4.850 -0.4686 -0.1882 -0.3141
 1502TIP3    H125997   5.508   4.536   4.822 -0.1815 -0.8159  1.7208
 1502TIP3    H225998   5.447   4.667   4.777  0.3995 -1.6051 -1.5752
 1503TIP3   OH225999   0.530   0.383  13.830  0.3018 -0.1815  0.5959
 1503TIP3    H126000   0.490   0.336  13.756  0.5107 -0.8342  0.8878
 1503TIP3    H226001   0.567   0.462  13.791 -1.1708  0.4025  0.2903
 1504TIP3   OH226002   1.279   1.772   1.895 -0.2738  0.1267 -0.6030
 1504TIP3    H126003   1.297   1.861   1.866 -0.0807  0.6906  1.0980
 1504TIP3    H226004   1.363   1.742   1.931  0.3703 -1.7061 -3.3464
 1505TIP3   OH226005   1.165   1.776  11.277  0.0045 -0.0827 -0.3719
 1505TIP3    H126006   1.134   1.841  11.213  1.5408  0.5905 -0.4693
 1505TIP3    H226007   1.218   1.715  11.225 -1.9719 -1.8917 -0.4150
 1506TIP3   OH226008   2.921   4.582  15.038 -0.4365  0.4447 -0.2151
 1506TIP3    H126009   2.883   4.666  15.066  0.6401  0.7331  0.4323
 1506TIP3    H226010   2.855   4.545  14.979 -0.8917  1.7852 -0.5884
 1507TIP3   OH226011   0.815   5.494  13.978  0.1860  0.2336 -0.0503
 1507TIP3    H126012   0.892   5.439  13.968 -0.3821 -0.7304  0.7434
 1507TIP3    H226013   0.799   5.496  14.072 -2.3621 -1.8904 -0.3189
 1508TIP3   OH226014   2.910   3.120   3.550 -0.0220 -0.1635 -0.6620
 1508TIP3    H126015   2.835   3.114   3.491  0.4623  1.1799 -1.4491
 1508TIP3    H226016   2.981   3.075   3.504 -0.1346 -0.7974 -0.2350
 1509TIP3   OH226017   3.580   3.207   1.381  0.1855  0.2830  0.0893
 1509TIP3    H126018   3.504   3.152   1.398  0.3255 -0.2531 -0.9171
 1509TIP3    H226019   3.545   3.296   1.378 -0.1600  0.1872  1.0218
 1510TIP3   OH226020   5.031   2.977   2.259 -0.0170  0.0108  0.1859
 1510TIP3    H126021   5.107   2.994   2.203  0.1840 -0.2072  0.3895
 1510TIP3    H226022   4.981   2.911   2.211 -0.6689  0.9662 -0.4868
 1511TIP3   OH226023   1.961   2.922  16.115  0.1161  0.2794  0.1291
 1511TIP3    H126024   1.868   2.908  16.096 -0.2907  1.0969  1.3802
 1511TIP3    H226025   1.986   2.996  16.059  0.1377 -0.1907 -0.4993
 1512TIP3   OH226026   2.572   4.559  11.775  0.1910  0.6977  0.0039
 1512TIP3    H126027   2.546   4.646  11.804 -1.2110  0.2522  0.1331
 1512TIP3    H226028   2.657   4.572  11.734  0.8858  1.8172  1.6909
 1513TIP3   OH226029   3.702   4.396   2.615  0.0181 -0.2239 -0.1740
 1513TIP3    H126030   3.719   4.461   2.546  0.1019  0.5185  0.5337
 1513TIP3    H226031   3.731   4.313   2.577  3.0511  0.5966  0.0634
 1514TIP3   OH226032   3.276   6.046   4.475 -0.2908 -0.2010  1.2474
 1514TIP3    H126033   3.368   6.058   4.501 -0.2601  1.1710  0.6055
 1514TIP3    H226034   3.256   6.124   4.423 -1.1121 -1.5995 -0.6373
 1515TIP3   OH226035   1.551   6.817  11.414  0.4916 -0.0430 -0.4574
 1515TIP3    H126036   1.530   6.725  11.427  0.3121  0.1473  0.7162
 1515TIP3    H226037   1.470   6.855  11.378 -0.7804  0.3721  2.5689
 1516TIP3   OH226038   3.355   0.360   0.372  0.6083 -0.6382 -0.1216
 1516TIP3    H126039   3.283   0.296   0.369  0.2294 -0.5324  3.2354
 1516TIP3    H226040   3.311   0.445   0.365  0.7160 -0.6287 -0.7419
 1517TIP3   OH226041   2.390   6.406   6.454  0.1953  0.5054 -0.2184
 1517TIP3    H126042   2.412   6.383   6.364 -0.0887 -3.5449  0.5403
 1517TIP3    H226043   2.310   6.356   6.472  1.0546 -0.0167  2.6813
 1518TIP3   OH226044   2.788   6.401  11.086 -0.4505 -0.1985  0.0563
 1518TIP3    H126045   2.863   6.414  11.028 -0.1285 -0.3772  0.4226
 1518TIP3    H226046   2.711   6.418  11.031 -0.1664 -0.6579 -0.4966
 1519TIP3   OH226047   4.766   3.492   4.612 -0.0407 -0.1989 -0.3703
 1519TIP3    H126048   4.798   3.479   4.522 -1.1693 -0.2148 -0.7892
 1519TIP3    H226049   4.687   3.544   4.601 -0.1307 -0.1101  0.6411
 1520TIP3   OH226050   4.161   2.468   0.551  0.1582  0.6829  0.8084
 1520TIP3    H126051   4.181   2.383   0.513  0.2379  1.0877 -0.0702
 1520TIP3    H226052   4.066   2.468   0.563 -0.2055  1.4278 -1.6089
 1521TIP3   OH226053   0.544   1.637  15.415 -0.3647 -0.5437 -0.1472
 1521TIP3    H126054   0.632   1.631  15.452 -0.9109  0.2160  1.3490
 1521TIP3    H226055   0.523   1.731  15.419 -1.1728 -0.6904 -0.6756
 1522TIP3   OH226056   4.800   6.763   0.143  0.3826 -0.3478 -0.3064
 1522TIP3    H126057   4.816   6.818   0.066  1.8405 -0.8370 -0.3868
 1522TIP3    H226058   4.766   6.823   0.209  1.9819  0.6946 -0.3777
 1523TIP3   OH226059   3.281   5.798  11.184  0.1460  0.9395  0.3580
 1523TIP3    H126060   3.306   5.706  11.182  0.7486  1.1049  0.0020
 1523TIP3    H226061   3.286   5.822  11.277  3.1427  1.4165  0.1847
 1524TIP3   OH226062   5.416   6.306  10.936 -0.0725  0.2413  0.4038
 1524TIP3    H126063   5.401   6.380  10.994  0.8275  0.3736  0.4881
 1524TIP3    H226064   5.493   6.331  10.885  0.1036 -0.5384  0.2746
 1525TIP3   OH226065   6.664   3.671  16.697 -0.3227  0.7190 -0.5372
 1525TIP3    H126066   6.667   3.766  16.693 -0.3221  0.7374 -0.0957
 1525TIP3    H226067   6.608   3.651  16.772 -0.9176  0.3708 -1.0607
 1526TIP3   OH226068   0.715   0.728   1.097 -0.3907 -0.1900  0.4129
 1526TIP3    H126069   0.767   0.762   1.024  0.8899 -3.0622 -0.1456
 1526TIP3    H226070   0.721   0.633   1.088 -0.9554 -0.6536  3.7638
 1527TIP3   OH226071   0.819   5.160   1.761 -0.0509 -0.0229 -0.0712
 1527TIP3    H126072   0.899   5.200   1.727  0.3037  2.8380  3.5351
 1527TIP3    H226073   0.851   5.087   1.814 -0.0539 -0.1998 -0.3075
 1528TIP3   OH226074   1.361   3.335   5.943 -0.1879 -0.0694  0.0575
 1528TIP3    H126075   1.329   3.414   5.899  1.3045  0.8994  0.5863
 1528TIP3    H226076   1.339   3.349   6.035  0.2328 -0.1634  0.1785
 1529TIP3   OH226077   6.221   5.915  15.862  0.4346 -0.2397 -0.2023
 1529TIP3    H126078   6.149   5.861  15.828  0.5535 -0.7214  0.2969
 1529TIP3    H226079   6.209   5.914  15.957  1.5154 -0.9240 -0.0637
 1530TIP3   OH226080   5.073   5.680  11.998  0.0035 -0.4134 -0.0673
 1530TIP3    H126081   5.149   5.645  12.045 -0.8048 -0.2925  1.4113
 1530TIP3    H226082   5.085   5.652  11.908  0.9089 -1.9230  0.4890
 1531TIP3   OH226083   5.726   5.318  14.833  0.2985  0.3302  0.1491
 1531TIP3    H126084   5.799   5.375  14.857 -0.6089  1.4086  0.4691
 1531TIP3    H226085   5.653   5.350  14.886 -0.3620 -0.8522 -0.0124
 1532TIP3   OH226086   4.668   0.280  16.288  0.5547 -0.6301 -0.0876
 1532TIP3    H126087   4.684   0.206  16.230  1.8515  0.2488 -0.9063
 1532TIP3    H226088   4.736   0.344  16.265 -0.7778  1.0055  0.2722
 1533TIP3   OH226089   4.761   3.988   4.363 -0.1777  0.3839 -0.1905
 1533TIP3    H126090   4.745   3.920   4.298 -1.3378  1.6489 -1.2856
 1533TIP3    H226091   4.688   3.980   4.424 -0.9645  1.3429 -0.9691
 1534TIP3   OH226092   5.751   1.585   5.242  0.1118 -0.1440  0.2050
 1534TIP3    H126093   5.725   1.559   5.330 -0.3974 -0.5460 -0.0550
 1534TIP3    H226094   5.839   1.621   5.252 -0.6605  1.5935  1.1648
 1535TIP3   OH226095   1.015   1.770   2.069 -0.0545 -0.0878 -0.3165
 1535TIP3    H126096   1.096   1.732   2.035 -0.1314  1.4472 -2.3290
 1535TIP3    H226097   1.041   1.856   2.103 -0.6460 -0.0920  0.1586
 1536TIP3   OH226098   0.375   2.474  13.889 -0.4557  0.0068  0.2015
 1536TIP3    H126099   0.322   2.492  13.811 -0.9753  1.4656  0.8584
 1536TIP3    H226100   0.320   2.418  13.943 -0.1228 -0.9514 -0.4260
 1537TIP3   OH226101   2.472   3.309  17.062 -0.3660 -0.0490  0.0802
 1537TIP3    H126102   2.472   3.330  16.969  2.7320 -1.0993 -0.2489
 1537TIP3    H226103   2.420   3.229  17.068 -0.0943 -0.3048 -0.8441
 1538TIP3   OH226104   6.573   2.883   5.765  0.1950  0.3217 -0.3063
 1538TIP3    H126105   6.531   2.968   5.750 -0.4324  0.0817  0.0810
 1538TIP3    H226106   6.520   2.821   5.716  0.7796  0.1755 -0.7658
 1539TIP3   OH226107   0.642   2.857  11.825  0.9787  0.0063 -0.0706
 1539TIP3    H126108   0.593   2.873  11.906 -0.2975 -1.1827 -0.5538
 1539TIP3    H226109   0.682   2.941  11.804 -0.4327  0.9109  0.6591
 1540TIP3   OH226110   2.396   5.900   5.380  0.5558 -0.6825  0.3454
 1540TIP3    H126111   2.469   5.875   5.437  1.3612  0.1317 -0.3039
 1540TIP3    H226112   2.321   5.853   5.416  0.6839  0.9797  3.0533
 1541TIP3   OH226113   3.490   3.977  13.147  0.2495 -0.0139  0.0236
 1541TIP3    H126114   3.505   4.072  13.147  1.1087 -0.0895 -1.6580
 1541TIP3    H226115   3.420   3.964  13.083 -1.1077 -0.4062  1.5365
 1542TIP3   OH226116   5.705   1.154  13.342 -0.2720  0.4458 -0.2029
 1542TIP3    H126117   5.767   1.225  13.325 -1.7606  1.5917 -1.0903
 1542TIP3    H226118   5.650   1.187  13.413  0.6912 -0.9591  1.2696
 1543TIP3   OH226119   5.866   5.583   5.084 -0.0761  0.1371 -0.4703
 1543TIP3    H126120   5.784   5.535   5.095 -0.4237  1.1545  2.0742
 1543TIP3    H226121   5.840   5.665   5.042 -0.1711 -0.0634 -0.8012
 1544TIP3   OH226122   2.345   1.588   5.950 -0.4212 -0.5756  1.0903
 1544TIP3    H126123   2.362   1.542   5.868  1.2968  0.5041  0.7987
 1544TIP3    H226124   2.347   1.681   5.927  1.0060 -0.2186  2.4800
 1545TIP3   OH226125   4.570   4.170  15.833  0.0634  0.0461 -0.1999
 1545TIP3    H126126   4.534   4.209  15.912 -0.3489 -2.6273  1.0201
 1545TIP3    H226127   4.513   4.202  15.762 -2.7552 -1.3890  1.2442
 1546TIP3   OH226128   2.133   1.391   3.807 -0.6995 -0.0859 -0.4604
 1546TIP3    H126129   2.217   1.362   3.773 -1.1036 -1.2154 -0.5411
 1546TIP3    H226130   2.153   1.431   3.891 -0.1137 -0.6239 -0.3417
 1547TIP3   OH226131   5.032   4.702  11.855  0.1567 -0.0795  0.5823
 1547TIP3    H126132   5.061   4.704  11.946  2.1730  0.0659 -0.0035
 1547TIP3    H226133   5.021   4.794  11.832 -1.9541 -0.1649  1.1098
 1548TIP3   OH226134   3.644   4.604  13.606  0.1627  0.4085 -0.3269
 1548TIP3    H126135   3.650   4.616  13.701  1.1523  3.6039 -0.6484
 1548TIP3    H226136   3.572   4.661  13.579 -0.9455 -1.4137 -1.4306
 1549TIP3   OH226137   5.291   2.207  15.936  0.3344 -0.6100  0.1591
 1549TIP3    H126138   5.254   2.184  15.850 -0.6013 -0.6718  0.5605
 1549TIP3    H226139   5.271   2.132  15.991 -1.4961  0.5151  1.1245
 1550TIP3   OH226140   1.686   3.682  16.359  0.3824 -0.3205  0.1988
 1550TIP3    H126141   1.617   3.666  16.424  0.4359  1.0223  0.6155
 1550TIP3    H226142   1.753   3.731  16.406  1.5715 -1.4482 -0.2541
 1551TIP3   OH226143   0.013   3.338  14.311  0.3227 -0.5881  0.0733
 1551TIP3    H126144   0.054   3.402  14.252 -0.0253 -1.3864 -1.0722
 1551TIP3    H226145   0.086   3.283  14.340  1.2198  2.0386  3.5306
 1552TIP3   OH226146   0.723   5.230  15.030 -0.2331  0.0281 -0.0044
 1552TIP3    H126147   0.720   5.143  14.990  1.9661  0.2891 -0.8910
 1552TIP3    H226148   0.786   5.278  14.976  1.1743  1.1055  2.4570
 1553TIP3   OH226149   1.447   2.723   2.764 -0.2918  0.1847 -0.0305
 1553TIP3    H126150   1.408   2.799   2.720  1.2280  0.0405 -1.7301
 1553TIP3    H226151   1.372   2.669   2.787 -1.2620  1.0728 -0.9590
 1554TIP3   OH226152   6.568   4.603   5.426 -0.1627 -0.2287  0.1527
 1554TIP3    H126153   6.544   4.692   5.450  0.4164 -0.5175  1.9563
 1554TIP3    H226154   6.509   4.547   5.476  0.4884 -0.8618  0.2388
 1555TIP3   OH226155   6.812   6.151   0.158 -0.9197 -0.2925 -0.2253
 1555TIP3    H126156   6.897   6.164   0.118 -0.1459 -0.5695  1.2671
 1555TIP3    H226157   6.826   6.168   0.251 -2.1965 -1.5853  0.2425
 1556TIP3   OH226158   3.091   5.470  16.836  0.5155  0.3041  0.1386
 1556TIP3    H126159   3.148   5.481  16.912  2.2954 -0.5628 -0.9978
 1556TIP3    H226160   3.151   5.466  16.762 -1.1243  0.4634 -1.2577
 1557TIP3   OH226161   2.018   0.796   0.795  0.0013  0.4789 -0.0229
 1557TIP3    H126162   2.025   0.787   0.891 -1.5052  1.2316  0.1945
 1557TIP3    H226163   2.080   0.865   0.773  2.0367 -1.2406  0.0675
 1558TIP3   OH226164   4.448   4.795   4.326  0.5853 -0.7985  0.2577
 1558TIP3    H126165   4.396   4.804   4.246 -1.1875 -2.6387  1.1161
 1558TIP3    H226166   4.449   4.883   4.363 -1.0095 -0.4601 -0.3752
 1559TIP3   OH226167   6.621   5.332   5.218  0.6084 -0.6049  0.1120
 1559TIP3    H126168   6.567   5.398   5.175  1.8110  1.0610  1.0490
 1559TIP3    H226169   6.558   5.265   5.247 -0.5575 -0.2234 -1.4194
 1560TIP3   OH226170   5.645   2.780  11.671  0.3968  0.3282  0.0903
 1560TIP3    H126171   5.668   2.847  11.735  1.0526  0.6602 -0.4845
 1560TIP3    H226172   5.658   2.823  11.586  2.4663 -1.0122 -0.3381
 1561TIP3   OH226173   0.735   4.895   3.219 -0.4066 -0.2240  0.1425
 1561TIP3    H126174   0.748   4.905   3.125 -2.7887  0.2617 -0.1940
 1561TIP3    H226175   0.789   4.819   3.243  0.8835  0.1514 -1.4242
 1562TIP3   OH226176   3.141   5.757   5.688  0.1702 -0.3678  0.6692
 1562TIP3    H126177   3.164   5.791   5.774 -0.5763  0.0437  0.7163
 1562TIP3    H226178   3.048   5.777   5.679  0.4520  0.4421 -0.6297
 1563TIP3   OH226179   5.459   2.152  14.116  0.1449  0.6809  0.9845
 1563TIP3    H126180   5.457   2.056  14.111  0.6339  0.6529  1.3031
 1563TIP3    H226181   5.387   2.180  14.060  0.7626  0.1566 -0.1090
 1564TIP3   OH226182   4.989   6.445   0.317  0.7024 -0.4182  0.8283
 1564TIP3    H126183   5.015   6.371   0.371  2.0220 -0.1971  0.5299
 1564TIP3    H226184   4.937   6.407   0.247  1.9056 -1.1617  0.3162
 1565TIP3   OH226185   3.899   0.868   3.921  0.3757 -0.3842  0.1830
 1565TIP3    H126186   3.862   0.875   4.009 -0.7231  0.7195 -0.3437
 1565TIP3    H226187   3.828   0.894   3.862  1.4766  0.1435 -0.9714
 1566TIP3   OH226188   0.537   5.070   3.190 -0.3687 -0.1708  0.0528
 1566TIP3    H126189   0.592   5.005   3.235 -0.6990  0.6999  1.8059
 1566TIP3    H226190   0.599   5.135   3.157 -0.1253 -0.7805 -0.7063
 1567TIP3   OH226191   4.262   0.851   5.561 -0.0574 -0.4175  0.1510
 1567TIP3    H126192   4.351   0.882   5.574  0.0068 -0.3025 -0.5336
 1567TIP3    H226193   4.212   0.888   5.634 -0.1232  1.8399 -0.9713
 1568TIP3   OH226194   4.252   4.825  16.816 -0.1161  0.4012 -0.6924
 1568TIP3    H126195   4.169   4.795  16.853  1.0688 -1.5397  0.5348
 1568TIP3    H226196   4.247   4.801  16.724 -0.6847 -0.2250 -0.5041
 1569TIP3   OH226197   6.698   0.636   6.094 -0.5630  0.3571 -0.3929
 1569TIP3    H126198   6.651   0.574   6.039  0.5482 -0.3588 -0.5600
 1569TIP3    H226199   6.729   0.584   6.168  3.1141 -0.1311 -2.0545
 1570TIP3   OH226200   0.470   6.570  10.973 -0.0995 -0.6909 -0.3882
 1570TIP3    H126201   0.405   6.542  10.908  0.1976  0.6461 -1.3079
 1570TIP3    H226202   0.422   6.632  11.029  0.2406 -0.0766 -0.7684
 1571TIP3   OH226203   3.239   2.708   3.166  0.2168  0.0274  0.3378
 1571TIP3    H126204   3.281   2.624   3.147  0.3411  0.4397 -1.3792
 1571TIP3    H226205   3.146   2.691   3.159  0.2427  0.4630 -2.4631
 1572TIP3   OH226206   0.572   6.413   3.514 -0.1924  0.0489 -0.2307
 1572TIP3    H126207   0.541   6.350   3.449  2.2805 -1.7820  0.2390
 1572TIP3    H226208   0.641   6.462   3.470 -1.2457  1.6756 -0.1893
 1573TIP3   OH226209   6.526   4.165   2.834  0.0434  0.4067  0.1211
 1573TIP3    H126210   6.536   4.255   2.803  2.5510  0.0764 -0.2273
 1573TIP3    H226211   6.461   4.127   2.776 -0.9746  1.9471  0.1983
 1574TIP3   OH226212   4.746   2.048   0.851 -0.2729  0.1677  0.1291
 1574TIP3    H126213   4.684   1.983   0.819 -0.0117 -0.3910  0.7322
 1574TIP3    H226214   4.725   2.058   0.944 -0.3182  0.9583  0.0405
 1575TIP3   OH226215   5.209   3.993  13.015  0.0032  0.1011  0.2622
 1575TIP3    H126216   5.287   3.983  12.961  1.6219  1.2751  2.2516
 1575TIP3    H226217   5.179   4.083  12.997 -1.3126 -0.5476 -0.9600
 1576TIP3   OH226218   0.353   5.862  14.166  0.0842 -0.7195  0.1901
 1576TIP3    H126219   0.369   5.934  14.227  2.1805 -0.1472 -0.9205
 1576TIP3    H226220   0.277   5.817  14.201  0.1705  0.6043  2.2542
 1577TIP3   OH226221   1.607   3.905  13.971 -0.7659 -0.2374 -0.2524
 1577TIP3    H126222   1.512   3.914  13.960 -0.4935  0.5607 -2.1920
 1577TIP3    H226223   1.629   3.971  14.037 -1.5279 -0.3262  0.1058
 1578TIP3   OH226224   4.927   5.894  11.591 -0.0425  0.6429  0.3949
 1578TIP3    H126225   4.940   5.799  11.583 -0.6228  0.6379 -0.5265
 1578TIP3    H226226   4.917   5.908  11.685 -0.8622 -0.3280  0.4698
 1579TIP3   OH226227   5.537   3.738   5.575  0.4108  0.8129 -0.4669
 1579TIP3    H126228   5.477   3.716   5.646 -0.3972  1.7479 -0.8460
 1579TIP3    H226229   5.609   3.676   5.585  0.4320  1.0836  1.3004
 1580TIP3   OH226230   0.838   1.195   1.073 -0.2520 -0.0255  0.2505
 1580TIP3    H126231   0.922   1.199   1.028  0.4584  3.2146  1.5781
 1580TIP3    H226232   0.773   1.209   1.004  0.4927  0.2257 -0.4144
 1581TIP3   OH226233   2.301   2.789   2.748 -0.2969 -0.1265 -0.3230
 1581TIP3    H126234   2.380   2.828   2.710 -0.5255  0.5509 -0.1182
 1581TIP3    H226235   2.309   2.696   2.730  0.0546  0.0637 -1.2191
 1582TIP3   OH226236   0.462   0.455  11.646 -0.3796  0.5320 -0.2999
 1582TIP3    H126237   0.388   0.395  11.650  0.0073  0.0746  0.1793
 1582TIP3    H226238   0.529   0.407  11.596  0.5832 -0.1871  1.6008
 1583TIP3   OH226239   4.152   1.431  13.495 -0.2764 -0.4554  0.0773
 1583TIP3    H126240   4.227   1.400  13.546  1.1516  1.5561 -0.6654
 1583TIP3    H226241   4.188   1.445  13.407 -0.6507  3.3718  0.3849
 1584TIP3   OH226242   0.108   2.024  11.856  0.1066  0.1177  0.0571
 1584TIP3    H126243   0.020   2.045  11.824  1.0278  0.3638 -2.5576
 1584TIP3    H226244   0.159   2.104  11.838  1.4304 -0.9064 -0.9589
 1585TIP3   OH226245   3.334   4.284  12.163 -0.0605 -0.0346 -0.2764
 1585TIP3    H126246   3.246   4.295  12.197  0.9278  1.1419  2.1155
 1585TIP3    H226247   3.351   4.364  12.113 -0.3045 -0.2335 -0.6834
 1586TIP3   OH226248   1.353   1.785  12.752  0.8768 -0.0678 -0.0998
 1586TIP3    H126249   1.408   1.756  12.825 -0.0736 -0.5924  0.4203
 1586TIP3    H226250   1.356   1.881  12.758 -0.0728 -0.1011  1.3190
 1587TIP3   OH226251   6.295   5.624   0.994 -0.1387  0.0778  0.3251
 1587TIP3    H126252   6.299   5.716   1.022 -0.5671  0.6446 -1.3744
 1587TIP3    H226253   6.224   5.621   0.930  0.9727 -1.0767 -0.9274
 1588TIP3   OH226254   3.240   4.702  16.988 -0.3391 -0.0028 -0.2785
 1588TIP3    H126255   3.185   4.641  16.939 -1.3028 -0.9238  1.8348
 1588TIP3    H226256   3.324   4.658  16.996 -0.1288  0.2185 -1.1928
 1589TIP3   OH226257   6.380   2.975  12.356  0.5122  0.6145  0.7021
 1589TIP3    H126258   6.388   2.951  12.448  1.9422 -0.4333  0.3493
 1589TIP3    H226259   6.286   2.975  12.339  0.2879 -1.3968  1.6403
 1590TIP3   OH226260   1.704   4.210   4.975  0.0434  0.1403 -0.0376
 1590TIP3    H126261   1.693   4.116   4.961 -3.2213  0.3868 -0.0470
 1590TIP3    H226262   1.752   4.217   5.057 -1.7411 -1.6405  1.2721
 1591TIP3   OH226263   1.965   4.971  15.203 -0.1885  0.1998 -0.0438
 1591TIP3    H126264   1.934   5.004  15.287 -1.2288  0.0665 -0.3540
 1591TIP3    H226265   1.938   5.039  15.140 -0.5212 -0.2776 -0.4203
 1592TIP3   OH226266   5.537   4.138   2.863 -0.9465 -0.0058 -0.5832
 1592TIP3    H126267   5.456   4.154   2.814 -0.1713  1.2437 -1.5255
 1592TIP3    H226268   5.573   4.225   2.878  0.0643 -0.5306  0.0977
 1593TIP3   OH226269   3.246   3.677   5.455 -0.1573 -1.0545  0.6323
 1593TIP3    H126270   3.180   3.613   5.429 -1.2160 -0.1720  1.0361
 1593TIP3    H226271   3.226   3.696   5.547  0.6840 -0.8029  0.7694
 1594TIP3   OH226272   1.379   4.890   3.651 -0.4674 -0.4554  0.6243
 1594TIP3    H126273   1.456   4.889   3.708 -1.2859  0.3091  1.7903
 1594TIP3    H226274   1.321   4.955   3.691 -1.5430 -0.7188 -0.4651
 1595TIP3   OH226275   4.863   0.818   1.345 -0.1214  0.3487 -0.4700
 1595TIP3    H126276   4.866   0.914   1.345  0.3997  0.4101  2.1665
 1595TIP3    H226277   4.953   0.791   1.323 -0.1610  0.4661 -0.7813
 1596TIP3   OH226278   3.059   3.423   1.197 -0.0184  0.6788 -0.6595
 1596TIP3    H126279   3.147   3.451   1.221 -0.2385  1.8852 -1.1967
 1596TIP3    H226280   3.069   3.331   1.172  1.2350  0.9921 -1.4212
 1597TIP3   OH226281   0.495   4.000   4.035  0.3922 -0.0346 -0.9491
 1597TIP3    H126282   0.403   3.989   4.059  0.3528 -0.1978 -1.1645
 1597TIP3    H226283   0.492   4.032   3.944  0.5325  0.6842 -0.7100
 1598TIP3   OH226284   5.057   5.253   3.449 -0.3358 -0.1016  0.2212
 1598TIP3    H126285   5.099   5.170   3.469 -1.9715 -0.7163  1.2925
 1598TIP3    H226286   5.120   5.320   3.476  0.5054 -0.9822  0.4614
 1599TIP3   OH226287   4.684   6.014   0.219  0.1239  0.2389 -0.3049
 1599TIP3    H126288   4.779   6.022   0.211 -0.0377  2.5636 -0.4056
 1599TIP3    H226289   4.652   6.008   0.129  0.1779 -0.8955 -0.2596
 1600TIP3   OH226290   6.580   6.029  15.419 -0.1006  0.4608 -0.2609
 1600TIP3    H126291   6.628   5.947  15.434  1.7685  1.6814  0.7775
 1600TIP3    H226292   6.610   6.088  15.488  0.4135  2.7974 -2.3449
 1601TIP3   OH226293   0.954   5.558   2.074 -0.4560 -0.9562  0.4260
 1601TIP3    H126294   0.999   5.642   2.076  0.0961 -1.0760 -2.2798
 1601TIP3    H226295   1.019   5.495   2.103  0.0704 -0.7467 -0.2789
 1602TIP3   OH226296   3.860   1.533   0.400 -0.3695 -0.0227 -0.1201
 1602TIP3    H126297   3.892   1.461   0.455 -0.1304  0.5525  0.5183
 1602TIP3    H226298   3.913   1.609   0.428 -2.4551  1.0456  1.2034
 1603TIP3   OH226299   3.896   3.129  15.424  0.0595  0.2218  0.1926
 1603TIP3    H126300   3.920   3.177  15.503 -1.4773  0.1592  0.7422
 1603TIP3    H226301   3.979   3.109  15.381  0.9420  0.0627  1.9118
 1604TIP3   OH226302   1.585   4.506  10.602  0.1078  0.0425  0.4036
 1604TIP3    H126303   1.528   4.443  10.645 -0.8602 -0.3441 -1.3300
 1604TIP3    H226304   1.646   4.452  10.551 -0.3062  0.4728 -0.5729
 1605TIP3   OH226305   4.798   6.607   3.555 -0.2706 -0.0541 -0.1439
 1605TIP3    H126306   4.741   6.569   3.622 -1.3861 -1.1407 -1.6328
 1605TIP3    H226307   4.881   6.621   3.600 -0.8734 -1.0299  1.3812
 1606TIP3   OH226308   6.641   6.717   2.163 -0.0228 -0.3280  0.1712
 1606TIP3    H126309   6.675   6.803   2.135  2.2183  0.2817  3.9884
 1606TIP3    H226310   6.548   6.732   2.178  0.3580  1.5998  0.9778
 1607TIP3   OH226311   4.161   2.944  15.586  0.2042  0.2838  0.4781
 1607TIP3    H126312   4.222   2.979  15.520 -0.1879  1.8208  0.8811
 1607TIP3    H226313   4.097   3.014  15.598 -1.3445 -1.0773  0.4711
 1608TIP3   OH226314   4.595   6.194  13.425 -0.1941  0.6941  0.1152
 1608TIP3    H126315   4.568   6.281  13.455  1.4171  1.2314  0.0885
 1608TIP3    H226316   4.685   6.185  13.456  0.3567 -0.1281 -1.6057
 1609TIP3   OH226317   6.744   2.859  11.018  0.3112  0.1588 -0.0512
 1609TIP3    H126318   6.750   2.924  11.088 -0.9597 -0.5105  0.7265
 1609TIP3    H226319   6.824   2.807  11.025 -0.9278 -1.6178  2.7386
 1610TIP3   OH226320   1.355   3.479  13.870  0.1395 -0.5225 -0.7722
 1610TIP3    H126321   1.331   3.560  13.915 -1.4636 -1.0731 -0.5902
 1610TIP3    H226322   1.450   3.484  13.862  0.0593  1.5809 -1.1660
 1611TIP3   OH226323   6.239   0.859   0.297  0.2084 -0.2228  0.5738
 1611TIP3    H126324   6.241   0.897   0.384 -0.0591  0.0065  0.4829
 1611TIP3    H226325   6.154   0.884   0.262  0.1242 -0.7123  0.4231
 1612TIP3   OH226326   0.644   4.655  16.251  0.7309  0.4586  0.3741
 1612TIP3    H126327   0.581   4.713  16.209  0.9556  0.3969 -0.0574
 1612TIP3    H226328   0.728   4.679  16.211  0.7284 -0.6456 -0.3453
 1613TIP3   OH226329   2.689   0.257   1.693  0.2050  0.1671  0.2000
 1613TIP3    H126330   2.693   0.344   1.654  1.2254 -0.6944 -1.7978
 1613TIP3    H226331   2.635   0.207   1.632  0.6917 -0.9047  0.6260
 1614TIP3   OH226332   6.616   6.119   4.417  0.1826  0.4016  0.7371
 1614TIP3    H126333   6.565   6.066   4.356  1.0055 -0.7690  1.0251
 1614TIP3    H226334   6.597   6.080   4.503  1.8092 -0.2848  0.8059
 1615TIP3   OH226335   3.357   3.569  10.496 -0.4505 -0.1043  0.2873
 1615TIP3    H126336   3.366   3.642  10.435 -1.7790  0.4577  0.7341
 1615TIP3    H226337   3.271   3.531  10.476  0.0181 -1.2748  0.3754
 1616TIP3   OH226338   2.265   5.748   2.526 -0.0073  0.0973 -0.1283
 1616TIP3    H126339   2.327   5.816   2.552  0.7303 -0.5068 -0.2576
 1616TIP3    H226340   2.215   5.786   2.454  1.5136 -0.0591 -1.3128
 1617TIP3   OH226341   5.291   0.368  12.837  0.1897 -0.1615 -0.3319
 1617TIP3    H126342   5.317   0.329  12.921 -3.0071  1.6429  1.7090
 1617TIP3    H226343   5.201   0.337  12.824 -0.2755  1.6307 -1.7442
 1618TIP3   OH226344   5.920   5.836   1.826  0.5919 -0.8764  0.0940
 1618TIP3    H126345   5.883   5.808   1.909  0.8290 -0.4334  0.3487
 1618TIP3    H226346   5.994   5.892   1.849  0.8943 -1.0540 -0.4106
 1619TIP3   OH226347   5.152   4.402   0.132  0.0184  0.4486 -0.4220
 1619TIP3    H126348   5.087   4.429   0.197  1.2419 -0.1684  1.1303
 1619TIP3    H226349   5.135   4.458   0.056  0.9316  4.0231  1.7501
 1620TIP3   OH226350   0.540   2.730  13.319 -0.9906  0.3057 -0.3373
 1620TIP3    H126351   0.553   2.774  13.404  0.1231  0.8104 -0.7522
 1620TIP3    H226352   0.624   2.690  13.299 -0.7679  1.4390 -1.8872
 1621TIP3   OH226353   4.062   4.693  11.312 -0.6068  0.0377 -0.1805
 1621TIP3    H126354   4.043   4.766  11.371  0.2979  0.5624 -0.5199
 1621TIP3    H226355   4.156   4.700  11.295 -0.6224 -0.8563 -0.6955
 1622TIP3   OH226356   0.583   5.752   0.084 -0.5477  0.7877 -0.1739
 1622TIP3    H126357   0.560   5.678   0.029 -0.3586  1.5456 -1.2998
 1622TIP3    H226358   0.649   5.800   0.035  1.1488  0.3956  1.6008
 1623TIP3   OH226359   4.343   6.058   3.221  0.0191 -0.1812  0.0446
 1623TIP3    H126360   4.402   5.989   3.194  0.4666  1.0685 -2.4103
 1623TIP3    H226361   4.262   6.042   3.172 -0.9728 -0.6172  1.7192
 1624TIP3   OH226362   2.724   0.662  15.854 -0.3989 -0.2734 -0.3494
 1624TIP3    H126363   2.709   0.650  15.760 -1.4379  0.5792 -0.3097
 1624TIP3    H226364   2.636   0.662  15.892 -0.1107  1.3620  0.3735
 1625TIP3   OH226365   5.241   6.220   3.690 -0.6106  0.9440  0.0483
 1625TIP3    H126366   5.160   6.258   3.723  0.0325  3.1225 -0.6484
 1625TIP3    H226367   5.243   6.246   3.597  1.1328  1.5054  0.1952
 1626TIP3   OH226368   3.603   3.581   4.691  0.6092  0.4637 -0.0245
 1626TIP3    H126369   3.691   3.616   4.680  0.7419 -0.4024 -2.1483
 1626TIP3    H226370   3.590   3.523   4.617 -1.1830 -0.6807  1.0942
 1627TIP3   OH226371   3.157   6.214  15.188  0.3266  0.4955 -0.3148
 1627TIP3    H126372   3.245   6.213  15.151  0.4841  1.7941 -0.0203
 1627TIP3    H226373   3.156   6.143  15.252  1.1107  0.3623 -0.4489
 1628TIP3   OH226374   3.031   4.191  11.032 -0.2388 -0.5604  0.6926
 1628TIP3    H126375   3.033   4.124  10.964 -2.5600 -0.5285  0.5134
 1628TIP3    H226376   3.076   4.151  11.106 -3.1246 -3.2035  1.2660
 1629TIP3   OH226377   3.432   1.156   0.409 -0.6847  0.1717  0.0358
 1629TIP3    H126378   3.379   1.183   0.334 -2.8308 -1.8716  0.7147
 1629TIP3    H226379   3.494   1.228   0.422 -0.6121  0.8635 -3.2949
 1630TIP3   OH226380   0.152   5.718  12.228 -0.5241 -0.4019 -0.0351
 1630TIP3    H126381   0.118   5.629  12.222  0.2426 -0.6839 -0.3845
 1630TIP3    H226382   0.121   5.751  12.312 -0.9686 -0.9340  0.0081
 1631TIP3   OH226383   4.460   6.000   4.012 -0.2806  0.4240  0.0914
 1631TIP3    H126384   4.458   6.022   3.919 -1.7688  0.7870  0.1805
 1631TIP3    H226385   4.427   5.910   4.017 -1.6888  0.9196  0.3573
 1632TIP3   OH226386   3.068   5.091   4.193 -0.5929 -0.3087 -0.5026
 1632TIP3    H126387   3.070   5.158   4.262  0.8811 -2.1770  1.4221
 1632TIP3    H226388   2.991   5.039   4.212 -0.0790 -0.9421 -0.1006
 1633TIP3   OH226389   0.484   6.774   3.804  0.4670  0.6923  0.2275
 1633TIP3    H126390   0.400   6.813   3.781 -0.7997 -1.9310  0.0746
 1633TIP3    H226391   0.538   6.787   3.726 -0.8438 -0.2435 -0.8887
 1634TIP3   OH226392   6.495   0.416  13.683 -0.0682  0.4132 -0.5336
 1634TIP3    H126393   6.544   0.427  13.765 -1.8895 -0.4144  0.7361
 1634TIP3    H226394   6.523   0.489  13.628  1.0140  1.1425  0.9231
 1635TIP3   OH226395   0.972   0.881   4.007 -0.3470  0.2677  0.2660
 1635TIP3    H126396   0.880   0.872   4.034 -0.2514 -0.1528  0.4547
 1635TIP3    H226397   0.967   0.903   3.914 -0.6160 -1.0296 -0.0490
 1636TIP3   OH226398   5.905   2.915   4.949 -0.1216  0.0737 -0.1478
 1636TIP3    H126399   5.857   2.907   5.032  1.4393 -0.1070  0.7951
 1636TIP3    H226400   5.914   2.826   4.918  0.9848 -0.0752  0.5401
 1637TIP3   OH226401   4.597   1.206   2.028  0.5414 -0.7875 -0.1978
 1637TIP3    H126402   4.587   1.302   2.028  1.0967 -0.7225 -0.2585
 1637TIP3    H226403   4.578   1.180   2.118  0.6471 -0.5841 -0.1148
 1638TIP3   OH226404   5.718   3.307   3.993  0.4087  0.3008  0.1878
 1638TIP3    H126405   5.661   3.231   3.994  1.4697 -0.6087 -1.9439
 1638TIP3    H226406   5.698   3.353   4.075 -1.1662 -1.5581  0.9321
 1639TIP3   OH226407   3.617   2.767   0.561 -0.3355 -0.3029  0.2150
 1639TIP3    H126408   3.686   2.702   0.567 -1.0539 -1.2253 -1.2069
 1639TIP3    H226409   3.536   2.716   0.558 -0.9525  0.6802 -0.2518
 1640TIP3   OH226410   2.538   1.469   3.728 -0.2554 -0.0426 -0.0627
 1640TIP3    H126411   2.604   1.537   3.738 -1.1047  0.9133 -0.7506
 1640TIP3    H226412   2.460   1.505   3.771 -0.2357 -1.3433  1.1461
 1641TIP3   OH226413   2.528   3.120   3.594  0.3692  0.3549 -0.2638
 1641TIP3    H126414   2.450   3.091   3.546  1.1776 -0.7914 -0.9451
 1641TIP3    H226415   2.578   3.170   3.530  0.4527  0.6368  0.0199
 1642TIP3   OH226416   3.512   4.867  15.849  0.1030 -0.4768 -0.4624
 1642TIP3    H126417   3.603   4.864  15.878 -0.0819  1.1513  0.4124
 1642TIP3    H226418   3.474   4.785  15.880  1.3501 -1.3700 -1.2151
 1643TIP3   OH226419   5.479   6.018  12.933  0.0309 -0.1158 -0.1508
 1643TIP3    H126420   5.438   5.993  12.850  0.9492  2.5590 -1.5027
 1643TIP3    H226421   5.468   6.113  12.938  1.5915  0.0243  1.9382
 1644TIP3   OH226422   3.499   2.583  10.305 -0.4471  0.6392 -0.0151
 1644TIP3    H126423   3.448   2.650  10.349  2.1824  1.5878  1.8750
 1644TIP3    H226424   3.571   2.630  10.263 -0.3383 -0.7185 -1.4547
 1645TIP3   OH226425   6.454   0.447   6.274  0.0956  0.1570  0.0940
 1645TIP3    H126426   6.424   0.496   6.351  0.9872  0.4624  0.2537
 1645TIP3    H226427   6.549   0.455   6.276  0.2977 -1.8409  0.3024
 1646TIP3   OH226428   0.555   4.746   0.801  0.1778 -0.2238  0.7193
 1646TIP3    H126429   0.635   4.793   0.826  0.8400 -1.2082  0.5231
 1646TIP3    H226430   0.586   4.668   0.756 -0.9441  0.4627 -1.4044
 1647TIP3   OH226431   1.802   0.135  10.848 -0.1403 -0.5602  0.2733
 1647TIP3    H126432   1.714   0.103  10.826 -0.7840  1.1374  0.2095
 1647TIP3    H226433   1.790   0.229  10.862  1.8095 -0.1488 -0.4910
 1648TIP3   OH226434   5.295   6.203  12.383 -0.4764  0.3508 -0.2680
 1648TIP3    H126435   5.212   6.230  12.342  0.3008  1.8020 -0.9642
 1648TIP3    H226436   5.306   6.262  12.457 -0.5223 -0.4933  0.4355
 1649TIP3   OH226437   2.992   2.340   3.533  0.3395 -0.2385  0.2101
 1649TIP3    H126438   2.913   2.380   3.568  1.0755 -0.2496  2.0038
 1649TIP3    H226439   3.040   2.311   3.610  1.2580 -1.8629 -0.9081
 1650TIP3   OH226440   1.761   0.897   0.727  0.2390  0.2748 -0.3956
 1650TIP3    H126441   1.728   0.810   0.702 -0.6854  0.6481 -0.5114
 1650TIP3    H226442   1.854   0.883   0.744 -0.0744 -0.9217  0.4455
 1651TIP3   OH226443   6.392   3.022   2.812 -0.6793 -0.5065  0.6492
 1651TIP3    H126444   6.468   3.047   2.864 -0.8325  0.5042  0.4084
 1651TIP3    H226445   6.329   3.094   2.826 -1.2240 -0.8681  0.1034
 1652TIP3   OH226446   5.741   3.213   5.840  0.1628  0.1234  0.3624
 1652TIP3    H126447   5.730   3.208   5.935  1.9902 -0.7277  0.5814
 1652TIP3    H226448   5.742   3.307   5.822 -0.9025  0.2896  1.0780
 1653TIP3   OH226449   1.594   1.902  13.563 -0.4872  0.2682  0.2911
 1653TIP3    H126450   1.661   1.846  13.523 -1.8044 -1.5306  0.4349
 1653TIP3    H226451   1.640   1.982  13.586  1.2715 -0.3177 -0.9274
 1654TIP3   OH226452   0.977   6.707   0.790 -0.2065 -0.4782 -0.0656
 1654TIP3    H126453   1.065   6.704   0.828  0.2574  0.8641 -0.9655
 1654TIP3    H226454   0.992   6.719   0.697 -1.3581 -0.9096 -0.3217
 1655TIP3   OH226455   1.438   6.132   3.429  0.0709 -0.3256 -0.1957
 1655TIP3    H126456   1.482   6.209   3.463  0.5042 -1.2407  1.4427
 1655TIP3    H226457   1.479   6.059   3.475 -1.4578 -1.4033 -0.4612
 1656TIP3   OH226458   1.257   6.080  11.712  0.2903 -0.3532 -0.0666
 1656TIP3    H126459   1.165   6.058  11.702 -0.0445  1.7105 -2.3961
 1656TIP3    H226460   1.300   6.041  11.637  0.6465  1.6404 -0.9728
 1657TIP3   OH226461   5.647   1.689  14.173 -0.3190 -0.0354  0.3657
 1657TIP3    H126462   5.683   1.756  14.115 -0.6370  0.3912  0.6587
 1657TIP3    H226463   5.718   1.668  14.233  0.6058 -1.7310 -1.2303
 1658TIP3   OH226464   6.477   1.407   4.276 -0.0182  0.4795  0.8663
 1658TIP3    H126465   6.450   1.494   4.308 -0.1471  0.7112  0.1503
 1658TIP3    H226466   6.482   1.353   4.355 -2.1069  0.5623  1.1174
 1659TIP3   OH226467   3.232   1.146  12.954  0.1067 -0.2690  0.3588
 1659TIP3    H126468   3.254   1.155  13.046 -1.6700 -0.7893  0.8849
 1659TIP3    H226469   3.142   1.178  12.947  0.0497 -0.6301 -1.1079
 1660TIP3   OH226470   6.453   6.698   3.366  0.6115  0.8085  0.5237
 1660TIP3    H126471   6.429   6.607   3.344  1.1503  0.9206 -0.6155
 1660TIP3    H226472   6.369   6.741   3.382 -0.0831  1.0616 -2.8785
 1661TIP3   OH226473   4.791   0.827  15.948  0.1465 -0.2576 -0.1382
 1661TIP3    H126474   4.740   0.821  16.028 -0.2502 -1.6801 -0.4784
 1661TIP3    H226475   4.749   0.766  15.887  0.8247  0.3104 -1.2151
 1662TIP3   OH226476   6.619   0.207  12.011 -0.0574  0.1054  0.2833
 1662TIP3    H126477   6.581   0.262  12.080 -1.2824  0.4314 -0.6213
 1662TIP3    H226478   6.681   0.264  11.966  0.5182 -0.0170  0.9095
 1663TIP3   OH226479   3.463   4.445  13.890  0.3041 -0.0107 -0.6488
 1663TIP3    H126480   3.548   4.405  13.909  0.2538 -0.7814 -1.9638
 1663TIP3    H226481   3.399   4.376  13.908 -0.2404  1.0305  1.8758
 1664TIP3   OH226482   2.854   2.185   0.823 -0.2949 -0.5118 -0.0924
 1664TIP3    H126483   2.808   2.101   0.829 -0.2220 -0.5862 -0.5380
 1664TIP3    H226484   2.862   2.202   0.729  1.8632 -1.1981 -0.0838
 1665TIP3   OH226485   5.192   1.171  17.225 -0.0939  0.2764 -0.6573
 1665TIP3    H126486   5.161   1.213  17.145  0.7871  0.0469 -1.1374
 1665TIP3    H226487   5.235   1.091  17.194  0.4440  0.2968  0.0260
 1666TIP3   OH226488   0.009   1.831   3.150  0.1980 -0.1963  0.2749
 1666TIP3    H126489   0.058   1.750   3.141 -0.7747 -1.0756  2.2922
 1666TIP3    H226490   0.068   1.889   3.199 -0.0183 -0.5918  1.0274
 1667TIP3   OH226491   4.013   1.559   2.901 -0.0839  0.1670  0.3549
 1667TIP3    H126492   4.036   1.535   2.990  1.2791 -0.1686 -0.0655
 1667TIP3    H226493   4.001   1.475   2.856  0.0378  0.3219  0.0305
 1668TIP3   OH226494   5.665   2.753  13.467 -0.4612  0.4825  0.5249
 1668TIP3    H126495   5.722   2.720  13.397 -1.6239 -0.7077  0.0892
 1668TIP3    H226496   5.702   2.718  13.547 -1.6113 -1.9932  0.0832
 1669TIP3   OH226497   2.641   3.902   2.834 -0.4448  0.0980 -0.0048
 1669TIP3    H126498   2.574   3.969   2.819 -0.6668  0.3969  2.0433
 1669TIP3    H226499   2.642   3.850   2.753 -2.1691  0.9190 -0.5964
 1670TIP3   OH226500   0.098   2.137  14.867  0.0318 -0.4117  0.1330
 1670TIP3    H126501   0.113   2.051  14.907 -1.6500 -1.7298 -1.8566
 1670TIP3    H226502   0.110   2.199  14.939  1.0128 -2.3027  1.7116
 1671TIP3   OH226503   2.531   2.530  15.373 -0.1265 -0.2137 -0.5524
 1671TIP3    H126504   2.581   2.604  15.338 -0.1138 -0.0548 -0.2059
 1671TIP3    H226505   2.581   2.453  15.347  0.3553 -0.0535 -0.1321
 1672TIP3   OH226506   6.331   3.047  13.932 -0.1435  0.1052  1.1041
 1672TIP3    H126507   6.362   3.137  13.923 -2.6235  1.2994  3.1602
 1672TIP3    H226508   6.400   3.002  13.981  0.9798  0.9324  0.3331
 1673TIP3   OH226509   4.390   3.017  12.759  0.5625 -0.0092 -0.5119
 1673TIP3    H126510   4.458   3.059  12.706 -0.2921  1.1092 -0.7659
 1673TIP3    H226511   4.343   2.960  12.699  0.1738  0.5587 -0.7509
 1674TIP3   OH226512   1.606   6.799  13.954 -0.5926  0.1614  0.3210
 1674TIP3    H126513   1.696   6.770  13.968 -0.8962 -0.9902  0.0157
 1674TIP3    H226514   1.588   6.860  14.025  0.1473 -0.2599  0.8731
 1675TIP3   OH226515   5.454   3.953  12.868  0.1323  0.6955 -0.1748
 1675TIP3    H126516   5.417   3.891  12.804  0.6653  0.1238  0.0658
 1675TIP3    H226517   5.545   3.926  12.878  1.1393  3.0769 -1.9893
 1676TIP3   OH226518   0.280   2.049   3.141 -0.3465  0.1508  0.1051
 1676TIP3    H126519   0.192   2.079   3.119 -0.0892  1.5112  0.8632
 1676TIP3    H226520   0.328   2.128   3.164  0.7593 -0.6951  0.8215
 1677TIP3   OH226521   6.287   6.202  12.976  0.1651 -0.4982  0.0528
 1677TIP3    H126522   6.200   6.168  12.955  0.1628 -0.9262  0.7111
 1677TIP3    H226523   6.340   6.183  12.898 -0.3345 -0.2120 -0.3577
 1678TIP3   OH226524   2.832   4.108   2.649  0.2242  0.0307  0.0707
 1678TIP3    H126525   2.785   4.188   2.627  0.8066 -0.4195 -3.4011
 1678TIP3    H226526   2.807   4.089   2.739 -2.8375  2.0854 -0.2189
 1679TIP3   OH226527   0.414   2.989   1.365  0.0638 -0.2288 -0.0151
 1679TIP3    H126528   0.394   3.035   1.283 -0.0714 -0.1513  0.0618
 1679TIP3    H226529   0.336   2.937   1.383  0.8658 -1.9019 -1.0481
 1680TIP3   OH226530   0.261   2.163   4.156 -0.0470 -0.3392 -0.1939
 1680TIP3    H126531   0.307   2.134   4.077  0.2362 -0.2840 -0.0494
 1680TIP3    H226532   0.184   2.210   4.122  0.2801  0.0210 -0.4434
 1681TIP3   OH226533   2.663   3.043   5.409  0.2531  0.0083 -0.2286
 1681TIP3    H126534   2.672   2.970   5.469  0.8127  0.1123 -0.1750
 1681TIP3    H226535   2.570   3.049   5.391 -0.2232  1.2968  2.2820
 1682TIP3   OH226536   2.330   4.774   1.917  0.3769  0.4669  0.1410
 1682TIP3    H126537   2.309   4.809   1.830  3.0358  0.1650 -0.7118
 1682TIP3    H226538   2.252   4.792   1.969 -1.4667  0.3459 -2.3699
 1683TIP3   OH226539   6.267   5.616  14.970 -0.1158  0.0402  0.4830
 1683TIP3    H126540   6.207   5.662  14.911 -1.2283  0.0769  1.5998
 1683TIP3    H226541   6.333   5.579  14.912 -0.7737  0.6637 -0.7176
 1684TIP3   OH226542   1.077   3.063  15.285 -0.0807  0.3091  0.5788
 1684TIP3    H126543   1.153   3.056  15.227 -0.6934  0.3609 -0.2513
 1684TIP3    H226544   1.032   2.979  15.277  1.8009 -1.2433  3.9084
 1685TIP3   OH226545   0.993   2.510  10.956  0.0653 -0.1818  0.6219
 1685TIP3    H126546   0.971   2.538  11.045 -2.8840 -0.5144  0.0939
 1685TIP3    H226547   0.909   2.504  10.912  1.4444 -0.1928 -2.1796
 1686TIP3   OH226548   6.117   5.283   2.026 -0.5501  0.1518  0.4756
 1686TIP3    H126549   6.126   5.359   1.969  0.8956  0.8554  1.5620
 1686TIP3    H226550   6.195   5.231   2.009 -1.6119 -1.2292 -0.3843
 1687TIP3   OH226551   4.059   6.050  17.141  0.4377  0.3350 -0.5749
 1687TIP3    H126552   4.087   6.081  17.055 -0.7944  1.8984 -0.4632
 1687TIP3    H226553   4.013   6.124  17.180  2.0572  0.1249  1.9926
 1688TIP3   OH226554   2.055   4.599  11.411 -0.3299  0.0088 -0.5619
 1688TIP3    H126555   2.087   4.508  11.410 -0.8948 -0.2343  1.2386
 1688TIP3    H226556   2.068   4.629  11.321  2.5428 -0.9075 -0.5735
 1689TIP3   OH226557   3.708   0.167   3.106  0.7550 -0.5395 -0.6626
 1689TIP3    H126558   3.634   0.227   3.104 -0.7462 -2.2747  0.0754
 1689TIP3    H226559   3.668   0.080   3.099  2.6683 -1.5678  0.4759
 1690TIP3   OH226560   5.084   1.836  16.767 -0.2529 -0.1506  0.1006
 1690TIP3    H126561   5.124   1.754  16.797  1.4099  0.3604 -0.6016
 1690TIP3    H226562   5.155   1.900  16.771 -0.5624  0.4838 -2.5602
 1691TIP3   OH226563   2.453   2.110   1.224  0.1266  0.1865  0.5081
 1691TIP3    H126564   2.376   2.116   1.280 -0.3280 -0.1794 -0.0656
 1691TIP3    H226565   2.480   2.201   1.210  0.3740  0.2741  1.4775
 1692TIP3   OH226566   3.511   0.482  13.587  0.6580  0.5983 -0.1432
 1692TIP3    H126567   3.450   0.413  13.561 -0.3251  1.4468 -0.1894
 1692TIP3    H226568   3.514   0.540  13.510  1.6841  0.4699 -0.2119
 1693TIP3   OH226569   5.699   3.984  16.293 -0.2324 -0.1942 -0.1665
 1693TIP3    H126570   5.633   4.001  16.360 -0.7037 -1.2824 -0.3286
 1693TIP3    H226571   5.765   4.052  16.306 -1.3313  0.8488  0.0678
 1694TIP3   OH226572   0.553   5.554  16.252 -0.0494  0.2618 -0.0757
 1694TIP3    H126573   0.483   5.499  16.288  1.3781 -0.9537  0.9912
 1694TIP3    H226574   0.572   5.618  16.321 -0.3202  0.7961 -0.4918
 1695TIP3   OH226575   0.221   5.955   0.516  0.0940  0.4551 -0.4754
 1695TIP3    H126576   0.236   5.907   0.597  0.3479  1.5340  0.1268
 1695TIP3    H226577   0.239   5.891   0.447  1.5150 -0.0107  0.2894
 1696TIP3   OH226578   2.489   5.740   2.238 -0.0206 -0.2915 -0.3765
 1696TIP3    H126579   2.498   5.655   2.282 -0.6725 -0.7726 -1.1313
 1696TIP3    H226580   2.480   5.718   2.145  0.8447  0.6731 -0.7158
 1697TIP3   OH226581   0.275   6.200   5.536  0.1427 -0.0369  0.7428
 1697TIP3    H126582   0.199   6.196   5.595  1.3683 -0.1046  2.3922
 1697TIP3    H226583   0.349   6.221   5.593  1.2169  1.1167 -0.9693
 1698TIP3   OH226584   5.805   4.315   4.000 -0.1377 -0.3389 -0.2122
 1698TIP3    H126585   5.872   4.259   4.038 -0.3149 -1.1880 -1.0962
 1698TIP3    H226586   5.852   4.373   3.941 -0.0506 -0.1775  0.0184
 1699TIP3   OH226587   0.700   0.049  17.203 -0.1414  0.4009 -0.5090
 1699TIP3    H126588   0.670   0.012  17.286 -0.5141  0.4500 -0.6163
 1699TIP3    H226589   0.716   0.142  17.222 -1.1534  0.6290 -0.7126
 1700TIP3   OH226590   2.555   1.629  13.346  0.0981  0.4545 -0.4074
 1700TIP3    H126591   2.557   1.588  13.260 -0.6997 -1.4130  0.3981
 1700TIP3    H226592   2.475   1.683  13.345  0.3895  0.8814 -1.0078
 1701TIP3   OH226593   5.601   4.203   0.515  0.1711  0.0670  0.3688
 1701TIP3    H126594   5.628   4.237   0.601  2.5113 -0.8793  0.0851
 1701TIP3    H226595   5.564   4.117   0.534  0.6535 -0.1268  0.4312
 1702TIP3   OH226596   2.373   0.302   0.973  0.0059  0.5001  0.2532
 1702TIP3    H126597   2.426   0.345   1.040  1.6329 -0.0089 -0.6746
 1702TIP3    H226598   2.383   0.356   0.895  0.2431 -0.3172 -0.2986
 1703TIP3   OH226599   4.180   5.612  17.040 -0.2428  0.0459 -0.2250
 1703TIP3    H126600   4.130   5.682  17.081  0.3220 -0.1921  0.9158
 1703TIP3    H226601   4.264   5.652  17.017  0.9643 -0.7026  2.4537
 1704TIP3   OH226602   6.444   4.062   5.545  0.1370 -0.4157 -0.0791
 1704TIP3    H126603   6.473   3.973   5.567 -1.3507 -1.7401 -2.9367
 1704TIP3    H226604   6.469   4.074   5.454  1.5372  2.7521  0.5702
 1705TIP3   OH226605   5.775   3.754   2.090  0.2804 -0.1773 -0.5317
 1705TIP3    H126606   5.778   3.816   2.018 -1.5240  0.1984 -0.3233
 1705TIP3    H226607   5.703   3.695   2.069  1.2992 -1.5970 -0.2164
 1706TIP3   OH226608   5.579   5.771   5.524  0.0277  0.4674 -0.6748
 1706TIP3    H126609   5.637   5.785   5.599 -2.1951  1.4952  0.9710
 1706TIP3    H226610   5.498   5.817   5.547 -1.1883 -0.2044 -3.2048
 1707TIP3   OH226611   2.476   0.922  13.338 -0.5341  0.1960  0.2205
 1707TIP3    H126612   2.499   0.971  13.417 -2.7267 -0.2971  1.2616
 1707TIP3    H226613   2.384   0.944  13.322  0.1424  1.1206 -2.8879
 1708TIP3   OH226614   4.533   6.228  13.893 -0.3836  0.0493 -0.2507
 1708TIP3    H126615   4.566   6.288  13.825 -0.2562  0.6852  0.3611
 1708TIP3    H226616   4.571   6.261  13.974 -2.1014  0.4684  0.4037
 1709TIP3   OH226617   4.234   3.942  13.867  0.4691  0.0759  0.3844
 1709TIP3    H126618   4.230   3.989  13.783 -1.0563  0.2148  0.5169
 1709TIP3    H226619   4.143   3.932  13.893  0.8675 -1.2007  1.3568
 1710TIP3   OH226620   1.621   3.469   0.549  0.0854 -0.1607 -0.0046
 1710TIP3    H126621   1.664   3.426   0.623 -0.8775  2.1808  2.0832
 1710TIP3    H226622   1.615   3.561   0.576 -2.6547  0.3187 -1.8725
 1711TIP3   OH226623   0.144   4.144  12.003  0.0786  0.1498  0.2389
 1711TIP3    H126624   0.220   4.118  12.056  0.0380 -0.7660 -0.1396
 1711TIP3    H226625   0.082   4.073  12.014 -1.1295  1.3048  1.2697
 1712TIP3   OH226626   0.615   5.884   5.053  0.2165 -0.4566  0.0559
 1712TIP3    H126627   0.579   5.808   5.007  1.1229 -0.9534  0.1307
 1712TIP3    H226628   0.656   5.937   4.985 -0.0608 -0.2402  0.0563
 1713TIP3   OH226629   2.122   5.886  12.205  0.4570  0.2528  0.5499
 1713TIP3    H126630   2.208   5.844  12.201 -0.1434 -0.9764  0.1871
 1713TIP3    H226631   2.091   5.869  12.294  0.9690  1.5264  1.0016
 1714TIP3   OH226632   2.044   0.713  12.517 -0.1384  0.0827 -0.4515
 1714TIP3    H126633   2.038   0.764  12.436  1.6093 -1.2430 -1.4843
 1714TIP3    H226634   2.131   0.733  12.552 -0.2993 -0.4883  0.3073
 1715TIP3   OH226635   3.916   2.401   3.221 -0.1616  0.3430  0.5466
 1715TIP3    H126636   3.822   2.384   3.213 -0.9914  3.9674  0.4715
 1715TIP3    H226637   3.958   2.326   3.181 -3.1637  0.4594 -3.4208
 1716TIP3   OH226638   3.332   6.569   4.175  0.1208  0.2845 -0.1552
 1716TIP3    H126639   3.343   6.593   4.267 -2.8461 -2.0991  0.9956
 1716TIP3    H226640   3.420   6.549   4.145  1.1632  0.8426  2.2672
 1717TIP3   OH226641   2.939   1.450   0.577  0.3801 -0.5248 -0.0290
 1717TIP3    H126642   2.981   1.496   0.505  1.1427  0.4160  1.0043
 1717TIP3    H226643   2.978   1.362   0.576  1.1423 -0.1837 -0.1116
 1718TIP3   OH226644   1.382   1.035  13.757  0.6965 -0.2625 -0.3063
 1718TIP3    H126645   1.367   1.039  13.851 -0.9744  2.6771 -0.5757
 1718TIP3    H226646   1.337   0.956  13.729  0.1197 -0.5076  1.2159
 1719TIP3   OH226647   0.091   2.352  15.070 -0.5315  0.1524 -0.4551
 1719TIP3    H126648   0.051   2.339  15.156  1.8836 -0.9596  0.5641
 1719TIP3    H226649   0.151   2.425  15.082 -1.3292  1.0463 -1.6629
 1720TIP3   OH226650   6.590   4.681   4.122 -0.3857  0.3118 -0.1066
 1720TIP3    H126651   6.520   4.669   4.057 -1.4428  0.9618  0.8790
 1720TIP3    H226652   6.586   4.602   4.176 -0.4097  0.3881  0.0021
 1721TIP3   OH226653   5.647   3.633   0.603  0.3226 -0.7024 -0.0770
 1721TIP3    H126654   5.740   3.633   0.624  0.1820 -0.4532  0.5867
 1721TIP3    H226655   5.607   3.581   0.673  0.1173 -2.0010 -1.1201
 1722TIP3   OH226656   2.912   4.376  15.962 -0.3103 -0.7540  0.7743
 1722TIP3    H126657   2.917   4.453  16.020  1.3461  0.2690 -0.6129
 1722TIP3    H226658   2.881   4.305  16.019 -1.3483  0.7821  2.2463
 1723TIP3   OH226659   6.201   1.181  17.194  0.0013  0.0618  0.5617
 1723TIP3    H126660   6.262   1.255  17.195  0.4721 -0.2570 -1.1797
 1723TIP3    H226661   6.119   1.218  17.228  0.4454  1.1587  0.5038
 1724TIP3   OH226662   4.538   2.046   4.724  0.3922 -0.4657  0.4734
 1724TIP3    H126663   4.591   2.106   4.777 -0.9572 -1.4879  3.1948
 1724TIP3    H226664   4.517   1.974   4.783 -3.2346 -0.5416 -0.6570
 1725TIP3   OH226665   1.006   0.330   2.431 -0.3073 -0.1903 -0.0658
 1725TIP3    H126666   0.988   0.379   2.512 -1.3409  0.1981 -0.5119
 1725TIP3    H226667   0.925   0.283   2.413 -1.2154  2.0553 -2.4495
 1726TIP3   OH226668   6.318   2.692  12.544  0.0437 -0.2738  0.1609
 1726TIP3    H126669   6.253   2.626  12.566  0.9311 -1.9007 -1.7047
 1726TIP3    H226670   6.333   2.680  12.450  1.6095  1.3472  0.1408
 1727TIP3   OH226671   4.988   5.917  15.605  0.2364  0.3461 -0.1566
 1727TIP3    H126672   5.020   6.007  15.605  0.7343  0.1879 -1.6419
 1727TIP3    H226673   4.893   5.926  15.615  0.0820  1.1552 -1.8845
 1728TIP3   OH226674   1.250   0.601  13.252  0.4516  0.1247  0.4602
 1728TIP3    H126675   1.202   0.554  13.184  0.6612 -2.4226  1.9196
 1728TIP3    H226676   1.186   0.611  13.323  1.1978 -0.6170  1.2682
 1729TIP3   OH226677   6.349   0.611  15.887  0.5996  0.1433  0.0372
 1729TIP3    H126678   6.412   0.682  15.874  0.4599  0.4024  0.7252
 1729TIP3    H226679   6.264   0.653  15.879  0.5004  0.2906  1.4879
 1730TIP3   OH226680   6.037   0.919  15.681  0.0420 -0.4847  0.5171
 1730TIP3    H126681   5.965   0.864  15.713 -0.6988 -0.6271 -1.2564
 1730TIP3    H226682   6.086   0.861  15.622 -1.3593  0.9051 -2.2289
 1731TIP3   OH226683   1.107   5.106   2.855 -0.3270  0.6483  0.1803
 1731TIP3    H126684   1.052   5.153   2.792 -1.9545  0.0209  1.0717
 1731TIP3    H226685   1.084   5.144   2.940 -0.2699 -0.4249  0.6969
 1732TIP3   OH226686   0.381   1.423   3.311  0.6150 -0.3335 -0.3275
 1732TIP3    H126687   0.393   1.468   3.394  1.1425  1.6202 -1.4062
 1732TIP3    H226688   0.461   1.373   3.299  0.1370 -1.4165  0.7559
 1733TIP3   OH226689   6.127   0.733  16.213 -0.2191 -0.1153  0.7042
 1733TIP3    H126690   6.158   0.643  16.222  1.3612  0.2199 -0.7474
 1733TIP3    H226691   6.136   0.751  16.119 -1.4260  1.2461  0.8239
 1734TIP3   OH226692   6.505   5.303  12.621 -0.1145  0.3714  0.0312
 1734TIP3    H126693   6.447   5.229  12.638 -1.5794  1.7857  1.6585
 1734TIP3    H226694   6.446   5.374  12.595  1.0911  1.3668 -0.0977
 1735TIP3   OH226695   1.856   5.162   4.467 -0.2761 -0.1063  0.3328
 1735TIP3    H126696   1.839   5.250   4.431  0.7236 -0.0695 -0.0655
 1735TIP3    H226697   1.878   5.178   4.559 -1.4725 -0.0798  0.6356
 1736TIP3   OH226698   1.403   3.186  15.794  0.1797 -0.1799 -0.8342
 1736TIP3    H126699   1.426   3.132  15.719 -0.0734  0.2576 -1.2299
 1736TIP3    H226700   1.344   3.131  15.846  2.1875 -1.3969  0.2852
 1737TIP3   OH226701   5.518   6.230   0.203  0.0587  0.1130 -0.2336
 1737TIP3    H126702   5.520   6.135   0.190  1.1013 -0.2947  2.2057
 1737TIP3    H226703   5.610   6.256   0.202 -0.2521  1.2176 -1.4612
 1738TIP3   OH226704   3.130   6.331  13.429 -0.2776 -0.4739  0.0537
 1738TIP3    H126705   3.077   6.300  13.355 -0.9059  2.5065 -0.8747
 1738TIP3    H226706   3.208   6.370  13.388  0.2926 -0.4748  1.0979
 1739TIP3   OH226707   2.235   3.885   1.871  0.5197 -0.0117 -0.2723
 1739TIP3    H126708   2.290   3.826   1.922  0.4727 -0.4176 -0.6901
 1739TIP3    H226709   2.148   3.844   1.873 -0.0084  1.0645  1.1283
 1740TIP3   OH226710   0.017   0.781   1.069 -0.3665  0.0591  0.4902
 1740TIP3    H126711   0.013   0.758   1.162 -0.0250  0.2622  0.5563
 1740TIP3    H226712  -0.057   0.734   1.030 -0.4697 -0.0851  0.8506
 1741TIP3   OH226713   6.493   5.592  13.986 -0.0309 -0.0015 -0.4099
 1741TIP3    H126714   6.449   5.554  14.062  0.9755  0.2174  0.2995
 1741TIP3    H226715   6.502   5.685  14.007 -0.2189  0.1649 -1.0406
 1742TIP3   OH226716   3.147   3.606  16.345 -0.5164  0.1599 -0.4139
 1742TIP3    H126717   3.116   3.650  16.266  0.9879  1.8656 -0.1127
 1742TIP3    H226718   3.074   3.613  16.406 -0.4383  2.0081 -0.4802
 1743TIP3   OH226719   4.504   5.770   3.416 -0.2883 -0.0972 -0.1920
 1743TIP3    H126720   4.446   5.781   3.340 -0.0381  1.3998 -0.1955
 1743TIP3    H226721   4.477   5.686   3.454 -1.9221  0.1731 -0.6548
 1744TIP3   OH226722   1.742   2.192   6.476  0.0224 -0.6425 -0.0232
 1744TIP3    H126723   1.651   2.165   6.490  0.2993 -0.5289  2.3245
 1744TIP3    H226724   1.788   2.165   6.555  1.4736  1.6391  0.0021
 1745TIP3   OH226725   1.871   1.515   5.656 -0.0672 -0.1307 -0.4225
 1745TIP3    H126726   1.874   1.450   5.586  0.1041  1.2166 -1.7131
 1745TIP3    H226727   1.825   1.589   5.618  1.1992  1.1527  0.4347
 1746TIP3   OH226728   6.022   5.573   4.648 -0.2438 -0.2641  0.0210
 1746TIP3    H126729   6.046   5.553   4.557 -1.3883 -0.8553 -0.1794
 1746TIP3    H226730   6.103   5.604   4.688  0.2836  0.0258 -1.2033
 1747TIP3   OH226731   1.757   3.473   1.581  0.4614 -0.2088 -0.1268
 1747TIP3    H126732   1.673   3.466   1.536 -0.5446  0.7566  1.4944
 1747TIP3    H226733   1.748   3.413   1.656  0.3399  1.4734  1.2649
 1748TIP3   OH226734   5.251   0.443   3.959 -0.0158 -0.1820  0.3064
 1748TIP3    H126735   5.257   0.495   3.878 -0.5732  3.2360  2.2683
 1748TIP3    H226736   5.339   0.408   3.971 -0.0163 -1.1496 -1.9190
 1749TIP3   OH226737   4.644   3.096   1.030  0.4583 -0.0135  0.2172
 1749TIP3    H126738   4.715   3.148   1.069  0.4006 -1.2211  2.0773
 1749TIP3    H226739   4.688   3.041   0.965  1.2389 -0.6734  1.2740
 1750TIP3   OH226740   0.270   0.045   2.050 -0.2530 -0.1680  0.2976
 1750TIP3    H126741   0.293   0.127   2.094 -0.8800  1.5190 -2.2854
 1750TIP3    H226742   0.319   0.047   1.968 -2.1633 -1.1186 -0.9563
 1751TIP3   OH226743   0.894   4.080   2.936  0.2499 -0.3081  0.7322
 1751TIP3    H126744   0.852   3.997   2.958 -0.7136 -0.3668 -1.0649
 1751TIP3    H226745   0.836   4.147   2.972 -1.3940 -0.3949 -1.5224
 1752TIP3   OH226746   6.723   2.251   4.089 -0.0197  0.0554  0.6975
 1752TIP3    H126747   6.734   2.343   4.065  2.4859  0.0915  1.6229
 1752TIP3    H226748   6.768   2.203   4.019  0.7257 -0.2766  1.3751
 1753TIP3   OH226749   6.300   4.407  11.133 -0.1689 -0.0936  0.7575
 1753TIP3    H126750   6.370   4.463  11.100  0.5192  0.4563  2.9893
 1753TIP3    H226751   6.331   4.318  11.116 -0.4096  0.1334 -1.0972
 1754TIP3   OH226752   0.516   4.285   4.197 -0.4805 -0.8166  0.4352
 1754TIP3    H126753   0.480   4.292   4.108  0.4199  0.5696  0.1510
 1754TIP3    H226754   0.568   4.204   4.195 -0.7421 -0.9731 -0.2032
 1755TIP3   OH226755   3.539   1.492  11.928  0.2234  0.1198 -0.3868
 1755TIP3    H126756   3.455   1.446  11.921  0.0469  0.2617  0.7090
 1755TIP3    H226757   3.585   1.469  11.847  0.1512 -2.0105  0.1075
 1756TIP3   OH226758   3.352   0.101   4.205  0.0381 -0.0461 -0.4774
 1756TIP3    H126759   3.392   0.056   4.130  1.1628 -0.4582  0.3483
 1756TIP3    H226760   3.425   0.145   4.248 -0.5343 -0.1239  0.5957
 1757TIP3   OH226761   5.750   5.309   3.086  0.1365  0.0085 -0.0952
 1757TIP3    H126762   5.741   5.259   3.005 -2.0838  1.0220 -0.5369
 1757TIP3    H226763   5.802   5.385   3.061 -0.1780  0.1052 -0.4683
 1758TIP3   OH226764   3.602   1.183  16.293  0.5182 -0.1688 -0.2872
 1758TIP3    H126765   3.626   1.231  16.213 -0.7268 -0.9477 -1.1708
 1758TIP3    H226766   3.507   1.195  16.300  0.5089 -0.7115  0.6804
 1759TIP3   OH226767   1.503   4.632   0.827 -0.4452  0.1982 -0.0510
 1759TIP3    H126768   1.570   4.693   0.858 -0.6512  0.2466  0.3036
 1759TIP3    H226769   1.506   4.559   0.889  0.1475 -0.4007 -0.7634
 1760TIP3   OH226770   6.696   6.625   6.032  0.0378 -0.4280 -0.0235
 1760TIP3    H126771   6.668   6.533   6.021 -0.4465 -0.4400  1.1632
 1760TIP3    H226772   6.713   6.634   6.126 -0.0774  0.7459 -0.1003
 1761TIP3   OH226773   2.337   5.976   3.332 -0.4302 -0.4478 -0.0431
 1761TIP3    H126774   2.248   6.001   3.308  0.2496  1.2195 -1.0005
 1761TIP3    H226775   2.354   5.896   3.284 -0.2148  1.1337 -2.8043
 1762TIP3   OH226776   3.509   4.198  13.696  0.1419  0.0999 -0.1019
 1762TIP3    H126777   3.593   4.211  13.741  0.0061  0.4019  0.0642
 1762TIP3    H226778   3.456   4.149  13.758 -1.1285  3.0817  1.3731
 1763TIP3   OH226779   1.688   0.030   2.589 -0.1583 -0.8006 -0.4192
 1763TIP3    H126780   1.742  -0.033   2.541  0.7750 -0.6929  0.4541
 1763TIP3    H226781   1.620  -0.024   2.631 -0.2128 -1.0464 -0.8174
 1764TIP3   OH226782   3.315   6.631  14.408 -0.1004  0.4251  0.1552
 1764TIP3    H126783   3.408   6.650  14.422 -0.3476  0.8015  1.4058
 1764TIP3    H226784   3.315   6.564  14.339  0.9755  2.2877 -1.8014
 1765TIP3   OH226785   3.953   3.728   0.222 -0.2423  0.1028  0.7834
 1765TIP3    H126786   4.009   3.676   0.164  0.8189 -0.0898  1.9324
 1765TIP3    H226787   3.955   3.816   0.184 -0.2173 -0.1908  0.0846
 1766TIP3   OH226788   0.010   2.127   3.855  0.3984 -0.4231  0.5247
 1766TIP3    H126789   0.022   2.041   3.894  2.2817 -0.3969  0.1218
 1766TIP3    H226790   0.059   2.123   3.772 -0.1821  0.7664  0.0998
 1767TIP3   OH226791   0.881   0.888  13.054  0.1442 -0.0171 -0.4624
 1767TIP3    H126792   0.957   0.943  13.035 -0.7913  1.0800 -1.1916
 1767TIP3    H226793   0.806   0.941  13.027 -0.8514 -1.3200 -0.3570
 1768TIP3   OH226794   0.379   6.646  15.967 -0.2394 -0.6428  0.2402
 1768TIP3    H126795   0.311   6.585  15.937  2.1363 -2.7814 -1.1372
 1768TIP3    H226796   0.413   6.606  16.047  1.3904 -1.2604 -0.7197
 1769TIP3   OH226797   0.487   4.072   0.076 -0.1389 -0.0160  0.1278
 1769TIP3    H126798   0.562   4.123   0.045  0.0555 -0.9494 -1.0078
 1769TIP3    H226799   0.526   3.990   0.107 -0.7014 -0.6217 -0.7324
 1770TIP3   OH226800   0.200   4.026  17.264  0.1414 -0.0440  0.3193
 1770TIP3    H126801   0.190   3.941  17.307 -0.2035  0.5907  1.5485
 1770TIP3    H226802   0.284   4.059  17.297  1.0684 -0.5751 -1.3935
 1771TIP3   OH226803   2.252   4.646  16.301  0.2898  0.0788 -0.5065
 1771TIP3    H126804   2.200   4.727  16.301  0.3733  0.1856  1.1773
 1771TIP3    H226805   2.257   4.622  16.394  3.0605 -0.0368 -0.5844
 1772TIP3   OH226806   5.142   4.610  16.592 -0.5508  0.8936  0.2755
 1772TIP3    H126807   5.122   4.552  16.518  2.4566 -1.3303  0.9961
 1772TIP3    H226808   5.207   4.671  16.557 -2.3421  2.7426  0.0245
 1773TIP3   OH226809   4.820   4.220  11.841 -0.0602 -0.4748 -0.0277
 1773TIP3    H126810   4.781   4.157  11.782 -1.1302  2.3170 -2.5735
 1773TIP3    H226811   4.904   4.242  11.800 -0.3990  0.8306 -0.0680
 1774TIP3   OH226812   3.754   4.066  14.553  0.6448 -0.2786 -0.1414
 1774TIP3    H126813   3.810   4.023  14.488  1.7577  1.3889 -0.3474
 1774TIP3    H226814   3.665   4.056  14.518  0.7115 -3.0364  0.2197
 1775TIP3   OH226815   4.010   3.774  14.614  0.3161 -0.3041 -0.2934
 1775TIP3    H126816   3.945   3.803  14.550  0.4116 -0.8279 -0.6318
 1775TIP3    H226817   3.959   3.761  14.694  0.7506  4.0721  0.9455
 1776TIP3   OH226818   4.446   2.133  14.471 -0.0997 -0.5798  0.6279
 1776TIP3    H126819   4.433   2.039  14.471  0.3874 -0.6673 -0.7044
 1776TIP3    H226820   4.537   2.146  14.499 -0.1532 -0.5141  0.7709
 1777TIP3   OH226821   1.682   2.420  12.183 -0.2171 -0.5534  0.3030
 1777TIP3    H126822   1.611   2.401  12.122  0.1536  1.3943 -0.8285
 1777TIP3    H226823   1.761   2.415  12.129  0.2698 -0.2842  0.9814
 1778TIP3   OH226824   3.361   2.612   2.077 -0.2184 -0.1831  0.3443
 1778TIP3    H126825   3.432   2.668   2.107  0.8192 -0.5489 -1.2620
 1778TIP3    H226826   3.316   2.665   2.011 -0.7285 -0.3672  0.5440
 1779TIP3   OH226827   5.541   2.007   0.372 -0.1530 -0.0095  0.2860
 1779TIP3    H126828   5.593   2.072   0.419 -1.0669  0.8352  0.1401
 1779TIP3    H226829   5.536   1.932   0.432  0.4025  0.2745  0.6938
 1780TIP3   OH226830   2.697   5.995   5.652 -0.1550 -0.4775  0.6881
 1780TIP3    H126831   2.636   5.923   5.637 -1.6634  0.8367  0.2812
 1780TIP3    H226832   2.643   6.074   5.651  1.4246  0.6765  1.2349
 1781TIP3   OH226833   0.686   0.084  13.543 -0.4206  0.4288 -0.1319
 1781TIP3    H126834   0.714   0.137  13.468 -1.6601  0.9422 -0.2498
 1781TIP3    H226835   0.604   0.124  13.572  0.0305  0.2447  1.5163
 1782TIP3   OH226836   0.726   3.222  13.357  0.2527  0.5239 -0.3703
 1782TIP3    H126837   0.806   3.263  13.390  0.5717 -0.3477 -0.0470
 1782TIP3    H226838   0.717   3.142  13.407 -1.1473  0.8858  0.0105
 1783TIP3   OH226839   0.457   4.252  16.510  0.2983 -0.2748  0.5735
 1783TIP3    H126840   0.362   4.263  16.515  0.3429  0.3496  0.1019
 1783TIP3    H226841   0.469   4.191  16.436  0.2591 -0.4937  0.7461
 1784TIP3   OH226842   6.382   6.144  16.451 -0.1843 -0.0184  0.4293
 1784TIP3    H126843   6.325   6.142  16.374  0.8875  0.9194 -0.4306
 1784TIP3    H226844   6.322   6.132  16.525 -1.5244  1.1060 -0.4150
 1785TIP3   OH226845   0.633   4.205   6.753  0.6148  0.0963 -0.1264
 1785TIP3    H126846   0.637   4.112   6.775  0.7686  0.0378 -0.3996
 1785TIP3    H226847   0.575   4.243   6.819 -0.1624 -0.3489 -0.5368
 1786TIP3   OH226848   3.273   4.351  16.464  0.1406 -0.2586  0.5277
 1786TIP3    H126849   3.275   4.433  16.514 -0.8493 -0.1804  0.4616
 1786TIP3    H226850   3.318   4.373  16.382 -0.4348  0.3281  0.3614
 1787TIP3   OH226851   1.722   3.191  11.480 -0.1264  0.5544 -0.0167
 1787TIP3    H126852   1.756   3.102  11.487  0.0120  0.6851  1.4904
 1787TIP3    H226853   1.628   3.182  11.493 -0.1096  0.6117  0.1609
 1788TIP3   OH226854   3.277   5.571  11.803 -0.4924  0.1213 -0.1339
 1788TIP3    H126855   3.230   5.509  11.748 -0.6949  0.2384 -0.0951
 1788TIP3    H226856   3.212   5.637  11.827 -0.2030  0.5315 -0.4446
 1789TIP3   OH226857   2.426   0.345  15.015 -0.0304  0.1751 -0.3696
 1789TIP3    H126858   2.419   0.441  15.017 -0.1851  0.2818 -3.1669
 1789TIP3    H226859   2.403   0.321  14.926  2.3373 -2.3021 -0.4203
 1790TIP3   OH226860   0.071   0.534   5.422 -0.4821  0.0086  0.2425
 1790TIP3    H126861   0.090   0.627   5.420  0.5685 -0.2019 -0.2060
 1790TIP3    H226862   0.144   0.493   5.376 -0.9716 -1.0313  0.3477
 1791TIP3   OH226863   6.567   0.333  10.611 -0.6589  0.2086 -0.2603
 1791TIP3    H126864   6.549   0.425  10.629  0.4566  0.2688  0.6853
 1791TIP3    H226865   6.623   0.335  10.533  0.7545  0.4770  0.7177
 1792TIP3   OH226866   0.070   2.706  13.601  0.0156 -0.1427  0.1143
 1792TIP3    H126867   0.029   2.749  13.526  1.2560  0.0412 -0.4862
 1792TIP3    H226868   0.042   2.757  13.677 -1.1276 -0.2402 -0.2318
 1793TIP3   OH226869   1.022   5.398  13.375  0.3259  0.0643  0.3820
 1793TIP3    H126870   1.081   5.397  13.300 -0.0886  1.5816  0.0150
 1793TIP3    H226871   0.936   5.420  13.339  0.0561  0.4920  1.2476
 1794TIP3   OH226872   1.726   3.249  15.554  0.1375  0.8687  0.4805
 1794TIP3    H126873   1.650   3.193  15.538  0.1121  1.0439 -0.0390
 1794TIP3    H226874   1.726   3.310  15.480  1.6521 -0.0997 -0.3753
 1795TIP3   OH226875   5.635   1.390   5.099 -0.0327 -0.2746 -0.4800
 1795TIP3    H126876   5.677   1.469   5.134  1.5910 -1.1153 -0.4169
 1795TIP3    H226877   5.701   1.352   5.041 -0.5429 -1.8990 -0.0538
 1796TIP3   OH226878   1.361   1.042  15.772  0.6559 -0.4177 -0.3247
 1796TIP3    H126879   1.339   0.965  15.824 -0.0997 -0.5309 -0.7941
 1796TIP3    H226880   1.352   1.013  15.681  1.2806 -0.0323 -0.5103
 1797TIP3   OH226881   1.000   4.041  14.426  0.0238  0.6842 -0.1434
 1797TIP3    H126882   1.040   4.119  14.388  0.8287 -0.0569 -0.8593
 1797TIP3    H226883   1.021   3.970  14.364 -0.6217 -0.1118  0.5231
 1798TIP3   OH226884   4.558   0.797   0.639  0.7436 -0.2595  0.0368
 1798TIP3    H126885   4.546   0.796   0.734  0.0283 -1.6486 -0.0468
 1798TIP3    H226886   4.651   0.815   0.627  0.5867  1.3932  0.9444
 1799TIP3   OH226887   0.716   3.156   2.213 -0.1532 -0.5902  0.4901
 1799TIP3    H126888   0.785   3.141   2.147 -1.2028  1.3646 -1.1503
 1799TIP3    H226889   0.735   3.243   2.249 -1.6922 -0.0359  0.0458
 1800TIP3   OH226890   3.426   3.751   5.262 -0.1384 -0.8493  0.2922
 1800TIP3    H126891   3.380   3.734   5.180  0.6102 -1.7594  0.0433
 1800TIP3    H226892   3.358   3.742   5.330 -1.3355  2.2647 -0.3063
 1801TIP3   OH226893   5.571   6.678  13.061 -0.4376  0.3472 -0.4835
 1801TIP3    H126894   5.662   6.692  13.087 -0.4821  1.1464 -0.7444
 1801TIP3    H226895   5.578   6.628  12.979 -0.1728  1.7707 -1.3654
 1802TIP3   OH226896   0.783   3.499   0.750  0.2697  0.7235 -1.0155
 1802TIP3    H126897   0.716   3.473   0.813  0.3866 -0.4072 -1.3385
 1802TIP3    H226898   0.767   3.444   0.674  1.1793  0.8873 -1.3399
 1803TIP3   OH226899   1.486   5.861   6.689 -0.1966 -0.5840  0.6566
 1803TIP3    H126900   1.453   5.772   6.688 -2.0640  0.0570 -0.1427
 1803TIP3    H226901   1.570   5.856   6.733  0.1015 -2.8463 -0.0879
 1804TIP3   OH226902   1.575   6.597  14.960  0.7232 -0.3190 -0.6350
 1804TIP3    H126903   1.492   6.617  14.917 -0.1480  0.9162  1.4428
 1804TIP3    H226904   1.570   6.503  14.980 -0.6530 -0.0619  0.3586
 1805TIP3   OH226905   6.520   6.614  12.309  0.0538  0.0773 -1.0136
 1805TIP3    H126906   6.460   6.540  12.312  0.5673 -0.3231  0.0965
 1805TIP3    H226907   6.607   6.576  12.318  0.2493  0.8478  1.2949
 1806TIP3   OH226908   3.930   1.304   2.130 -0.6570 -0.3262  0.3707
 1806TIP3    H126909   3.844   1.336   2.158 -0.5228  1.2723 -0.9025
 1806TIP3    H226910   3.966   1.375   2.079  1.1374 -1.2724  0.2535
 1807TIP3   OH226911   3.569   3.754   2.909  0.2849 -0.0751  0.5447
 1807TIP3    H126912   3.579   3.831   2.852 -0.1205 -0.4882 -0.0936
 1807TIP3    H226913   3.505   3.781   2.974  1.3234  0.6699  1.2956
 1808TIP3   OH226914   3.737   2.518   0.014 -0.3536 -0.2762 -0.0354
 1808TIP3    H126915   3.743   2.533  -0.081  1.6876  1.1819  0.2495
 1808TIP3    H226916   3.826   2.494   0.040 -0.9526 -0.9738  1.5006
 1809TIP3   OH226917   6.102   4.364   2.686 -0.4123 -0.1673 -0.0308
 1809TIP3    H126918   6.059   4.299   2.741 -1.1592  1.2583  1.1357
 1809TIP3    H226919   6.035   4.432   2.672  0.2273  0.1972 -1.5040
 1810TIP3   OH226920   2.883   5.690  16.770 -0.2180 -0.0863 -0.4675
 1810TIP3    H126921   2.955   5.663  16.826 -1.0185  0.1343  0.6936
 1810TIP3    H226922   2.904   5.653  16.684  1.0020 -0.4611 -0.0171
 1811TIP3   OH226923   6.520   2.178  13.252  0.0426 -0.3131 -0.3255
 1811TIP3    H126924   6.544   2.214  13.337  0.1118  1.0617 -0.8954
 1811TIP3    H226925   6.602   2.178  13.202 -0.2661  0.2820 -0.8542
 1812TIP3   OH226926   0.807   4.094   1.343 -0.0296  0.4508  0.5595
 1812TIP3    H126927   0.768   4.046   1.416 -2.2267  1.4492  0.1503
 1812TIP3    H226928   0.787   4.041   1.266 -0.0089  0.6638  0.4079
 1813TIP3   OH226929   3.062   3.210  14.641  1.0012  0.7160  0.5879
 1813TIP3    H126930   3.116   3.242  14.569 -1.0341  0.6014 -1.1013
 1813TIP3    H226931   2.978   3.254  14.628 -0.5213 -1.9398  0.7799
 1814TIP3   OH226932   2.922   5.251  15.912 -0.9375 -0.0977  0.4410
 1814TIP3    H126933   2.963   5.165  15.924  1.0905  0.7630  0.0437
 1814TIP3    H226934   2.907   5.258  15.818  0.3811  0.5829  0.2578
 1815TIP3   OH226935   2.644   5.180  15.572 -0.1833  0.2681  0.4436
 1815TIP3    H126936   2.724   5.195  15.623 -0.9770 -1.1341  2.2415
 1815TIP3    H226937   2.656   5.094  15.533 -0.0656  0.8519 -0.8436
 1816TIP3   OH226938   5.751   4.349   0.327 -0.7294  0.8226  0.2951
 1816TIP3    H126939   5.730   4.436   0.360 -1.9951  0.5826  0.1781
 1816TIP3    H226940   5.684   4.292   0.366  0.1551 -0.1285  0.4780
 1817TIP3   OH226941   3.221   3.214   5.383  0.3717 -0.2861 -0.7754
 1817TIP3    H126942   3.187   3.278   5.445 -2.4175  0.1742 -2.5790
 1817TIP3    H226943   3.201   3.129   5.422  0.7138 -0.0270 -0.0329
 1818TIP3   OH226944   4.656   6.669  15.837 -0.2336 -0.1709 -0.0937
 1818TIP3    H126945   4.689   6.755  15.809 -1.2839  1.2081  2.5756
 1818TIP3    H226946   4.562   6.681  15.845 -0.1769 -0.8713  2.3944
 1819TIP3   OH226947   4.278   2.017  16.830  0.1915 -0.5149 -0.6694
 1819TIP3    H126948   4.301   2.012  16.923 -2.2411 -1.3687 -0.0273
 1819TIP3    H226949   4.308   2.104  16.803  0.2407  0.0895  1.1520
 1820TIP3   OH226950   3.402   3.850   3.852 -0.5267  0.4531 -0.4026
 1820TIP3    H126951   3.368   3.878   3.938  0.4939 -0.9017  0.4708
 1820TIP3    H226952   3.324   3.824   3.803 -1.0575  0.5843  0.3501
 1821TIP3   OH226953   6.742   0.420   5.607 -0.6214 -0.2136 -0.5119
 1821TIP3    H126954   6.804   0.467   5.551  0.2570 -0.8422 -0.0871
 1821TIP3    H226955   6.736   0.333   5.568  0.1771 -0.7338  0.4727
 1822TIP3   OH226956   1.823   4.522   4.521 -0.5172 -0.8005  0.0306
 1822TIP3    H126957   1.865   4.480   4.446  0.1034 -0.5552  0.2284
 1822TIP3    H226958   1.759   4.581   4.483  0.3899 -0.0402 -0.3593
 1823TIP3   OH226959   5.712   3.389   5.449 -0.0465 -0.3762 -0.0567
 1823TIP3    H126960   5.689   3.480   5.432 -0.9675 -0.3166  1.3958
 1823TIP3    H226961   5.652   3.361   5.518  0.9189 -1.7740  0.2593
 1824TIP3   OH226962   5.392   4.893  15.515  0.1133 -0.1901  0.5474
 1824TIP3    H126963   5.467   4.905  15.457 -0.2926  0.5805  0.1558
 1824TIP3    H226964   5.318   4.930  15.466 -0.5212 -0.9485  0.9155
 1825TIP3   OH226965   4.436   6.558   5.065  0.3380  0.0088 -0.3677
 1825TIP3    H126966   4.521   6.601   5.071  0.7101 -0.8060  0.6660
 1825TIP3    H226967   4.407   6.551   5.156 -0.7443  0.1017 -0.6956
 1826TIP3   OH226968   4.775   6.461  17.137  0.3070 -0.0673  0.1185
 1826TIP3    H126969   4.758   6.462  17.043  1.5365  0.4883 -0.1195
 1826TIP3    H226970   4.732   6.540  17.170 -1.5199 -1.0947  0.3227
 1827TIP3   OH226971   4.484   4.753   3.835  0.0269  1.0346 -0.8374
 1827TIP3    H126972   4.529   4.835   3.856  0.6935  1.0091 -2.0587
 1827TIP3    H226973   4.505   4.737   3.743 -2.1723  0.8137 -1.3633
 1828TIP3   OH226974   6.486   6.696   1.314 -0.1767 -0.0681 -0.4728
 1828TIP3    H126975   6.560   6.674   1.371 -0.9922 -0.2267  0.5450
 1828TIP3    H226976   6.422   6.628   1.330 -0.2826 -0.3335 -1.8895
 1829TIP3   OH226977   3.832   1.434  13.079 -0.2883  0.1759 -0.3097
 1829TIP3    H126978   3.819   1.495  13.151 -1.8297 -0.8381  0.3211
 1829TIP3    H226979   3.758   1.449  13.020 -1.2768 -1.7437  0.3728
 1830TIP3   OH226980   3.305   1.255  13.558  0.0683 -0.7008 -0.7495
 1830TIP3    H126981   3.400   1.259  13.554  0.2817  1.4090  2.6044
 1830TIP3    H226982   3.276   1.318  13.491  1.0877 -0.3909 -0.9249
 1831TIP3   OH226983   2.543   3.440   3.471 -0.2081  0.4131  0.3479
 1831TIP3    H126984   2.619   3.480   3.513  0.2663 -2.0414  2.0809
 1831TIP3    H226985   2.577   3.360   3.431 -1.5093  0.4027 -0.8233
 1832TIP3   OH226986   0.575   2.128   4.991  0.4958 -0.0069 -0.4833
 1832TIP3    H126987   0.614   2.051   4.950 -3.0415 -2.1191 -0.3072
 1832TIP3    H226988   0.558   2.187   4.918 -0.1961 -1.0903 -1.2407
 1833TIP3   OH226989   4.636   0.067   2.199  0.4948 -0.0126 -0.1663
 1833TIP3    H126990   4.638   0.008   2.274 -0.6446 -0.5752 -0.5554
 1833TIP3    H226991   4.648   0.154   2.237  1.4056 -0.4154  0.4970
 1834TIP3   OH226992   0.080   6.475   1.590  0.1323 -0.4591  0.2705
 1834TIP3    H126993   0.122   6.412   1.531 -0.4912 -0.1746 -0.4977
 1834TIP3    H226994   0.093   6.439   1.677 -1.3049 -2.3126 -0.2274
 1835TIP3   OH226995   1.420   6.308   0.982 -0.4426  0.3340  0.4940
 1835TIP3    H126996   1.421   6.401   0.958 -0.6431  0.2718  0.2376
 1835TIP3    H226997   1.463   6.264   0.908  1.2898  0.3989  1.4134
 1836TIP3   OH226998   6.299   4.416   1.699  0.0249 -0.4577  0.0540
 1836TIP3    H126999   6.284   4.325   1.676 -0.8316 -0.2645 -0.2127
 1836TIP3    H227000   6.217   4.444   1.740  1.1994 -0.5574  2.6985
 1837TIP3   OH227001   3.554   3.366   4.529  0.2773  0.6076  0.2450
 1837TIP3    H127002   3.526   3.308   4.600 -0.8060  0.0726 -0.6029
 1837TIP3    H227003   3.475   3.382   4.478  1.3424 -0.4638 -1.8814
 1838TIP3   OH227004   3.052   3.465  15.623 -0.2831 -0.2455 -0.0623
 1838TIP3    H127005   3.015   3.523  15.555  0.0656 -0.3216 -0.3219
 1838TIP3    H227006   3.141   3.449  15.593  0.2568  0.6596  1.0105
 1839TIP3   OH227007   2.010   3.982  16.282  0.0543  0.2412 -0.3961
 1839TIP3    H127008   1.995   4.041  16.208  2.9075  0.2795 -1.0445
 1839TIP3    H227009   2.104   3.987  16.299 -0.1630 -1.4840  1.8049
 1840TIP3   OH227010   4.992   6.379  14.741  0.2500  0.5259 -0.1059
 1840TIP3    H127011   5.033   6.319  14.803  2.2303  1.9477  0.0275
 1840TIP3    H227012   4.911   6.406  14.784 -0.1465 -1.1774  0.2941
 1841TIP3   OH227013   2.448   2.938   1.211  0.0085 -0.2647 -0.1817
 1841TIP3    H127014   2.531   2.951   1.167  0.5994 -1.4521  0.5237
 1841TIP3    H227015   2.397   3.017   1.192  1.5632  0.8081 -0.0188
 1842TIP3   OH227016   0.772   6.493   1.557 -0.4738 -0.2613 -0.3419
 1842TIP3    H127017   0.775   6.446   1.474  1.1719 -0.7480 -0.0516
 1842TIP3    H227018   0.854   6.470   1.600 -0.5648  1.2549  0.7176
 1843TIP3   OH227019   2.016   3.119  15.946  0.3043 -0.2740 -0.2379
 1843TIP3    H127020   1.934   3.167  15.939  0.9414  0.9141  0.1821
 1843TIP3    H227021   2.070   3.154  15.876  0.9280 -0.0574  0.3420
 1844TIP3   OH227022   4.248   2.018   1.020 -0.7891  0.1890  0.1669
 1844TIP3    H127023   4.213   2.083   0.960  0.0567  1.2150  0.7514
 1844TIP3    H227024   4.180   2.007   1.087 -0.7351  0.8496  0.3337
 1845TIP3   OH227025   2.779   0.344  14.678 -0.1332 -0.5682 -0.1457
 1845TIP3    H127026   2.699   0.380  14.641 -0.0491  0.2720  0.4524
 1845TIP3    H227027   2.824   0.303  14.604 -0.7480 -0.3772 -0.6333
 1846TIP3   OH227028   2.254   0.710   1.322  0.8274 -0.0739 -1.0630
 1846TIP3    H127029   2.214   0.754   1.247 -1.2545 -1.0776 -0.6256
 1846TIP3    H227030   2.231   0.764   1.397  1.5428  0.0821 -0.9449
 1847TIP3   OH227031   5.909   4.218   1.648  0.2223 -0.3214  0.0462
 1847TIP3    H127032   5.814   4.215   1.657  0.2326 -0.7849  0.0634
 1847TIP3    H227033   5.924   4.216   1.553  0.1994  0.4909  0.0259
 1848TIP3   OH227034   6.161   4.097  14.846 -0.4488  0.4631 -0.1734
 1848TIP3    H127035   6.141   4.094  14.940 -0.7984 -0.0560 -0.2629
 1848TIP3    H227036   6.125   4.181  14.817 -1.0078  0.2937  0.0110
 1849TIP3   OH227037   6.260   2.658   0.408  0.3294 -0.1133  0.3168
 1849TIP3    H127038   6.207   2.714   0.465  0.3156  0.1573  0.0399
 1849TIP3    H227039   6.326   2.717   0.372 -0.7716  0.1330 -1.3765
 1850TIP3   OH227040   6.489   6.521   5.288  0.3252  0.9203  0.5885
 1850TIP3    H127041   6.402   6.519   5.328  0.7824 -2.4952  1.7871
 1850TIP3    H227042   6.539   6.580   5.343 -1.0521  2.6222  0.1227
 1851TIP3   OH227043   3.699   5.737  12.306  0.6113  0.2621  0.3699
 1851TIP3    H127044   3.617   5.775  12.275  0.7758  0.5498  0.2831
 1851TIP3    H227045   3.704   5.762  12.398  0.1103 -0.6146  0.6547
 1852TIP3   OH227046   5.756   6.790   5.818  0.0858  0.6576 -0.2648
 1852TIP3    H127047   5.776   6.829   5.733  0.0495 -0.0065 -0.5773
 1852TIP3    H227048   5.700   6.855   5.861  0.6954  1.3204 -0.4540
 1853TIP3   OH227049   1.062   6.541  14.242 -0.2778 -0.1838  0.3052
 1853TIP3    H127050   1.107   6.620  14.210  0.0563 -0.0661  1.0353
 1853TIP3    H227051   1.124   6.470  14.223  0.0415 -0.0782  0.9200
 1854TIP3   OH227052   3.784   2.973   0.186 -0.5290 -0.4212 -0.4588
 1854TIP3    H127053   3.730   2.923   0.248 -0.2814 -0.8021 -0.5459
 1854TIP3    H227054   3.769   3.064   0.210 -2.1679 -0.4473 -1.2685
 1855TIP3   OH227055   3.460   5.498   6.325  0.1151  0.0226 -0.0149
 1855TIP3    H127056   3.381   5.459   6.286  0.5961 -1.4442  0.4446
 1855TIP3    H227057   3.428   5.578   6.367 -1.0050 -0.1870 -0.4225
 1856TIP3   OH227058   5.882   0.721  11.461  0.5633  0.1148 -0.0394
 1856TIP3    H127059   5.957   0.750  11.512  1.5748 -2.7338  0.2683
 1856TIP3    H227060   5.915   0.713  11.372  0.5866 -0.8996  0.0496
 1857TIP3   OH227061   0.679   4.458   1.541  0.4167  0.1916  0.1668
 1857TIP3    H127062   0.713   4.546   1.559  1.6191 -0.2489  0.1606
 1857TIP3    H227063   0.757   4.402   1.541 -0.2339 -0.7449 -0.6531
 1858TIP3   OH227064   4.051   6.433  12.327 -0.3888 -0.3288  0.4202
 1858TIP3    H127065   4.108   6.377  12.274 -0.0195  1.6337 -1.3685
 1858TIP3    H227066   3.962   6.409  12.301 -0.2259  0.0879 -0.5630
 1859TIP3   OH227067   5.221   1.563   3.810  0.7179 -0.0661 -0.0446
 1859TIP3    H127068   5.292   1.499   3.811  2.1244  1.4001 -0.8463
 1859TIP3    H227069   5.202   1.576   3.717 -0.4348 -0.2472  0.1526
 1860TIP3   OH227070   3.902   3.810   5.795  0.7424  0.3043  0.2715
 1860TIP3    H127071   3.867   3.858   5.870  0.5624 -0.5676  0.7513
 1860TIP3    H227072   3.857   3.725   5.798  0.6891  0.2781 -0.8524
 1861TIP3   OH227073   3.869   6.055   4.627 -0.3408 -0.5252  0.1933
 1861TIP3    H127074   3.894   6.081   4.715 -0.8394 -1.4936  0.6392
 1861TIP3    H227075   3.926   5.982   4.605  0.2001  0.1003 -0.5442
 1862TIP3   OH227076   6.019   3.374   2.236 -0.2781 -0.0096 -0.0990
 1862TIP3    H127077   6.104   3.331   2.244  0.5545  1.7021  0.7370
 1862TIP3    H227078   6.033   3.462   2.272 -2.2163  0.5599 -0.6253
 1863TIP3   OH227079   0.787   3.450  11.735 -0.1914  0.1306 -0.3672
 1863TIP3    H127080   0.851   3.508  11.776  1.4195 -1.6316 -0.2099
 1863TIP3    H227081   0.788   3.473  11.642 -0.1273  0.8175 -0.1993
 1864TIP3   OH227082   2.063   0.528  14.840 -0.3224  0.4718  0.2093
 1864TIP3    H127083   2.002   0.566  14.776 -0.4443  0.4920  0.3358
 1864TIP3    H227084   2.146   0.574  14.825 -0.0876 -0.1903 -0.5751
 1865TIP3   OH227085   5.126   5.874   2.649  0.5100 -0.3433  0.7309
 1865TIP3    H127086   5.073   5.839   2.721 -0.4781  2.0365  1.2488
 1865TIP3    H227087   5.211   5.892   2.688  0.2850  0.0148  1.0637
 1866TIP3   OH227088   4.217   4.157  13.669 -0.1174 -0.3292  0.1770
 1866TIP3    H127089   4.170   4.206  13.736  1.5437 -0.8991  1.8450
 1866TIP3    H227090   4.309   4.169  13.690  0.5491  0.3872 -2.7151
 1867TIP3   OH227091   4.608   5.695  12.616  0.1777  0.2520  0.4163
 1867TIP3    H127092   4.693   5.651  12.618  0.9407  1.6724  0.5424
 1867TIP3    H227093   4.556   5.644  12.554  1.4344 -0.1171 -0.3766
 1868TIP3   OH227094   1.732   4.829  16.193  0.3092 -0.1133  0.0628
 1868TIP3    H127095   1.756   4.784  16.112  0.0685 -0.3023  0.0940
 1868TIP3    H227096   1.639   4.850  16.182  0.2111 -0.3628  0.3904
 1869TIP3   OH227097   5.526   5.823  13.465 -0.3732 -0.3757 -0.1484
 1869TIP3    H127098   5.511   5.753  13.528 -2.8160  0.3933  0.2405
 1869TIP3    H227099   5.455   5.885  13.480  0.9785  1.5898 -1.3250
 1870TIP3   OH227100   4.625   5.438  14.567 -0.0652 -0.2616  0.2881
 1870TIP3    H127101   4.567   5.483  14.629  0.3578 -0.0433  0.5326
 1870TIP3    H227102   4.669   5.371  14.621 -0.6630 -0.9596 -0.0625
 1871TIP3   OH227103   6.372   4.880  12.992 -0.2531  0.4211  0.2260
 1871TIP3    H127104   6.452   4.932  12.997 -0.8824  1.3473  0.9115
 1871TIP3    H227105   6.378   4.835  12.908  0.4389  1.3973 -0.2670
 1872TIP3   OH227106   6.030   6.080   3.369  0.2648  0.0563 -0.4299
 1872TIP3    H127107   6.006   6.026   3.293  0.5154  0.9337 -1.1458
 1872TIP3    H227108   5.959   6.065   3.432 -0.6969  0.4095 -1.3972
 1873TIP3   OH227109   6.763   5.385   2.000  0.4054  0.9782  0.2416
 1873TIP3    H127110   6.809   5.466   1.978  0.2920  0.9478 -0.1146
 1873TIP3    H227111   6.763   5.383   2.096 -2.3002  2.9616  0.3988
 1874TIP3   OH227112   5.487   1.886   2.366 -0.1224 -0.4481 -0.4614
 1874TIP3    H127113   5.573   1.918   2.393 -0.3616 -0.6600  0.6130
 1874TIP3    H227114   5.427   1.925   2.430 -0.9410  0.3605 -1.6787
 1875TIP3   OH227115   3.147   3.370  15.354  0.2438  0.1610 -0.3485
 1875TIP3    H127116   3.157   3.279  15.382 -0.7453  0.3345  0.6483
 1875TIP3    H227117   3.123   3.365  15.262  0.6282 -0.5639 -0.4139
 1876TIP3   OH227118   0.320   6.783  14.579  0.0815  0.0430  0.7179
 1876TIP3    H127119   0.396   6.774  14.521 -0.2493 -1.4274  0.4515
 1876TIP3    H227120   0.358   6.791  14.666  0.5662  0.0020  0.5173
 1877TIP3   OH227121   0.751   0.501   3.478 -0.3443  0.1094 -0.8291
 1877TIP3    H127122   0.826   0.474   3.423 -1.8145 -1.9523 -1.9576
 1877TIP3    H227123   0.674   0.475   3.427 -1.8154  0.1623  1.2771
 1878TIP3   OH227124   0.705   6.147  12.336  0.1736  0.1075  0.1234
 1878TIP3    H127125   0.742   6.224  12.379  0.5430 -1.1030  2.1229
 1878TIP3    H227126   0.626   6.179  12.293  0.9883  1.8281 -0.1711
 1879TIP3   OH227127   3.561   0.688   5.281 -0.0797  0.5695 -0.3915
 1879TIP3    H127128   3.538   0.699   5.189  0.3067  1.4246 -0.3964
 1879TIP3    H227129   3.557   0.594   5.296 -0.1664  0.4255 -1.2760
 1880TIP3   OH227130   6.217   0.468  14.731 -0.1829 -0.2926 -0.2395
 1880TIP3    H127131   6.211   0.519  14.650 -0.6527 -1.4633 -0.9753
 1880TIP3    H227132   6.283   0.401  14.713  0.9990  0.4871  0.9889
 1881TIP3   OH227133   2.215   3.413  16.272  0.7083  0.1384  0.2116
 1881TIP3    H127134   2.163   3.374  16.342 -0.6537  0.8184 -0.3651
 1881TIP3    H227135   2.215   3.347  16.202  2.5838 -0.7940  1.0232
 1882TIP3   OH227136   3.844   2.888   6.057 -0.6116  0.0227 -0.1425
 1882TIP3    H127137   3.891   2.893   5.974 -2.7327 -2.0233 -1.5537
 1882TIP3    H227138   3.805   2.975   6.068 -0.3687  0.2901 -1.3202
 1883TIP3   OH227139   0.081   1.024  14.945  0.9196  0.0218  0.4537
 1883TIP3    H127140   0.113   0.937  14.922  2.0098 -0.3663  3.0424
 1883TIP3    H227141   0.160   1.072  14.971 -0.0388  0.4445  2.8897
 1884TIP3   OH227142   5.583   6.615  15.348  0.0286  0.0833  0.0258
 1884TIP3    H127143   5.668   6.574  15.332 -0.3554 -0.4638 -0.7024
 1884TIP3    H227144   5.546   6.564  15.420  0.0271 -0.1455 -0.1319
 1885TIP3   OH227145   4.053   3.599   1.339  0.3353 -0.6163 -1.0417
 1885TIP3    H127146   4.058   3.692   1.319  0.1697 -0.8916 -2.4432
 1885TIP3    H227147   3.967   3.572   1.307  0.4601 -1.2928 -0.8274
 1886TIP3   OH227148   5.668   4.864   2.433 -0.2295 -0.4733  0.2807
 1886TIP3    H127149   5.660   4.773   2.403  0.3509 -0.9495  1.5118
 1886TIP3    H227150   5.593   4.878   2.491  0.0496 -0.3784  0.6205
 1887TIP3   OH227151   0.326   4.271  13.508  0.3592  0.5307 -0.8163
 1887TIP3    H127152   0.233   4.295  13.511  0.0307 -0.7396 -0.0698
 1887TIP3    H227153   0.371   4.345  13.550 -0.4802  0.4502  0.2712
 1888TIP3   OH227154   4.128   2.228   5.705 -0.1571 -0.1184 -0.1680
 1888TIP3    H127155   4.036   2.244   5.688 -0.3791 -1.2784 -0.1378
 1888TIP3    H227156   4.174   2.292   5.652 -0.9472 -0.6427 -1.5274
 1889TIP3   OH227157   6.220   6.360   4.930 -0.3170  0.5384 -0.0263
 1889TIP3    H127158   6.163   6.391   5.000  0.5552  0.0170  0.9455
 1889TIP3    H227159   6.252   6.440   4.888 -0.5195  0.8737  0.4482
 1890TIP3   OH227160   0.717   5.830  15.262  0.0745 -0.1087  0.2547
 1890TIP3    H127161   0.709   5.787  15.348 -3.9495 -2.8269 -1.1840
 1890TIP3    H227162   0.682   5.918  15.276 -1.7928 -0.9364  1.2632
 1891TIP3   OH227163   0.391   1.867  12.936 -0.5055  0.1665  0.0713
 1891TIP3    H127164   0.410   1.791  12.881  3.4847 -0.1573  1.5781
 1891TIP3    H227165   0.420   1.841  13.023  0.5036  3.2037  0.7482
 1892TIP3   OH227166   0.899   2.413   6.639 -0.3195 -0.6184 -0.5010
 1892TIP3    H127167   0.853   2.497   6.637 -0.4966 -0.6914  0.2079
 1892TIP3    H227168   0.983   2.433   6.681 -0.6723 -0.9253  0.3871
 1893TIP3   OH227169   0.779   1.733  11.766  0.1884  0.4819  0.0858
 1893TIP3    H127170   0.747   1.651  11.804 -1.7481 -0.4624 -3.1737
 1893TIP3    H227171   0.707   1.794  11.776 -0.2305  0.3102 -1.6225
 1894TIP3   OH227172   0.263   0.657   3.355 -0.6440 -0.1550 -0.0863
 1894TIP3    H127173   0.282   0.690   3.267 -0.3962 -0.6340 -0.2120
 1894TIP3    H227174   0.232   0.568   3.341  1.3684 -0.9948  0.4462
 1895TIP3   OH227175   6.764   1.717  11.345 -0.0232 -0.1093 -0.0526
 1895TIP3    H127176   6.819   1.785  11.384 -0.5987  0.1277  0.3592
 1895TIP3    H227177   6.794   1.712  11.254  0.5310  0.1684  0.1096
 1896TIP3   OH227178   0.568   1.161   5.664 -0.0971 -0.0834  1.0171
 1896TIP3    H127179   0.662   1.175   5.673  0.1133 -0.4581 -0.3558
 1896TIP3    H227180   0.547   1.098   5.733  0.4334  0.8300  2.0441
 1897TIP3   OH227181   0.858   0.853   0.897 -0.4274 -0.1612 -0.3029
 1897TIP3    H127182   0.895   0.825   0.814 -0.6178 -1.4844  0.0277
 1897TIP3    H227183   0.807   0.931   0.876  0.0589 -0.1062 -1.3043
 1898TIP3   OH227184   5.605   4.951   5.700  0.7271  0.6143  0.5600
 1898TIP3    H127185   5.575   5.005   5.773 -0.9833  0.2216  0.1922
 1898TIP3    H227186   5.555   4.869   5.708 -0.3766  0.9685 -1.6349
 1899TIP3   OH227187   1.846   6.067   3.315 -0.5262 -0.5048  1.1102
 1899TIP3    H127188   1.917   6.017   3.274 -0.8794 -0.9716  1.0518
 1899TIP3    H227189   1.808   6.006   3.379 -1.1803 -0.4226  0.8032
 1900TIP3   OH227190   0.405   4.642   3.458 -0.1994 -0.0486  0.2212
 1900TIP3    H127191   0.425   4.682   3.373  2.5307  0.0032  0.8041
 1900TIP3    H227192   0.461   4.689   3.520  0.8283 -2.6775  1.4005
 1901TIP3   OH227193   2.562   6.608   2.189 -0.2702  0.2639 -0.1698
 1901TIP3    H127194   2.636   6.654   2.229 -0.5443  0.5533  0.0167
 1901TIP3    H227195   2.524   6.558   2.261 -0.8300  0.8700 -0.0393
 1902TIP3   OH227196   2.770   2.073   1.883 -0.0425 -0.2053 -0.0391
 1902TIP3    H127197   2.820   2.150   1.909  0.0040  0.1541 -1.1727
 1902TIP3    H227198   2.685   2.107   1.855  0.3753 -0.4206 -1.6558
 1903TIP3   OH227199   5.304   0.592  16.381 -0.0342  0.2805  0.4403
 1903TIP3    H127200   5.392   0.630  16.379  0.5760 -0.9508  1.9227
 1903TIP3    H227201   5.292   0.564  16.472 -0.9579 -1.8065 -0.2554
 1904TIP3   OH227202   1.706   3.112   5.297  0.0060  0.2272  0.3649
 1904TIP3    H127203   1.739   3.116   5.387  3.9480  2.1298 -0.9269
 1904TIP3    H227204   1.641   3.182   5.292  0.4911  0.7888  1.5138
 1905TIP3   OH227205   3.917   1.805  12.246  0.4011  0.3506 -0.2175
 1905TIP3    H127206   3.960   1.873  12.299 -1.7807  0.8846  1.0011
 1905TIP3    H227207   3.950   1.722  12.283  3.1240  0.6235 -1.7487
 1906TIP3   OH227208   0.012   6.693  13.917 -0.0092  0.5331  0.0911
 1906TIP3    H127209  -0.052   6.644  13.968  0.4323  1.4901  1.6182
 1906TIP3    H227210   0.049   6.757  13.978 -0.4943  2.7460 -1.7701
 1907TIP3   OH227211   0.273   0.415   5.288  0.1293 -0.1314 -0.1781
 1907TIP3    H127212   0.355   0.444   5.330 -0.7709  0.8363  0.9871
 1907TIP3    H227213   0.301   0.350   5.223  1.6616 -1.4277  1.6484
 1908TIP3   OH227214   2.391   5.956  16.128 -0.4488  0.1411 -0.4103
 1908TIP3    H127215   2.371   5.864  16.110 -0.9772  0.5822 -2.2842
 1908TIP3    H227216   2.433   5.955  16.214 -0.6753 -1.8158 -0.2800
 1909TIP3   OH227217   6.688   3.334  12.880  0.0483 -0.5429  0.0295
 1909TIP3    H127218   6.693   3.317  12.974 -0.9050  0.4791  0.2928
 1909TIP3    H227219   6.779   3.335  12.851  0.4048 -0.1204  1.1047
 1910TIP3   OH227220   0.764   0.960  13.586 -0.1595 -0.0683  0.5004
 1910TIP3    H127221   0.779   0.865  13.582  0.5532  0.0251  0.7235
 1910TIP3    H227222   0.677   0.969  13.623 -1.4884 -0.6782 -2.2437
 1911TIP3   OH227223   3.653   2.466  16.308 -0.1112  0.2571 -0.2109
 1911TIP3    H127224   3.739   2.445  16.344  0.2750 -0.2631 -1.3910
 1911TIP3    H227225   3.599   2.390  16.329 -0.0439  0.2131 -0.1949
 1912TIP3   OH227226   0.829   4.374  13.530  0.3381  0.2308 -0.4833
 1912TIP3    H127227   0.914   4.408  13.502  0.3822  0.0606 -0.5569
 1912TIP3    H227228   0.795   4.327  13.454  1.0146 -1.2889  0.1137
 1913TIP3   OH227229   4.037   6.721  12.951 -0.7515 -0.5458 -0.9587
 1913TIP3    H127230   4.062   6.694  12.863  0.9378 -1.2246 -0.3138
 1913TIP3    H227231   4.023   6.639  12.999 -1.2022 -0.1943 -0.4738
 1914TIP3   OH227232   0.531   5.255   3.588  0.3092  0.1208 -0.0285
 1914TIP3    H127233   0.575   5.170   3.589  1.3115  0.2227 -5.4147
 1914TIP3    H227234   0.592   5.314   3.632  1.0560 -1.3625  1.0224
 1915TIP3   OH227235   0.350   3.775  15.109  0.1308 -0.3459 -0.3889
 1915TIP3    H127236   0.271   3.763  15.056 -0.1314  1.0631 -0.3639
 1915TIP3    H227237   0.397   3.692  15.101 -1.7996 -1.6008  0.3772
 1916TIP3   OH227238   5.825   4.114  13.232  0.1707 -0.0139 -0.4624
 1916TIP3    H127239   5.756   4.173  13.264 -0.2655 -1.3188  1.1218
 1916TIP3    H227240   5.778   4.039  13.196  0.6969 -1.1172  1.0235
 1917TIP3   OH227241   4.615   5.213   1.955  0.6280 -0.1466 -0.0478
 1917TIP3    H127242   4.535   5.257   1.926  2.3494  1.7672 -2.3093
 1917TIP3    H227243   4.628   5.245   2.044  0.5191  2.1485 -0.7672
 1918TIP3   OH227244   4.969   6.546  13.368 -0.4011  0.2743  0.2083
 1918TIP3    H127245   5.001   6.600  13.295  0.2891  1.2751  1.2094
 1918TIP3    H227246   5.008   6.460  13.353  0.7880  0.8128  0.0550
 1919TIP3   OH227247   0.330   2.634   1.307  0.5352  0.7045  0.0461
 1919TIP3    H127248   0.254   2.581   1.332  0.5845 -1.0706 -3.0372
 1919TIP3    H227249   0.291   2.715   1.272  0.1414  0.4410 -0.1381
 1920TIP3   OH227250   1.650   1.748   5.337  0.1261 -0.4988 -0.2298
 1920TIP3    H127251   1.657   1.733   5.431 -1.3328  0.3916  0.0666
 1920TIP3    H227252   1.689   1.671   5.296  2.3494 -0.1235  1.0775
 1921TIP3   OH227253   4.715   3.913  15.457 -0.0134 -0.2988 -0.5247
 1921TIP3    H127254   4.768   3.868  15.391  0.4980 -0.6783  0.1432
 1921TIP3    H227255   4.649   3.961  15.405  1.4018  0.7845 -1.4010
 1922TIP3   OH227256   6.593   1.805   0.207  0.3656  0.3275  0.0195
 1922TIP3    H127257   6.679   1.785   0.244  0.7783 -0.5130 -1.3494
 1922TIP3    H227258   6.601   1.895   0.176  0.2250  0.8087  1.2860
 1923TIP3   OH227259   3.125   3.103   1.942  0.4568  0.1219 -0.0449
 1923TIP3    H127260   3.118   3.014   1.909 -0.4167 -0.6539  2.0250
 1923TIP3    H227261   3.050   3.149   1.904  1.1097  0.0965 -1.3980
 1924TIP3   OH227262   3.385   2.174  12.384  0.0143 -0.2052  1.1135
 1924TIP3    H127263   3.477   2.162  12.363 -0.0919  0.3087  0.3143
 1924TIP3    H227264   3.353   2.086  12.404  0.6524 -0.3915  1.3201
 1925TIP3   OH227265   3.424   2.777  12.375 -0.0312  0.3988 -0.8394
 1925TIP3    H127266   3.340   2.820  12.362  0.3780  1.8401  0.8635
 1925TIP3    H227267   3.460   2.767  12.286 -1.4553  0.8350 -1.4936
 1926TIP3   OH227268   4.211   1.308  11.619  0.3006 -0.0942 -0.4880
 1926TIP3    H127269   4.293   1.350  11.593  0.1430 -0.7361 -2.1547
 1926TIP3    H227270   4.142   1.360  11.577 -0.0085 -0.8208 -0.8992
 1927TIP3   OH227271   6.507   4.676  15.052 -0.1995  0.1395  0.4004
 1927TIP3    H127272   6.457   4.629  15.118 -0.4984 -0.0206  0.0594
 1927TIP3    H227273   6.582   4.619  15.034 -1.4260 -1.0496 -1.2537
 1928TIP3   OH227274   1.627   4.017  16.751 -0.4508  0.2937 -0.2167
 1928TIP3    H127275   1.644   4.110  16.769  0.7631  0.0112  0.2206
 1928TIP3    H227276   1.555   3.994  16.808 -0.0697  0.7202  0.4557
 1929TIP3   OH227277   4.000   2.898  15.909 -0.2549  0.2742 -0.2216
 1929TIP3    H127278   4.017   2.877  16.001  1.0502 -0.8401 -0.6731
 1929TIP3    H227279   3.929   2.839  15.884  0.3785 -0.4786 -0.2912
 1930TIP3   OH227280   3.802   2.166  14.303 -0.3624  0.4486 -0.5422
 1930TIP3    H127281   3.876   2.205  14.351 -0.5148  2.6986 -1.9726
 1930TIP3    H227282   3.761   2.241  14.259 -1.2114 -1.2647 -2.8182
 1931TIP3   OH227283   0.070   4.146   6.030  0.4328  0.3720 -0.4817
 1931TIP3    H127284   0.065   4.149   6.125  0.4650 -0.2185 -0.4595
 1931TIP3    H227285   0.157   4.180   6.009  0.7380 -0.2756 -0.2583
 1932TIP3   OH227286   5.885   0.766  16.656 -0.1162 -0.1468 -0.2489
 1932TIP3    H127287   5.870   0.677  16.689  0.2108 -0.4372 -0.8559
 1932TIP3    H227288   5.930   0.811  16.727  0.2621 -0.6478 -0.1656
 1933TIP3   OH227289   1.952   3.649   0.165 -0.4077  0.0890  0.6156
 1933TIP3    H127290   1.988   3.579   0.220 -2.3755 -0.5382  1.2012
 1933TIP3    H227291   1.858   3.631   0.164 -0.8419  2.2139  0.0042
 1934TIP3   OH227292   3.327   1.172   6.080 -0.5373  0.2480 -0.0397
 1934TIP3    H127293   3.286   1.157   6.165 -1.0352  1.8675  0.0454
 1934TIP3    H227294   3.359   1.262   6.084 -0.6802  0.4015 -1.6022
 1935TIP3   OH227295   1.319   5.369  16.244  0.4644 -0.1044  0.4933
 1935TIP3    H127296   1.296   5.459  16.266  2.8692  0.6775  0.1065
 1935TIP3    H227297   1.327   5.369  16.149 -1.0097 -1.1472  0.3429
 1936TIP3   OH227298   2.509   6.026  12.455  0.4796 -0.3962 -0.2589
 1936TIP3    H127299   2.565   6.095  12.420 -0.1631 -0.6263 -1.7884
 1936TIP3    H227300   2.514   5.955  12.392  1.1593 -1.8237  1.3129
 1937TIP3   OH227301   0.848   4.307  16.368  0.2273 -0.5495  0.1208
 1937TIP3    H127302   0.860   4.241  16.436  1.4953  0.1845  0.6385
 1937TIP3    H227303   0.834   4.388  16.416 -1.7882 -0.4608 -0.5093
 1938TIP3   OH227304   5.247   4.375   6.115 -0.6289 -0.3587 -0.3818
 1938TIP3    H127305   5.225   4.290   6.079  0.2741 -0.7504 -0.0425
 1938TIP3    H227306   5.231   4.437   6.043  2.9627 -1.3015 -2.2654
 1939TIP3   OH227307   4.780   5.900   3.779  0.2592  0.3075 -0.0846
 1939TIP3    H127308   4.758   5.913   3.687 -1.2575  0.4355  0.2742
 1939TIP3    H227309   4.793   5.988   3.814 -1.6299  0.4457  0.3722
 1940TIP3   OH227310   6.152   3.205   3.466 -0.2999  0.2391  0.4009
 1940TIP3    H127311   6.164   3.300   3.457 -0.7448  0.1158 -2.5045
 1940TIP3    H227312   6.058   3.192   3.455 -0.0419 -0.6232 -1.1115
 1941TIP3   OH227313   1.797   0.162   3.217  0.2147 -0.9171  0.3707
 1941TIP3    H127314   1.707   0.155   3.247  0.0410 -1.2545 -0.2276
 1941TIP3    H227315   1.841   0.214   3.286 -0.6189 -0.0257  0.2500
 1942TIP3   OH227316   4.594   0.752  13.310 -0.2692 -0.3069 -0.2136
 1942TIP3    H127317   4.518   0.699  13.335 -0.8806  0.2530 -0.8370
 1942TIP3    H227318   4.633   0.780  13.393 -0.3910 -1.0822  0.1130
 1943TIP3   OH227319   1.847   4.385  15.999  0.1718 -0.2638 -0.4812
 1943TIP3    H127320   1.911   4.408  16.067  0.9985  0.3945 -1.4538
 1943TIP3    H227321   1.763   4.414  16.034  0.6417  0.4579  0.0756
 1944TIP3   OH227322   5.836   0.386  15.665  0.2353 -0.2755  0.3012
 1944TIP3    H127323   5.881   0.342  15.737 -1.1385 -0.2156  1.2235
 1944TIP3    H227324   5.765   0.327  15.641  0.6935 -0.3091 -1.0566
 1945TIP3   OH227325   1.142   6.493  14.799  0.7179  0.3497 -0.3841
 1945TIP3    H127326   1.077   6.529  14.739 -0.2188  0.4692  0.6618
 1945TIP3    H227327   1.180   6.419  14.753 -1.9863 -1.3449 -0.0945
 1946TIP3   OH227328   3.131   4.921   5.531  0.5157  0.6570 -0.0767
 1946TIP3    H127329   3.081   4.918   5.449 -0.7221 -1.7046  0.6527
 1946TIP3    H227330   3.089   4.991   5.581 -2.0335 -1.0286  0.3767
 1947TIP3   OH227331   6.522   2.733   0.748  0.3906 -0.3249 -0.4710
 1947TIP3    H127332   6.565   2.742   0.663  0.8460 -3.7936 -0.7546
 1947TIP3    H227333   6.568   2.660   0.791 -2.3502 -1.3073  1.0658
 1948TIP3   OH227334   1.967   5.705  12.864 -0.2574  0.0895  0.0226
 1948TIP3    H127335   2.051   5.730  12.902 -0.6594  0.1088  0.9439
 1948TIP3    H227336   1.911   5.689  12.940 -1.2339  0.5946 -0.5752
 1949TIP3   OH227337   2.362   4.593  11.365 -0.5503  0.0241  0.1102
 1949TIP3    H127338   2.354   4.606  11.460 -1.1847 -0.3183  0.1081
 1949TIP3    H227339   2.311   4.515  11.348  0.5988 -0.6524 -0.3368
 1950TIP3   OH227340   4.675   4.629  13.244 -0.1760 -0.1663 -0.4115
 1950TIP3    H127341   4.736   4.564  13.280  0.7321  0.6012 -0.5424
 1950TIP3    H227342   4.658   4.689  13.316 -2.1945 -1.3345  0.1701
 1951TIP3   OH227343   4.200   5.456  16.471  0.6215 -0.5896  1.0697
 1951TIP3    H127344   4.227   5.393  16.538 -0.8480  0.7217  3.0123
 1951TIP3    H227345   4.237   5.539  16.500 -1.4280  0.3263  1.2370
 1952TIP3   OH227346   4.471   0.587  11.814 -0.1261  0.2534  0.1231
 1952TIP3    H127347   4.519   0.669  11.804 -1.0899  0.6806 -1.4167
 1952TIP3    H227348   4.386   0.612  11.850  0.7348 -0.5119  2.9679
 1953TIP3   OH227349   6.218   4.093  13.465  0.5385 -0.0642  0.4009
 1953TIP3    H127350   6.245   4.025  13.527 -1.3098 -1.8598 -0.6451
 1953TIP3    H227351   6.247   4.061  13.380  0.9783  1.2366  0.0358
 1954TIP3   OH227352   2.098   5.977   4.101 -0.0943  0.1608  0.0112
 1954TIP3    H127353   2.137   6.061   4.124  1.5285 -0.3240 -0.8209
 1954TIP3    H227354   2.063   5.991   4.013 -0.1463  0.0702  0.0174
 1955TIP3   OH227355   5.563   6.313  11.597 -0.0069  0.0522 -0.3616
 1955TIP3    H127356   5.490   6.284  11.543 -2.5942  1.5753  2.0736
 1955TIP3    H227357   5.578   6.404  11.572  0.2097  0.1194  0.0001
 1956TIP3   OH227358   6.067   0.991  16.145  0.3192  0.3595  0.0973
 1956TIP3    H127359   6.101   0.924  16.204 -0.9393 -0.1147  0.3045
 1956TIP3    H227360   5.974   0.972  16.137 -0.1666  2.2895  0.4436
 1957TIP3   OH227361   0.944   3.602   4.928  0.8404  0.3992 -0.1824
 1957TIP3    H127362   0.953   3.697   4.934 -0.2695  0.7251 -2.4523
 1957TIP3    H227363   0.893   3.577   5.004 -1.3073  2.0513 -0.9898
 1958TIP3   OH227364   0.659   6.297   5.157  0.4592  0.3298  0.4201
 1958TIP3    H127365   0.689   6.209   5.174  0.7282  0.5108  0.8770
 1958TIP3    H227366   0.568   6.298   5.187  0.1800 -0.0377 -0.3916
 1959TIP3   OH227367   0.795   3.808   5.691 -0.1028  0.4505 -0.0259
 1959TIP3    H127368   0.853   3.794   5.766  0.1307 -1.5633 -0.5317
 1959TIP3    H227369   0.736   3.878   5.719  0.6466  0.4604  1.6355
 1960TIP3   OH227370   3.385   1.412   4.752 -0.0210  0.7310 -0.2273
 1960TIP3    H127371   3.477   1.390   4.744  0.6686  3.4721 -0.9090
 1960TIP3    H227372   3.357   1.433   4.663 -1.1101  0.6680  0.0782
 1961TIP3   OH227373   0.442   5.930   6.035  0.4956  0.7743 -0.0581
 1961TIP3    H127374   0.460   6.012   6.081  1.3757  1.0723 -0.8903
 1961TIP3    H227375   0.489   5.863   6.085 -2.0203  0.3413  1.9376
 1962TIP3   OH227376   5.020   0.548   3.546  0.0358 -0.7180  0.3862
 1962TIP3    H127377   5.046   0.616   3.484  1.1954 -0.6471  0.9153
 1962TIP3    H227378   4.927   0.563   3.561  0.8153  2.9370  3.0162
 1963TIP3   OH227379   1.864   2.032  14.660 -0.3195 -0.8763  0.1733
 1963TIP3    H127380   1.860   2.128  14.650  1.0674 -0.7693  0.4540
 1963TIP3    H227381   1.877   1.999  14.571  1.2461 -0.6463  0.2919
 1964TIP3   OH227382   2.110   6.271   4.559 -0.4565  0.1547 -0.2612
 1964TIP3    H127383   2.046   6.343   4.562 -0.7611 -0.0839 -0.8284
 1964TIP3    H227384   2.058   6.195   4.533 -0.2416 -0.4053  0.9063
 1965TIP3   OH227385   0.782   6.758   5.754 -0.0209 -0.1908 -0.4719
 1965TIP3    H127386   0.802   6.839   5.801  0.8532  0.0731 -1.2659
 1965TIP3    H227387   0.748   6.699   5.821  1.4682  0.0776  0.5642
 1966TIP3   OH227388   4.756   0.958  14.104  0.0792  0.6581  0.2210
 1966TIP3    H127389   4.845   0.951  14.138  0.3748  0.6795 -0.5294
 1966TIP3    H227390   4.700   0.929  14.177  0.7998 -1.4181  0.0335
 1967TIP3   OH227391   5.017   4.995  11.321  0.4797  0.1072  0.1724
 1967TIP3    H127392   4.986   5.074  11.276 -0.7974 -1.1041 -1.1327
 1967TIP3    H227393   4.947   4.931  11.309  1.5874 -1.3138  1.0348
 1968TIP3   OH227394   5.136   1.349  16.171  0.7994 -0.0631  0.6170
 1968TIP3    H127395   5.100   1.438  16.169  0.7361 -0.1020 -0.9007
 1968TIP3    H227396   5.170   1.335  16.083 -1.0901 -2.3150  0.1690
 1969TIP3   OH227397   0.678   3.466  17.004  0.2591 -0.3317 -0.4578
 1969TIP3    H127398   0.714   3.539  16.954 -0.6460 -1.3563 -2.7443
 1969TIP3    H227399   0.602   3.502  17.050 -0.9056 -0.0477 -2.5231
 1970TIP3   OH227400   4.563   4.009  15.197 -0.0538 -0.1200  0.0926
 1970TIP3    H127401   4.504   4.024  15.123  1.6049 -1.1508 -1.5479
 1970TIP3    H227402   4.647   3.987  15.156  1.2601  0.4390  2.3069
 1971TIP3   OH227403   4.863   0.744  13.187  0.1665  0.3010 -0.3574
 1971TIP3    H127404   4.772   0.729  13.213  0.5827  0.5554  1.3338
 1971TIP3    H227405   4.857   0.782  13.099 -1.3866  0.8051 -0.0592
 1972TIP3   OH227406   4.589   4.746   2.173  0.1027  0.7738  0.3977
 1972TIP3    H127407   4.684   4.746   2.182  0.0469 -0.6636  1.3340
 1972TIP3    H227408   4.559   4.811   2.237  0.4927  2.8985 -1.4281
 1973TIP3   OH227409   3.153   2.511  15.018  0.2340  0.2748 -0.5673
 1973TIP3    H127410   3.128   2.419  15.027  0.1718  0.0473 -2.5855
 1973TIP3    H227411   3.244   2.508  14.990  0.1285  0.8028 -0.9795
 1974TIP3   OH227412   3.432   5.391   1.310  0.3904 -0.4111 -0.3447
 1974TIP3    H127413   3.515   5.381   1.355  0.0998  0.6195  0.4725
 1974TIP3    H227414   3.398   5.302   1.300  0.7005 -0.7005  1.0331
 1975TIP3   OH227415   6.444   1.493  15.540  0.2286  1.0085 -0.3889
 1975TIP3    H127416   6.375   1.431  15.515 -0.1668  0.5409  1.7036
 1975TIP3    H227417   6.524   1.440  15.540  0.0959  0.8092  0.1685
 1976TIP3   OH227418   1.873   0.408  11.685  0.1043  0.2126 -0.3797
 1976TIP3    H127419   1.955   0.397  11.637  0.4558  1.1516 -0.0216
 1976TIP3    H227420   1.814   0.448  11.620 -0.1806 -0.7538 -0.7300
 1977TIP3   OH227421   4.597   1.687  15.940  0.3011 -0.2481  0.1776
 1977TIP3    H127422   4.633   1.599  15.937 -0.1999 -0.4390 -0.1868
 1977TIP3    H227423   4.616   1.717  16.029  0.1007 -0.8780  0.4360
 1978TIP3   OH227424   5.348   1.152   1.787 -0.0368  0.5151 -0.0106
 1978TIP3    H127425   5.425   1.100   1.812 -0.7354 -0.4679  0.1707
 1978TIP3    H227426   5.357   1.164   1.693 -1.5712 -2.9614 -0.7379
 1979TIP3   OH227427   4.965   4.449   2.664 -0.2542  0.2421  0.7038
 1979TIP3    H127428   4.928   4.525   2.709 -0.7793  0.3068  0.1710
 1979TIP3    H227429   4.949   4.376   2.724 -0.6467  0.3849  0.7798
 1980TIP3   OH227430   0.149   1.139  15.758 -0.6094  0.4425 -0.1559
 1980TIP3    H127431   0.141   1.211  15.696  0.4236  0.3200 -0.4431
 1980TIP3    H227432   0.060   1.106  15.768 -0.6634 -0.3364 -2.5368
 1981TIP3   OH227433   5.328   3.866  11.109  0.1139  0.6449 -0.1251
 1981TIP3    H127434   5.342   3.918  11.031 -0.6882 -0.2684 -0.9117
 1981TIP3    H227435   5.398   3.800  11.107 -1.1427 -0.7338 -1.2939
 1982TIP3   OH227436   0.082   1.338   0.417  0.4078  0.0607  0.0859
 1982TIP3    H127437   0.160   1.371   0.372  1.0495  1.5021  2.1458
 1982TIP3    H227438   0.094   1.243   0.418  0.7908  0.0402 -1.9432
 1983TIP3   OH227439   1.514   1.438   4.127  0.2932 -0.3389 -0.5180
 1983TIP3    H127440   1.601   1.399   4.125  0.9727  1.0426  0.5183
 1983TIP3    H227441   1.497   1.463   4.036  1.4048  0.2519 -0.5856
 1984TIP3   OH227442   2.837   6.353   4.303 -0.0510 -0.3128  0.0925
 1984TIP3    H127443   2.771   6.410   4.340  1.1133  1.1184  0.0545
 1984TIP3    H227444   2.801   6.265   4.312 -1.7332  0.3876  0.4797
 1985TIP3   OH227445   0.893   4.575   1.153  0.4933 -0.0467 -0.3010
 1985TIP3    H127446   0.798   4.563   1.151  0.6128 -1.2931  0.2800
 1985TIP3    H227447   0.908   4.643   1.218  0.0586 -0.8054  0.6265
 1986TIP3   OH227448   6.028   6.106   4.076 -0.1215 -1.0050  0.0098
 1986TIP3    H127449   6.111   6.060   4.092  0.6827  0.0759 -0.8600
 1986TIP3    H227450   5.964   6.058   4.127  1.3056 -0.9912  1.9395
 1987TIP3   OH227451   3.126   3.629  13.191  0.1857  0.4281  0.3510
 1987TIP3    H127452   3.192   3.675  13.243 -0.5494  0.9298  0.8539
 1987TIP3    H227453   3.176   3.564  13.142  1.0386  0.6990  0.8369
 1988TIP3   OH227454   4.730   5.594   2.589 -0.1993 -0.2599  0.0793
 1988TIP3    H127455   4.718   5.593   2.494 -1.7344  0.1532  0.2512
 1988TIP3    H227456   4.804   5.653   2.603 -0.3327  0.1295 -0.8253
 1989TIP3   OH227457   5.768   2.432   5.482 -0.2148  0.2206  0.1253
 1989TIP3    H127458   5.787   2.359   5.423  1.2892 -0.0906  0.9548
 1989TIP3    H227459   5.721   2.495   5.427  2.1458  0.4539 -1.7774
 1990TIP3   OH227460   2.127   6.102  14.502  0.4276  0.1703 -0.3256
 1990TIP3    H127461   2.166   6.094  14.589 -1.1746  0.0558  0.4278
 1990TIP3    H227462   2.033   6.099  14.518 -0.0087  2.9515 -1.7513
 1991TIP3   OH227463   3.404   6.299   3.874  0.1114 -0.0991 -0.0516
 1991TIP3    H127464   3.351   6.373   3.905 -1.1509 -0.5987 -0.9303
 1991TIP3    H227465   3.449   6.267   3.952  0.5411  1.4744  0.3789
 1992TIP3   OH227466   3.574   4.615  10.234  0.4113  0.4770  0.2560
 1992TIP3    H127467   3.656   4.664  10.234  0.9600 -0.4228  0.1264
 1992TIP3    H227468   3.600   4.523  10.237 -0.5697  0.1474 -0.5410
 1993TIP3   OH227469   5.427   6.675   5.891 -0.6097  0.1909 -0.0540
 1993TIP3    H127470   5.518   6.674   5.918 -0.2297 -0.6219 -1.2810
 1993TIP3    H227471   5.403   6.583   5.882 -0.8072  0.3952 -2.0411
 1994TIP3   OH227472   4.703   4.262  13.289  0.1923  0.2991  0.4611
 1994TIP3    H127473   4.739   4.245  13.376 -0.1629  2.0023  0.9779
 1994TIP3    H227474   4.633   4.325  13.304  0.1690  0.6815 -1.0677
 1995TIP3   OH227475   4.554   5.619  16.480  0.4311  0.0818 -0.0935
 1995TIP3    H127476   4.600   5.670  16.547  2.1911  2.2626 -2.7546
 1995TIP3    H227477   4.480   5.674  16.455 -0.6518 -1.0545  0.4745
 1996TIP3   OH227478   4.567   0.672   1.833  0.3272  0.1033 -0.6938
 1996TIP3    H127479   4.625   0.747   1.849  0.0001 -0.0748  1.6477
 1996TIP3    H227480   4.479   0.708   1.833  0.2476 -0.0892 -0.8443
 1997TIP3   OH227481   4.259   5.657   5.785  0.1539  0.4304 -0.3830
 1997TIP3    H127482   4.192   5.589   5.784 -1.3167  1.8311 -1.2188
 1997TIP3    H227483   4.321   5.631   5.718 -0.9975  0.4676 -1.4955
 1998TIP3   OH227484   6.172   4.527  14.296  0.4037  0.8267 -0.1148
 1998TIP3    H127485   6.198   4.590  14.229  0.8816  0.5993 -0.1427
 1998TIP3    H227486   6.104   4.573  14.346 -0.8515  0.5665 -1.4834
 1999TIP3   OH227487   5.987   6.085  16.361  0.1213  0.3293  0.8883
 1999TIP3    H127488   5.968   6.036  16.440 -1.1734 -0.6257  0.0361
 1999TIP3    H227489   5.916   6.150  16.355 -1.7401 -1.6896 -1.0717
 2000TIP3   OH227490   5.217   4.623  14.824  0.3219  0.2400 -0.4770
 2000TIP3    H127491   5.284   4.622  14.755 -1.5975  0.8336 -2.4500
 2000TIP3    H227492   5.213   4.532  14.854  0.0567 -0.4140 -2.3522
 2001TIP3   OH227493   5.747   6.109   1.193 -0.0958 -0.2192 -0.3566
 2001TIP3    H127494   5.668   6.086   1.146 -1.0748 -0.2710  1.2251
 2001TIP3    H227495   5.719   6.174   1.257  1.0650 -0.4879  0.4688
 2002TIP3   OH227496   5.558   2.981  11.896  0.5573 -0.2426 -0.5189
 2002TIP3    H127497   5.652   2.966  11.908  0.4918 -0.7379 -0.5984
 2002TIP3    H227498   5.518   2.897  11.918  0.2296 -0.4045 -1.7161
 2003TIP3   OH227499   0.173   0.985  16.873 -0.9509  0.1007 -0.8341
 2003TIP3    H127500   0.189   1.042  16.948  1.5773  1.7568 -2.4494
 2003TIP3    H227501   0.188   1.042  16.797 -2.7823 -1.6454 -2.6196
 2004TIP3   OH227502   1.376   3.773  16.035 -0.1195 -0.0500 -0.1334
 2004TIP3    H127503   1.464   3.761  16.069  0.4161 -1.0491 -1.7572
 2004TIP3    H227504   1.385   3.763  15.940 -1.8433  0.7009 -0.4251
 2005TIP3   OH227505   1.357   3.374  14.257 -0.2381  0.0189 -0.2705
 2005TIP3    H127506   1.385   3.466  14.252  2.1632 -0.7201 -2.3331
 2005TIP3    H227507   1.312   3.359  14.174  0.2851 -0.9178 -0.3962
 2006TIP3   OH227508   4.554   6.199  12.036  0.7867 -0.1049  0.3642
 2006TIP3    H127509   4.562   6.268  11.970 -2.8031 -0.0925 -0.2457
 2006TIP3    H227510   4.567   6.244  12.119  2.2436  0.4917 -0.1485
 2007TIP3   OH227511   3.441   4.772  13.549 -0.1786 -0.6224  0.2856
 2007TIP3    H127512   3.469   4.857  13.581 -0.1882  0.1992 -1.7089
 2007TIP3    H227513   3.347   4.768  13.570  0.0768 -0.6943  1.4636
 2008TIP3   OH227514   5.839   1.362  13.167  0.4401 -0.4233  0.3965
 2008TIP3    H127515   5.890   1.281  13.172  0.2049 -0.6234 -0.3887
 2008TIP3    H227516   5.902   1.428  13.137  0.1846 -0.7313 -0.8578
 2009TIP3   OH227517   1.640   6.278  13.869  0.1652 -0.6313  0.7488
 2009TIP3    H127518   1.692   6.222  13.926  1.0164 -0.4418  0.1810
 2009TIP3    H227519   1.552   6.276  13.907  0.5508 -1.0604  1.6519
 2010TIP3   OH227520   1.945   3.610  16.020 -0.3501  0.4513  0.2307
 2010TIP3    H127521   1.911   3.642  15.936  3.3660  2.1165 -0.8677
 2010TIP3    H227522   1.914   3.520  16.026 -2.8393  1.0803 -1.6287
 2011TIP3   OH227523   5.648   5.194  16.274  0.3097 -0.2712  0.1800
 2011TIP3    H127524   5.612   5.212  16.187  1.6916 -1.5356 -0.6887
 2011TIP3    H227525   5.658   5.099  16.278  0.1392 -0.2600  1.8002
 2012TIP3   OH227526   2.388   3.379  12.884 -0.1608 -0.5451  0.0003
 2012TIP3    H127527   2.399   3.392  12.978  0.8442  0.0991 -0.1857
 2012TIP3    H227528   2.298   3.406  12.866  0.1348  0.8466  0.5303
 2013TIP3   OH227529   2.271   3.462  11.881 -0.4369  0.0732  0.0550
 2013TIP3    H127530   2.242   3.398  11.816 -1.1317 -0.5647  0.9821
 2013TIP3    H227531   2.237   3.545  11.849 -0.1291 -0.1136 -0.7887
 2014TIP3   OH227532   3.823   6.531  14.582 -0.0650 -0.3451 -0.2029
 2014TIP3    H127533   3.892   6.587  14.617 -0.9980  1.1561 -0.6494
 2014TIP3    H227534   3.869   6.462  14.535  1.1345 -0.3769  0.9995
 2015TIP3   OH227535   1.568   0.861   3.000  0.3904  0.1372  0.0933
 2015TIP3    H127536   1.517   0.936   3.030  0.3657 -0.0588  0.5449
 2015TIP3    H227537   1.529   0.786   3.043 -0.4915 -0.3447 -1.4464
 2016TIP3   OH227538   2.540   1.299   1.185 -0.2334  0.4676  0.2161
 2016TIP3    H127539   2.465   1.332   1.234 -0.4063  0.2992  0.0646
 2016TIP3    H227540   2.593   1.377   1.167 -0.6388  0.6623 -0.1457
 2017TIP3   OH227541   5.607   1.529  13.793  0.5832 -0.1045 -0.6451
 2017TIP3    H127542   5.552   1.460  13.830  0.5216  1.1246  1.7610
 2017TIP3    H227543   5.545   1.589  13.751  0.4097 -0.3195 -0.6963
 2018TIP3   OH227544   5.061   3.153   3.048  0.0709  0.3554  0.7173
 2018TIP3    H127545   5.000   3.174   3.119 -0.1239  1.4723  0.2485
 2018TIP3    H227546   5.005   3.131   2.974  0.2181  1.3923  0.2828
 2019TIP3   OH227547   6.460   2.315  13.663 -0.0076 -0.2111 -0.2053
 2019TIP3    H127548   6.445   2.234  13.615  0.2944  1.1484 -2.7739
 2019TIP3    H227549   6.513   2.369  13.604 -0.7162  2.1070  1.1196
 2020TIP3   OH227550   2.758   0.389  12.666  0.0086  0.1614  0.3023
 2020TIP3    H127551   2.849   0.381  12.640  0.5329  1.9002  1.3966
 2020TIP3    H227552   2.760   0.385  12.762 -1.2626 -1.2933  0.2952
 2021TIP3   OH227553   1.572   1.503  12.154  0.3292 -0.2678  0.1143
 2021TIP3    H127554   1.582   1.585  12.107 -0.4513 -0.4336 -0.3617
 2021TIP3    H227555   1.534   1.443  12.090  1.9652 -1.3525  0.1023
 2022TIP3   OH227556   2.905   2.057  15.453  0.1664  0.2244  0.4759
 2022TIP3    H127557   2.997   2.083  15.445  0.2770 -0.0328  0.8319
 2022TIP3    H227558   2.860   2.136  15.482  0.6634 -0.1861  2.5246
 2023TIP3   OH227559   4.540   5.247   2.723  0.1904  0.5784 -0.5885
 2023TIP3    H127560   4.518   5.307   2.651 -0.5002  0.2637 -0.6481
 2023TIP3    H227561   4.618   5.200   2.692 -0.1589  0.3714 -1.1844
 2024TIP3   OH227562   2.288   4.724  14.981 -0.4936 -0.6245 -0.1502
 2024TIP3    H127563   2.252   4.640  14.954 -0.0844 -0.2750 -1.9019
 2024TIP3    H227564   2.242   4.745  15.063 -1.7336 -1.8042 -0.5139
 2025TIP3   OH227565   0.464   6.568   2.322 -0.5947  0.0248  0.1679
 2025TIP3    H127566   0.500   6.594   2.237 -0.3974  1.3509  0.6320
 2025TIP3    H227567   0.370   6.579   2.313 -0.5166  1.0134  0.3576
 2026TIP3   OH227568   3.712   5.391  14.032  0.2155  0.2181 -0.7515
 2026TIP3    H127569   3.618   5.404  14.017 -0.0993  0.7571  1.3885
 2026TIP3    H227570   3.739   5.331  13.962 -1.0233  2.3989 -3.2617
 2027TIP3   OH227571   4.390   3.518  10.212  0.2012 -0.0799  0.2137
 2027TIP3    H127572   4.345   3.603  10.210  0.5205  0.0963 -1.9213
 2027TIP3    H227573   4.321   3.454  10.199  0.2959  0.0811 -1.2598
 2028TIP3   OH227574   1.896   4.784  16.631 -0.2556 -0.1650 -0.8423
 2028TIP3    H127575   1.936   4.867  16.604  0.2880  1.2082  3.3157
 2028TIP3    H227576   1.958   4.748  16.695 -2.4400 -1.5753  0.6202
 2029TIP3   OH227577   1.918   4.897   1.524  0.1074 -0.3890 -0.1176
 2029TIP3    H127578   1.964   4.813   1.519 -0.0537 -0.6549  1.9965
 2029TIP3    H227579   1.982   4.960   1.492  2.1074 -0.7486  2.7475
 2030TIP3   OH227580   0.165   0.260  10.599 -0.1353  0.4670  0.0767
 2030TIP3    H127581   0.104   0.292  10.533 -0.9169 -1.7180 -0.3590
 2030TIP3    H227582   0.129   0.175  10.625  1.9764 -0.2618  0.8286
 2031TIP3   OH227583   2.188   1.007   0.732  0.6112  0.2525  0.6774
 2031TIP3    H127584   2.283   1.005   0.719  0.3442  0.4141 -1.6612
 2031TIP3    H227585   2.168   1.100   0.748  0.8366  0.1893  1.3923
 2032TIP3   OH227586   2.715   1.329   1.851 -0.2609 -0.1002 -0.3569
 2032TIP3    H127587   2.766   1.268   1.798 -0.5209 -0.5093 -0.1431
 2032TIP3    H227588   2.701   1.405   1.794 -1.2378 -0.8692 -1.1836
 2033TIP3   OH227589   0.432   6.730   6.280  0.7821 -0.3536  0.0972
 2033TIP3    H127590   0.500   6.734   6.347 -0.3626 -1.6935  1.4135
 2033TIP3    H227591   0.375   6.805   6.299 -0.7404 -1.8965  2.0836
 2034TIP3   OH227592   3.669   1.585  15.709  0.2450 -0.1822  0.2599
 2034TIP3    H127593   3.614   1.522  15.756 -1.1215  1.4914  1.0464
 2034TIP3    H227594   3.737   1.532  15.668 -1.7891 -2.3558 -0.5499
 2035TIP3   OH227595   5.389   5.680  15.363  0.4072  0.8861 -0.2362
 2035TIP3    H127596   5.332   5.756  15.375 -1.9522 -0.9354  0.8418
 2035TIP3    H227597   5.333   5.605  15.378  2.8062 -1.1120 -0.5769
 2036TIP3   OH227598   3.725   0.684   6.373  0.0653 -0.6361 -0.3569
 2036TIP3    H127599   3.649   0.636   6.408 -0.6209  1.3834  1.1215
 2036TIP3    H227600   3.791   0.677   6.441 -0.2891  1.0006  0.2081
 2037TIP3   OH227601   2.468   3.526   2.199 -0.1154 -0.0123 -0.0577
 2037TIP3    H127602   2.385   3.526   2.245 -0.2570  0.1415 -0.3127
 2037TIP3    H227603   2.533   3.548   2.266 -0.2101 -0.6630  0.2579
 2038TIP3   OH227604   5.432   1.726   5.598 -0.2411 -1.0819  0.0301
 2038TIP3    H127605   5.391   1.744   5.682 -0.5308  1.1394 -0.5334
 2038TIP3    H227606   5.359   1.705   5.540 -0.1230 -1.7538  0.1197
 2039TIP3   OH227607   5.953   2.091  12.479  0.1823  0.4756 -0.2678
 2039TIP3    H127608   5.932   2.001  12.456 -1.0886 -0.4478  3.6573
 2039TIP3    H227609   6.046   2.100  12.461  0.4287 -1.7845 -0.4036
 2040TIP3   OH227610   2.563   0.953  11.299 -0.2235  0.1012 -0.5327
 2040TIP3    H127611   2.565   1.048  11.287 -1.9508  0.2408  0.0913
 2040TIP3    H227612   2.527   0.918  11.218 -0.1077  0.0227 -0.5509
 2041TIP3   OH227613   1.079   4.529  13.012  0.0654  0.1635  0.0027
 2041TIP3    H127614   0.988   4.552  13.028  0.3608  1.4521 -0.0241
 2041TIP3    H227615   1.082   4.434  13.018 -1.2645  0.1133  0.0567
 2042TIP3   OH227616   0.672   1.172  16.039 -0.5006 -0.5243 -0.4020
 2042TIP3    H127617   0.753   1.184  15.990  0.6185 -0.8507  1.2728
 2042TIP3    H227618   0.674   1.240  16.105 -0.3190 -2.0296  1.2284
 2043TIP3   OH227619   2.551   0.104  11.426 -0.7436  0.5220 -0.1681
 2043TIP3    H127620   2.593   0.161  11.490  0.2495 -0.5955  0.2211
 2043TIP3    H227621   2.494   0.047  11.478 -0.8258  0.3824 -0.4100
 2044TIP3   OH227622   2.301   5.721  10.395  0.3927  0.2709  0.3543
 2044TIP3    H127623   2.289   5.689  10.305  0.3109  0.2655  0.3673
 2044TIP3    H227624   2.372   5.786  10.388  0.1093  0.5680  0.2165
 2045TIP3   OH227625   1.936   5.584  16.273 -0.2909  0.2632 -0.1307
 2045TIP3    H127626   1.846   5.560  16.250 -0.6753  0.1597  1.3825
 2045TIP3    H227627   1.926   5.643  16.347  0.8122  2.1182 -1.3744
 2046TIP3   OH227628   4.786   5.979   1.075  0.4353 -0.1449  0.0552
 2046TIP3    H127629   4.698   5.992   1.111 -0.1521  1.1992 -1.7198
 2046TIP3    H227630   4.845   6.015   1.141 -0.2596 -1.6149  1.5448
 2047TIP3   OH227631   4.097   6.196  12.530  0.1867  0.0997  0.5515
 2047TIP3    H127632   4.114   6.238  12.446  0.6840 -1.9153 -0.4205
 2047TIP3    H227633   4.026   6.134  12.513 -2.1701  2.0449  2.4891
 2048TIP3   OH227634   0.350   5.376  10.662  0.1476 -0.2400 -0.7586
 2048TIP3    H127635   0.272   5.357  10.714 -0.2161  0.4806 -1.0254
 2048TIP3    H227636   0.400   5.438  10.716 -0.2826  0.5916 -1.2934
 2049TIP3   OH227637   2.750   5.714  14.900  0.1818  0.0941 -0.0143
 2049TIP3    H127638   2.764   5.645  14.965 -2.7363  0.3657  1.0508
 2049TIP3    H227639   2.656   5.734  14.906  0.0771  1.1632 -3.3159
 2050TIP3   OH227640   4.450   1.703  13.113  0.1435  0.1451 -0.1519
 2050TIP3    H127641   4.364   1.661  13.106 -0.1832  0.3978  1.6899
 2050TIP3    H227642   4.505   1.639  13.158  0.1748  0.9306  0.9717
 2051TIP3   OH227643   2.848   3.355  16.497 -0.6592  0.3976  0.2732
 2051TIP3    H127644   2.771   3.317  16.456 -0.8461  1.8796 -0.8201
 2051TIP3    H227645   2.917   3.347  16.431 -0.0560 -0.2012  0.9478
 2052TIP3   OH227646   6.427   3.909   3.771  0.0512  0.2663 -0.4349
 2052TIP3    H127647   6.425   3.814   3.765 -0.7515  0.2894 -0.6455
 2052TIP3    H227648   6.515   3.933   3.743  0.2031 -0.3983 -0.5395
 2053TIP3   OH227649   1.537   2.335   3.884  0.0055 -0.4750 -0.5930
 2053TIP3    H127650   1.481   2.317   3.959  0.0977  0.2951 -0.3321
 2053TIP3    H227651   1.485   2.394   3.829  0.5823  0.3254 -0.3005
 2054TIP3   OH227652   1.738   0.737   5.641 -0.1633 -0.4782 -0.5791
 2054TIP3    H127653   1.757   0.821   5.600  0.0974 -0.0035  0.4731
 2054TIP3    H227654   1.710   0.759   5.730  0.0279 -1.5111 -0.2397
 2055TIP3   OH227655   3.215   2.848   0.039  0.4800 -0.1755  0.2344
 2055TIP3    H127656   3.194   2.905   0.112 -0.4036 -0.2974  0.0860
 2055TIP3    H227657   3.162   2.881  -0.034 -0.0450 -1.1624  0.1469
 2056TIP3   OH227658   3.400   6.005   3.570 -0.1098  0.2548  0.2742
 2056TIP3    H127659   3.336   5.950   3.616 -1.4186  1.8047  0.4213
 2056TIP3    H227660   3.417   5.958   3.489 -2.4417  0.3454 -0.3515
 2057TIP3   OH227661   1.523   2.494   0.886  0.2731 -0.4256 -0.1321
 2057TIP3    H127662   1.444   2.442   0.873  0.4429 -0.8586  0.5028
 2057TIP3    H227663   1.502   2.580   0.849 -0.7381 -0.3282  0.6196
 2058TIP3   OH227664   3.015   2.115   2.665 -0.8527  0.2148 -0.3174
 2058TIP3    H127665   3.006   2.038   2.609 -0.3082  0.9959 -1.5274
 2058TIP3    H227666   2.927   2.153   2.667 -0.8237  0.3192 -0.8639
 2059TIP3   OH227667   6.380   6.700   0.039  0.2867 -0.3275  0.3254
 2059TIP3    H127668   6.327   6.753  -0.021 -0.4197 -1.0095  0.3313
 2059TIP3    H227669   6.317   6.643   0.083  0.9562 -0.7360  0.7760
 2060TIP3   OH227670   4.717   1.482  11.741  0.2589  0.6936  0.2850
 2060TIP3    H127671   4.739   1.575  11.743  0.5030  0.6323  0.5987
 2060TIP3    H227672   4.733   1.452  11.831 -0.5732  0.5195  0.3804
 2061TIP3   OH227673   1.498   5.145   0.737 -0.3413  0.2596 -0.2465
 2061TIP3    H127674   1.484   5.235   0.765  0.4899 -0.3421  2.4259
 2061TIP3    H227675   1.587   5.144   0.701  0.2226  0.2730  1.0839
 2062TIP3   OH227676   1.788   0.638   3.084 -0.3441 -0.4945  0.0648
 2062TIP3    H127677   1.857   0.591   3.130  0.3745 -0.3959 -0.8880
 2062TIP3    H227678   1.711   0.582   3.094  0.0345 -0.9365  0.5708
 2063TIP3   OH227679   1.541   6.778   1.995 -0.1474  0.6069  0.4042
 2063TIP3    H127680   1.602   6.850   1.977 -0.6599  0.7567 -0.7924
 2063TIP3    H227681   1.581   6.702   1.952  0.4895  0.1045  1.8247
 2064TIP3   OH227682   2.820   5.561   2.513 -0.1900 -0.0341  0.1959
 2064TIP3    H127683   2.736   5.575   2.557  0.1206 -0.1091  0.8355
 2064TIP3    H227684   2.862   5.647   2.515 -0.3512  0.0581 -0.3424
 2065TIP3   OH227685   1.949   1.405  13.716  0.2527  0.0535  0.0575
 2065TIP3    H127686   1.970   1.337  13.652 -1.0618 -0.2359 -0.0855
 2065TIP3    H227687   2.025   1.464  13.714  1.1375 -1.0690 -0.2593
 2066TIP3   OH227688   2.791   2.493   1.340 -0.3728  0.0234  0.1754
 2066TIP3    H127689   2.878   2.454   1.333  0.2138  1.0252  1.5121
 2066TIP3    H227690   2.805   2.576   1.385 -2.1099 -0.1084  1.0425
 2067TIP3   OH227691   4.228   6.519   5.248 -0.1142 -0.0368 -0.3114
 2067TIP3    H127692   4.212   6.503   5.341  0.7332  0.4769 -0.0724
 2067TIP3    H227693   4.245   6.432   5.212 -1.2065 -0.3379 -0.1561
 2068TIP3   OH227694   0.837   4.244  12.919  0.3705 -0.1216 -0.3205
 2068TIP3    H127695   0.865   4.248  12.828  0.1366  0.9467 -0.3605
 2068TIP3    H227696   0.765   4.307  12.925 -1.3161 -1.9933  0.0345
 2069TIP3   OH227697   5.283   1.326   2.040 -0.3707 -0.5615 -0.2033
 2069TIP3    H127698   5.209   1.274   2.008  0.1601 -0.5236 -1.5540
 2069TIP3    H227699   5.358   1.293   1.990  0.4428 -0.2636  0.7958
 2070TIP3   OH227700   2.736   1.422  14.636 -0.0507  0.1879  0.3360
 2070TIP3    H127701   2.684   1.462  14.705  0.2375 -1.3727  1.5303
 2070TIP3    H227702   2.826   1.421  14.671  0.1175 -0.5155 -0.0905
 2071TIP3   OH227703   1.455   5.792  13.766  0.4042  0.5979  0.6460
 2071TIP3    H127704   1.432   5.705  13.798  1.2093 -0.0251 -0.4009
 2071TIP3    H227705   1.549   5.789  13.753  0.2296  1.0591 -0.9849
 2072TIP3   OH227706   4.766   4.819   1.243  0.6786  0.3442  0.1177
 2072TIP3    H127707   4.752   4.724   1.253  1.1506  0.3021  0.4114
 2072TIP3    H227708   4.688   4.859   1.282  1.0668  0.1023  1.1749
 2073TIP3   OH227709   0.616   5.299   4.939  0.0751 -0.5957 -0.1677
 2073TIP3    H127710   0.622   5.210   4.973 -0.9599 -0.1300  1.3201
 2073TIP3    H227711   0.651   5.355   5.008  0.8568  0.1565 -1.1437
 2074TIP3   OH227712   5.954   3.397   3.657  0.4303 -0.5415  0.3071
 2074TIP3    H127713   5.993   3.427   3.575  0.5334 -1.9397 -0.1720
 2074TIP3    H227714   6.018   3.421   3.724 -0.1354  1.5834  0.1574
 2075TIP3   OH227715   5.390   0.291   1.560  0.4903 -0.7023  0.4967
 2075TIP3    H127716   5.393   0.306   1.465  1.1936  0.9241  0.7383
 2075TIP3    H227717   5.436   0.208   1.572  1.6358 -0.2462 -0.4845
 2076TIP3   OH227718   1.398   3.179   1.752 -0.2197  0.1946  0.1303
 2076TIP3    H127719   1.381   3.269   1.723  1.3205  0.2296 -0.7413
 2076TIP3    H227720   1.479   3.154   1.708 -0.1480 -1.3233  1.0521
 2077TIP3   OH227721   3.586   6.817   1.326  0.6128 -1.4510  0.1274
 2077TIP3    H127722   3.659   6.783   1.378  0.3262 -0.1205  1.4637
 2077TIP3    H227723   3.546   6.884   1.381 -2.8077 -3.3775  0.2456
 2078TIP3   OH227724   1.305   5.836  16.464 -0.7505  0.0780  0.0211
 2078TIP3    H127725   1.308   5.764  16.528 -0.6955 -0.7207 -0.8618
 2078TIP3    H227726   1.396   5.863  16.454 -0.4807 -1.1388 -1.1749
 2079TIP3   OH227727   0.588   5.503   2.390 -0.5012 -0.1598  0.1933
 2079TIP3    H127728   0.577   5.440   2.319  1.5793  1.2299 -1.4911
 2079TIP3    H227729   0.636   5.456   2.457  0.7949 -0.4796 -0.9271
 2080TIP3   OH227730   6.572   5.966   5.554 -0.0763 -0.8267  0.5360
 2080TIP3    H127731   6.510   6.035   5.534  1.0121 -0.0498 -0.2839
 2080TIP3    H227732   6.530   5.886   5.521 -0.4608 -0.2559 -0.4081
 2081TIP3   OH227733   3.127   2.791   0.901  0.1310 -0.4175  0.2855
 2081TIP3    H127734   3.118   2.720   0.964  4.1165 -1.9619 -0.6291
 2081TIP3    H227735   3.192   2.850   0.940 -1.6513  1.8031  0.1253
 2082TIP3   OH227736   5.480   5.577   6.028 -0.1655 -0.3164 -0.2411
 2082TIP3    H127737   5.542   5.629   5.977  1.5608 -1.6812  0.3554
 2082TIP3    H227738   5.488   5.489   5.993 -1.7845 -0.5484 -0.1140
 2083TIP3   OH227739   0.784   2.931   3.352 -0.4963  0.2612 -0.3132
 2083TIP3    H127740   0.745   2.972   3.275  0.1696 -0.0733 -0.8327
 2083TIP3    H227741   0.769   2.838   3.340  0.5555  0.1178 -0.5792
 2084TIP3   OH227742   2.542   5.526  16.535  0.1857 -0.0188 -0.5476
 2084TIP3    H127743   2.585   5.538  16.619  0.0671 -0.3110 -0.4433
 2084TIP3    H227744   2.613   5.527  16.471  0.1594  1.5391 -0.5847
 2085TIP3   OH227745   3.444   3.652  15.869 -0.3159 -0.1546 -0.0513
 2085TIP3    H127746   3.405   3.736  15.841 -1.8113 -0.9037 -0.3262
 2085TIP3    H227747   3.454   3.661  15.963  1.1687  0.9609 -0.2718
 2086TIP3   OH227748   0.214   5.978  15.215  0.1447  0.6173 -0.1367
 2086TIP3    H127749   0.124   5.993  15.187 -0.1969 -1.2460 -0.1925
 2086TIP3    H227750   0.223   6.028  15.296 -0.6558  1.5016 -0.5735
 2087TIP3   OH227751   3.833   0.361   4.633 -0.4191  0.1333 -0.3242
 2087TIP3    H127752   3.739   0.378   4.629 -0.4408 -0.1146 -0.9628
 2087TIP3    H227753   3.868   0.401   4.554 -0.2548 -1.3889 -1.0586
 2088TIP3   OH227754   4.650   5.173   5.172 -0.0730 -0.0949 -0.5783
 2088TIP3    H127755   4.567   5.150   5.129  0.2370  0.0142 -1.2552
 2088TIP3    H227756   4.716   5.124   5.124  0.1674 -0.9792  0.6099
 2089TIP3   OH227757   4.773   1.236   1.814 -0.1025  0.4979  0.4224
 2089TIP3    H127758   4.691   1.227   1.862 -0.6655  0.0177 -0.5928
 2089TIP3    H227759   4.772   1.164   1.751  1.3959  0.1183  0.8149
 2090TIP3   OH227760   4.998   2.365   6.456  0.1265  0.1260  0.2728
 2090TIP3    H127761   5.001   2.441   6.515  0.8613  0.9969 -0.8542
 2090TIP3    H227762   5.028   2.399   6.372  0.5003 -1.4381 -0.2500
 2091TIP3   OH227763   5.405   2.763  12.890  0.2076  0.3372  0.2408
 2091TIP3    H127764   5.480   2.811  12.855 -0.4812  1.3017  0.0467
 2091TIP3    H227765   5.428   2.746  12.982  1.4009 -0.9463 -0.2537
 2092TIP3   OH227766   1.813   2.683  12.199  0.3925 -0.6348 -0.3277
 2092TIP3    H127767   1.727   2.643  12.184 -1.0144  1.6630  1.0270
 2092TIP3    H227768   1.866   2.612  12.236 -1.4313 -1.6855  0.4281
 2093TIP3   OH227769   2.838   5.694  13.537  0.0845  0.9178  0.2822
 2093TIP3    H127770   2.784   5.763  13.498 -0.8646  0.0807  0.0741
 2093TIP3    H227771   2.777   5.623  13.556  1.2695 -0.5945 -1.1555
 2094TIP3   OH227772   3.863   4.257  14.163 -0.1412  0.0915 -0.1163
 2094TIP3    H127773   3.808   4.182  14.182  0.3390 -0.2384 -0.0067
 2094TIP3    H227774   3.952   4.222  14.164  0.1469  0.8088  0.7273
 2095TIP3   OH227775   6.174   5.871  11.525  0.4601 -0.0458  0.4710
 2095TIP3    H127776   6.096   5.819  11.545  0.3486  1.1402  3.6304
 2095TIP3    H227777   6.151   5.919  11.445 -1.7199 -0.3453  0.8673
 2096TIP3   OH227778   6.276   3.009  14.815  0.0263  0.4970  0.4685
 2096TIP3    H127779   6.196   2.983  14.769 -0.2975  1.4951  0.4602
 2096TIP3    H227780   6.328   2.928  14.818 -1.2028 -0.3156  0.9681
 2097TIP3   OH227781   3.850   5.553   2.361  0.6300 -0.4814 -0.2906
 2097TIP3    H127782   3.814   5.476   2.317 -2.4396  1.9082 -2.4388
 2097TIP3    H227783   3.870   5.615   2.290  2.6870  0.8783  1.3409
 2098TIP3   OH227784   5.874   6.461   0.426 -0.6058  0.1504 -0.2298
 2098TIP3    H127785   5.852   6.553   0.443  2.1181  0.9164 -0.3913
 2098TIP3    H227786   5.969   6.458   0.433 -0.6056 -2.6359 -0.5231
 2099TIP3   OH227787   2.483   1.376  16.678 -0.0302 -0.7451  0.0757
 2099TIP3    H127788   2.568   1.332  16.670 -0.5465 -1.6474 -0.7474
 2099TIP3    H227789   2.451   1.353  16.765 -0.3794 -2.2132 -0.4160
 2100TIP3   OH227790   2.399   0.519  13.336 -0.1835 -0.2527 -0.1450
 2100TIP3    H127791   2.367   0.598  13.378 -1.7127 -1.3227  0.7992
 2100TIP3    H227792   2.362   0.522  13.247 -0.1545  0.1308 -0.1464
 2101TIP3   OH227793   0.975   5.484  11.728  0.0019  0.0044  0.3827
 2101TIP3    H127794   0.990   5.561  11.782 -1.4640  0.5351  0.0830
 2101TIP3    H227795   1.053   5.479  11.672 -0.6768  2.4449 -0.9459
 2102TIP3   OH227796   3.209   4.464   4.256 -0.2146  0.1137  0.1884
 2102TIP3    H127797   3.230   4.550   4.220 -4.2210  0.4505 -1.8460
 2102TIP3    H227798   3.171   4.482   4.342  0.4041  0.1756  0.4575
 2103TIP3   OH227799   4.602   2.865   4.439  0.0513 -0.3084  0.0126
 2103TIP3    H127800   4.617   2.957   4.416 -1.7462  0.2475  0.8283
 2103TIP3    H227801   4.570   2.825   4.358 -2.2831  0.6315  0.3845
 2104TIP3   OH227802   6.156   3.993   0.771  0.3634  0.2828  0.0539
 2104TIP3    H127803   6.245   3.967   0.792  0.3361 -0.3009 -0.5537
 2104TIP3    H227804   6.112   3.912   0.747  0.1112  0.7974 -1.2687
 2105TIP3   OH227805   5.050   5.623   3.598 -0.6598  0.5300 -0.3840
 2105TIP3    H127806   4.998   5.553   3.558 -0.4897  0.0140  0.2798
 2105TIP3    H227807   5.135   5.582   3.616 -0.8938  0.5879  0.9534
 2106TIP3   OH227808   4.638   2.700  14.885 -0.1391 -0.6359  0.4493
 2106TIP3    H127809   4.657   2.607  14.896  1.2080 -0.1782  2.3816
 2106TIP3    H227810   4.544   2.703  14.868 -0.4034 -2.2801  1.4196
 2107TIP3   OH227811   4.746   4.831   6.336 -0.0583 -0.9038 -0.3181
 2107TIP3    H127812   4.688   4.907   6.333 -1.3845 -1.9065 -0.7940
 2107TIP3    H227813   4.711   4.771   6.270  2.7769 -0.7070 -2.2171
 2108TIP3   OH227814   2.043   2.476  15.131 -0.1635  0.2818  0.7369
 2108TIP3    H127815   2.029   2.549  15.070 -0.4388 -0.3568  0.0230
 2108TIP3    H227816   2.101   2.416  15.085  1.5777  0.8810  2.0324
 2109TIP3   OH227817   1.987   2.213  11.929 -0.5810  0.1400 -0.4545
 2109TIP3    H127818   2.037   2.295  11.927 -0.2520  0.0654  1.9246
 2109TIP3    H227819   2.030   2.157  11.864  1.4870  0.6257  0.4062
 2110TIP3   OH227820   6.636   1.628   2.536 -0.5394  0.3009 -0.3385
 2110TIP3    H127821   6.642   1.539   2.571 -1.6342  0.0975 -0.6456
 2110TIP3    H227822   6.721   1.643   2.496 -0.1965 -0.4515  0.0815
 2111TIP3   OH227823   4.084   0.131   3.543 -0.7072 -0.0856 -0.3806
 2111TIP3    H127824   4.027   0.090   3.609 -1.6578  2.4547  0.5065
 2111TIP3    H227825   4.075   0.075   3.466 -1.0863 -2.0753  1.0226
 2112TIP3   OH227826   0.044   1.390  15.013 -0.5123 -0.2012 -0.0290
 2112TIP3    H127827  -0.035   1.353  14.975 -1.4435  3.2981 -1.8975
 2112TIP3    H227828   0.099   1.410  14.938  0.5738  0.7672  0.9899
 2113TIP3   OH227829   6.633   6.725  13.749 -0.1955  0.0694  0.1449
 2113TIP3    H127830   6.649   6.756  13.660  0.8307  3.7988  1.4653
 2113TIP3    H227831   6.717   6.737  13.794 -0.7117 -1.6870  1.6976
 2114TIP3   OH227832   4.190   3.834  16.900  0.4770 -0.9112 -0.3460
 2114TIP3    H127833   4.242   3.799  16.972 -3.3683 -1.1316  2.6499
 2114TIP3    H227834   4.122   3.768  16.885  0.0372  0.0032 -2.9541
 2115TIP3   OH227835   4.354   6.275  12.782  0.3256 -0.5596 -0.2234
 2115TIP3    H127836   4.276   6.221  12.792 -1.4466  1.7183 -0.8259
 2115TIP3    H227837   4.347   6.311  12.693  2.3340 -0.6318 -0.4702
 2116TIP3   OH227838   0.518   2.254  15.785  0.2688 -0.4756 -0.6336
 2116TIP3    H127839   0.500   2.195  15.858  0.0352 -0.1091 -0.3955
 2116TIP3    H227840   0.600   2.297  15.809 -1.6740  2.5231  1.3058
 2117TIP3   OH227841   6.695   5.994   3.083  0.2220  0.1130 -0.3418
 2117TIP3    H127842   6.621   6.032   3.036  0.1724  0.2520 -0.1552
 2117TIP3    H227843   6.771   6.045   3.055 -0.3235  2.9894  2.7245
 2118TIP3   OH227844   0.922   5.565   3.129  0.1661 -0.1852  0.4100
 2118TIP3    H127845   0.864   5.526   3.195  0.0409  1.5725  1.4039
 2118TIP3    H227846   0.863   5.588   3.057 -0.2214  0.6716  0.9884
 2119TIP3   OH227847   3.895   4.960   1.842 -0.1509 -0.0985  0.1563
 2119TIP3    H127848   3.876   5.054   1.845  1.4854  0.2237  1.0467
 2119TIP3    H227849   3.874   4.935   1.751  1.0591  1.5125 -0.6199
 2120TIP3   OH227850   6.108   6.027   0.831 -0.3490  0.1800  0.6688
 2120TIP3    H127851   6.156   5.981   0.899 -1.5201 -1.0971  0.6818
 2120TIP3    H227852   6.075   6.106   0.873  0.8663  0.5725  0.9210
 2121TIP3   OH227853   0.723   0.235   3.728  0.2302 -0.3750 -0.3627
 2121TIP3    H127854   0.687   0.323   3.719 -2.6371 -1.2901  0.9784
 2121TIP3    H227855   0.765   0.235   3.814  0.1528 -0.3460 -0.3250
 2122TIP3   OH227856   2.859   3.350  13.097  0.3656 -0.3858  0.0262
 2122TIP3    H127857   2.900   3.271  13.131  0.1561 -1.2923 -1.7366
 2122TIP3    H227858   2.837   3.401  13.175  2.7897 -0.8777  1.1075
 2123TIP3   OH227859   1.930   0.664  13.016 -0.1799 -0.6419  0.1917
 2123TIP3    H127860   1.870   0.590  13.004 -1.1334  0.1386 -0.0579
 2123TIP3    H227861   1.937   0.703  12.928 -0.1472 -0.1023  0.4323
 2124TIP3   OH227862   3.735   1.375  11.422  0.6381  0.2714 -0.0662
 2124TIP3    H127863   3.715   1.454  11.471  1.2241 -0.1494  0.8768
 2124TIP3    H227864   3.691   1.387  11.338  0.2612  1.3452  0.2706
 2125TIP3   OH227865   6.136   3.738   3.769  0.4996  0.3790  0.0997
 2125TIP3    H127866   6.079   3.794   3.716  0.4955  1.6968  1.4359
 2125TIP3    H227867   6.147   3.785   3.852  1.3891 -1.0985  0.8780
 2126TIP3   OH227868   3.546   4.168   2.783  0.1396 -0.2719  0.3977
 2126TIP3    H127869   3.632   4.208   2.799  1.0859 -2.3441  0.8985
 2126TIP3    H227870   3.566   4.090   2.731 -1.1517 -1.9836  2.3170
 2127TIP3   OH227871   5.867   3.680   4.446 -0.2026  0.0838  0.0303
 2127TIP3    H127872   5.835   3.695   4.535 -2.1850  0.3541 -0.6878
 2127TIP3    H227873   5.826   3.748   4.393  1.3707  0.2556 -1.0241
 2128TIP3   OH227874   2.545   6.602   1.453  1.0390  0.0262  0.3496
 2128TIP3    H127875   2.591   6.551   1.386  0.3412 -0.9906  0.6052
 2128TIP3    H227876   2.456   6.565   1.454  0.2615  1.8171 -0.0112
 2129TIP3   OH227877   4.091   2.896  16.919 -0.1333  0.3835 -0.5752
 2129TIP3    H127878   4.104   2.897  16.824 -1.5747  0.2248 -0.7964
 2129TIP3    H227879   4.014   2.951  16.933  1.3905  2.3253  0.7598
 2130TIP3   OH227880   5.105   1.793   5.490 -0.1815 -0.8413 -0.3572
 2130TIP3    H127881   5.021   1.748   5.500  0.6874 -2.1079  2.4850
 2130TIP3    H227882   5.148   1.783   5.576  2.7387  0.0158 -1.5772
 2131TIP3   OH227883   6.158   0.677   5.767  0.5895 -1.1725  0.0878
 2131TIP3    H127884   6.108   0.713   5.840 -0.5887 -1.2763 -0.6220
 2131TIP3    H227885   6.231   0.737   5.755 -0.8189  0.5519 -0.4918
 2132TIP3   OH227886   5.908   2.861  12.786  0.6051 -0.4501 -0.2712
 2132TIP3    H127887   5.895   2.768  12.767  0.1399 -0.0707 -2.0529
 2132TIP3    H227888   5.997   2.880  12.757  0.6463 -0.3106 -0.0554
 2133TIP3   OH227889   4.423   4.074  12.987 -0.3668 -0.1980 -0.2986
 2133TIP3    H127890   4.366   4.106  13.057 -1.3452  0.4224 -1.3434
 2133TIP3    H227891   4.363   4.030  12.926  0.4738 -0.7840 -0.7235
 2134TIP3   OH227892   4.175   5.300  13.261 -0.0494  0.1142 -0.5014
 2134TIP3    H127893   4.132   5.219  13.291  0.9015 -0.2171  0.0098
 2134TIP3    H227894   4.135   5.369  13.315  1.2636 -0.4105  1.2368
 2135TIP3   OH227895   6.485   1.391   2.127 -0.1725  0.1937 -0.0820
 2135TIP3    H127896   6.452   1.445   2.199  1.1189  0.6655  0.1792
 2135TIP3    H227897   6.420   1.402   2.057 -1.7087 -0.6546  1.1361
 2136TIP3   OH227898   2.484   3.800   1.754 -0.2864 -0.1583 -0.0275
 2136TIP3    H127899   2.415   3.858   1.786 -0.7105 -0.5988 -0.1472
 2136TIP3    H227900   2.565   3.845   1.778 -0.6099  0.6794 -0.4624
 2137TIP3   OH227901   1.762   4.837  14.114 -0.1101 -0.3106  0.1212
 2137TIP3    H127902   1.701   4.763  14.124 -0.2130 -0.1862  0.4106
 2137TIP3    H227903   1.843   4.807  14.156  0.2521 -0.7341 -0.8444
 2138TIP3   OH227904   5.212   1.697   0.151 -0.3671  0.2219  0.4281
 2138TIP3    H127905   5.226   1.696   0.246  2.2735  0.4791  0.1074
 2138TIP3    H227906   5.201   1.789   0.129 -0.3107  0.2225  0.4029
 2139TIP3   OH227907   4.980   6.395  11.298  0.5780 -0.5975 -0.1849
 2139TIP3    H127908   4.926   6.350  11.233  0.3901  0.0753 -0.5111
 2139TIP3    H227909   4.917   6.450  11.347  0.8769 -0.2719 -0.1620
 2140TIP3   OH227910   6.536   2.429   5.249  0.1654  0.5116  0.1137
 2140TIP3    H127911   6.530   2.362   5.181  0.4538 -0.1491  0.7263
 2140TIP3    H227912   6.461   2.412   5.306  0.7227  0.1496  0.7553
 2141TIP3   OH227913   0.880   2.503  12.172 -0.5241  1.3222  0.1089
 2141TIP3    H127914   0.931   2.521  12.093 -0.3620  1.9469  0.3561
 2141TIP3    H227915   0.900   2.411  12.192  1.3607  1.8430  0.8072
 2142TIP3   OH227916   3.481   5.816   2.254 -0.9756  0.0829  0.7468
 2142TIP3    H127917   3.478   5.875   2.330 -1.8604  1.0001  0.0233
 2142TIP3    H227918   3.574   5.797   2.242 -0.8432 -0.4100  2.3013
 2143TIP3   OH227919   0.867   3.617  13.103  0.2836 -0.3345  0.1788
 2143TIP3    H127920   0.873   3.522  13.092 -1.8668 -0.5117  0.2829
 2143TIP3    H227921   0.774   3.637  13.097  0.7818  1.9761 -1.4363
 2144TIP3   OH227922   5.313   6.202  14.041 -0.2625  0.0942 -1.1133
 2144TIP3    H127923   5.331   6.108  14.032 -1.4228 -0.5942  2.2539
 2144TIP3    H227924   5.331   6.220  14.133 -5.3391  1.8515 -0.1546
 2145TIP3   OH227925   1.310   0.337   6.745  0.1996 -0.1746  0.1177
 2145TIP3    H127926   1.389   0.283   6.747  0.4790  0.2392  1.6935
 2145TIP3    H227927   1.252   0.298   6.810 -1.8288 -1.7116 -2.4201
 2146TIP3   OH227928   4.652   3.122  12.643 -0.0397  0.3017 -0.0393
 2146TIP3    H127929   4.746   3.138  12.637 -0.1414  0.4463 -1.8844
 2146TIP3    H227930   4.613   3.192  12.590 -1.1660  0.1258  0.5476
 2147TIP3   OH227931   0.374   0.682  11.478  0.0585  0.7853  0.6226
 2147TIP3    H127932   0.423   0.763  11.492  3.6852 -0.6655 -2.1388
 2147TIP3    H227933   0.426   0.615  11.523 -1.2307 -0.4569  0.3356
 2148TIP3   OH227934   3.148   6.743   0.323  0.0099 -0.0901 -0.0506
 2148TIP3    H127935   3.179   6.678   0.385 -1.2790 -1.3747 -0.6994
 2148TIP3    H227936   3.057   6.760   0.350 -0.3922 -0.2571 -1.2279
 2149TIP3   OH227937   3.623   3.837  10.577  0.1942  0.3489  0.7847
 2149TIP3    H127938   3.583   3.873  10.498 -0.9423 -1.2458  0.5770
 2149TIP3    H227939   3.714   3.866  10.574  0.4964 -0.6003 -1.7417
 2150TIP3   OH227940   1.810   2.868  14.513  0.0385  0.7401  0.5280
 2150TIP3    H127941   1.849   2.791  14.472 -1.5760 -0.6059  1.4063
 2150TIP3    H227942   1.849   2.871  14.600 -0.2462  0.6335  0.6598
 2151TIP3   OH227943   3.686   2.259   4.552 -0.3310 -0.1898  0.3970
 2151TIP3    H127944   3.777   2.266   4.581 -0.2857 -1.0828  0.4819
 2151TIP3    H227945   3.650   2.347   4.566  1.2868  1.0391 -2.2522
 2152TIP3   OH227946   1.800   3.000   0.855  0.0160 -0.1544  0.2326
 2152TIP3    H127947   1.873   2.944   0.881 -0.1596 -1.4879 -1.9097
 2152TIP3    H227948   1.823   3.029   0.767 -2.4175 -1.4127 -0.9039
 2153TIP3   OH227949   4.356   1.321   5.513  0.0218  0.4874  0.0568
 2153TIP3    H127950   4.276   1.285   5.474  0.0604  0.0087  0.4186
 2153TIP3    H227951   4.324   1.388   5.574 -0.2389 -0.9982  1.6352
 2154TIP3   OH227952   3.936   1.112  15.741  0.1060 -0.8687  0.6924
 2154TIP3    H127953   3.922   1.186  15.801  0.6464 -0.9427  0.9157
 2154TIP3    H227954   3.850   1.070  15.735 -0.9869  1.4375 -1.7229
 2155TIP3   OH227955   1.521   5.666   4.564  0.3683 -0.0571 -0.2057
 2155TIP3    H127956   1.537   5.578   4.530  1.8417  0.9513 -2.3327
 2155TIP3    H227957   1.439   5.693   4.523  1.1039  0.3827 -1.4594
 2156TIP3   OH227958   3.851   5.823   4.978 -0.2757 -0.2136 -0.6646
 2156TIP3    H127959   3.848   5.750   5.040  1.7457 -1.6088 -2.0880
 2156TIP3    H227960   3.762   5.827   4.942 -0.5171 -1.8170 -0.3366
 2157TIP3   OH227961   1.740   1.545  13.802  0.4096  0.8274 -0.1591
 2157TIP3    H127962   1.814   1.491  13.773  0.1429  0.3774 -0.0228
 2157TIP3    H227963   1.778   1.609  13.862  0.5986  0.1783  0.4339
 2158TIP3   OH227964   4.198   0.425   2.906 -0.3137  0.6632 -0.7709
 2158TIP3    H127965   4.193   0.486   2.832 -0.6869  0.8041 -0.6322
 2158TIP3    H227966   4.111   0.430   2.946 -0.1646  0.4597 -0.4272
 2159TIP3   OH227967   3.849   6.346   1.719 -0.3659 -0.0415  0.8485
 2159TIP3    H127968   3.902   6.424   1.735 -0.7682  0.4443 -0.1192
 2159TIP3    H227969   3.912   6.280   1.689 -0.1534  0.1934  0.7797
 2160TIP3   OH227970   5.911   2.026  11.525  0.1690 -0.1296  0.3053
 2160TIP3    H127971   5.837   2.025  11.586 -0.1543 -0.1177 -0.0839
 2160TIP3    H227972   5.989   2.034  11.581 -0.1513  0.3220  0.6877
 2161TIP3   OH227973   0.188   0.301  11.673 -0.3504  0.2343  0.2892
 2161TIP3    H127974   0.163   0.218  11.633  2.1857  0.1384 -1.3101
 2161TIP3    H227975   0.195   0.282  11.767 -0.2392 -1.2590 -0.0008
 2162TIP3   OH227976   2.463   2.629  16.159  0.0307  0.0674 -0.2390
 2162TIP3    H127977   2.504   2.712  16.132  0.2975  0.0182  0.0077
 2162TIP3    H227978   2.372   2.636  16.129 -0.5085  1.2943  1.4913
 2163TIP3   OH227979   4.385   5.236   4.714 -0.5401  0.6133 -0.5687
 2163TIP3    H127980   4.448   5.177   4.672 -1.7009 -0.2108 -1.2147
 2163TIP3    H227981   4.304   5.223   4.665 -1.9739 -0.3942  1.8967
 2164TIP3   OH227982   4.802   6.477  14.902  1.1147 -0.1809 -0.6949
 2164TIP3    H127983   4.733   6.540  14.880  1.6571  0.4193 -0.7024
 2164TIP3    H227984   4.849   6.518  14.974  0.8777 -1.0259 -0.0478
 2165TIP3   OH227985   5.632   2.144   1.778 -0.4730 -0.4413  0.0814
 2165TIP3    H127986   5.558   2.084   1.771  1.3904 -2.7220 -2.6465
 2165TIP3    H227987   5.610   2.216   1.720 -0.4900 -1.2399 -0.9288
 2166TIP3   OH227988   3.858   3.947   2.324 -0.4815  0.2036  0.3105
 2166TIP3    H127989   3.789   3.903   2.374 -0.8357  0.6353  0.2131
 2166TIP3    H227990   3.816   4.027   2.291  0.1046  0.5403  0.3667
 2167TIP3   OH227991   2.764   2.281  15.519 -0.2962  0.1466  0.3329
 2167TIP3    H127992   2.731   2.361  15.560  0.4595  0.3058  0.6466
 2167TIP3    H227993   2.729   2.283  15.430  0.2044  1.1234  0.1549
 2168TIP3   OH227994   1.584   0.290   3.801  0.1229 -0.0128 -0.3821
 2168TIP3    H127995   1.544   0.220   3.749 -2.5432 -0.0262  1.4949
 2168TIP3    H227996   1.624   0.245   3.875 -1.9980  0.3446  1.0782
 2169TIP3   OH227997   6.755   3.889   6.166  0.0316  0.1087  0.1602
 2169TIP3    H127998   6.753   3.975   6.207 -0.5166 -0.4855  1.4195
 2169TIP3    H227999   6.703   3.833   6.224 -0.1390 -0.9364 -0.9564
 2170TIP3   OH228000   0.137   5.600   0.469  0.3398  0.0481 -0.8364
 2170TIP3    H128001   0.079   5.536   0.428 -2.0653  0.8800  0.9786
 2170TIP3    H228002   0.172   5.651   0.396  0.1761 -1.5905 -2.1258
 2171TIP3   OH228003   2.060   4.350  13.033 -0.2229 -0.4773  0.1437
 2171TIP3    H128004   2.109   4.365  12.952 -1.7885  0.2135 -0.7309
 2171TIP3    H228005   1.968   4.350  13.005 -0.8609  0.6845  2.0468
 2172TIP3   OH228006   1.748   6.672   4.577  0.1367  0.0447  0.3084
 2172TIP3    H128007   1.695   6.709   4.647 -0.1636 -0.9066  0.5913
 2172TIP3    H228008   1.704   6.591   4.553  0.8114 -0.1659 -0.2691
 2173TIP3   OH228009   2.066   0.916  14.657  0.2995 -0.1345 -1.4745
 2173TIP3    H128010   2.160   0.927  14.673  0.3029 -1.5969 -0.3731
 2173TIP3    H228011   2.060   0.902  14.563  1.1587  0.2475 -1.5986
 2174TIP3   OH228012   3.723   0.596   3.684  0.0782 -0.3216 -0.5246
 2174TIP3    H128013   3.637   0.593   3.644 -0.7619 -0.4917  1.1845
 2174TIP3    H228014   3.715   0.662   3.753  1.1896 -0.6225 -0.0834
 2175TIP3   OH228015   4.733   5.324  13.113  0.6068 -0.4120 -0.4101
 2175TIP3    H128016   4.661   5.386  13.127  2.2913  1.3863  0.7715
 2175TIP3    H228017   4.717   5.289  13.025 -2.2624 -0.9066  0.2030
 2176TIP3   OH228018   0.354   5.781   1.698 -0.5616 -0.1590 -0.7435
 2176TIP3    H128019   0.278   5.832   1.671 -1.5670 -2.0298 -1.6803
 2176TIP3    H228020   0.330   5.690   1.677  1.0769 -1.0474  0.9120
 2177TIP3   OH228021   3.569   3.851   1.285 -0.0380 -0.6007  0.0288
 2177TIP3    H128022   3.477   3.853   1.312  0.3234  1.7650  1.3301
 2177TIP3    H228023   3.579   3.766   1.242 -2.6636 -1.1858  0.3876
 2178TIP3   OH228024   3.895   2.382  11.954 -0.3923 -0.1721  0.0143
 2178TIP3    H128025   3.959   2.327  12.000  2.1526  0.2280 -2.7525
 2178TIP3    H228026   3.814   2.332  11.959  0.1515 -1.0100  3.1557
 2179TIP3   OH228027   4.399   1.883  13.412 -0.2135 -0.3513  0.3174
 2179TIP3    H128028   4.440   1.800  13.389  0.7422  0.4116 -0.8161
 2179TIP3    H228029   4.400   1.935  13.332 -2.6946  0.0270  0.4295
 2180TIP3   OH228030   3.227   4.255   4.565  0.1237 -0.3195 -0.2442
 2180TIP3    H128031   3.132   4.259   4.555  0.0203 -0.8663  0.4061
 2180TIP3    H228032   3.243   4.277   4.657  0.6809  0.3964 -0.5008
 2181TIP3   OH228033   0.086   3.633  12.087 -0.5177 -0.6261  0.1477
 2181TIP3    H128034   0.089   3.539  12.068 -0.2884 -1.1108  2.3955
 2181TIP3    H228035   0.141   3.672  12.019  0.1099 -2.1981 -0.2958
 2182TIP3   OH228036   1.275   2.816  15.672  0.0062 -0.5901  0.1584
 2182TIP3    H128037   1.312   2.902  15.650 -1.5504  0.2746  0.7164
 2182TIP3    H228038   1.255   2.776  15.587  0.8334 -0.4628 -0.1059
 2183TIP3   OH228039   3.909   4.380   0.858 -0.1198  0.0524 -0.7006
 2183TIP3    H128040   3.936   4.472   0.864 -1.0231  0.3019 -0.1785
 2183TIP3    H228041   3.815   4.384   0.840 -0.2264 -0.7623 -0.3669
 2184TIP3   OH228042   6.335   0.920   2.633  0.0318 -0.1527  0.1129
 2184TIP3    H128043   6.315   0.832   2.601  0.3008 -0.4694  0.8009
 2184TIP3    H228044   6.376   0.906   2.718 -3.9575  0.7667  2.4322
 2185TIP3   OH228045   3.913   3.026  12.858 -0.4861 -0.0604 -0.8171
 2185TIP3    H128046   3.945   2.972  12.787 -1.9051 -0.3150 -1.2999
 2185TIP3    H228047   3.992   3.057  12.903  0.3904 -0.8573 -1.7695
 2186TIP3   OH228048   5.198   0.996   4.836  0.3168  0.5198  0.4952
 2186TIP3    H128049   5.173   0.951   4.917 -1.8318  0.6939 -0.0030
 2186TIP3    H228050   5.292   1.010   4.845  0.5448 -1.3944  1.9888
 2187TIP3   OH228051   3.586   5.637   3.897  0.7610 -0.4886 -0.6967
 2187TIP3    H128052   3.628   5.597   3.973 -0.8380 -2.3088 -0.6731
 2187TIP3    H228053   3.551   5.720   3.929  3.4860  0.6832 -0.5277
 2188TIP3   OH228054   0.023   3.361   0.144  0.0363 -0.1303  0.2080
 2188TIP3    H128055  -0.010   3.274   0.122  0.6734 -0.6102  1.0661
 2188TIP3    H228056  -0.031   3.421   0.093 -0.9986 -0.9776  0.2710
 2189TIP3   OH228057   3.354   1.993  17.156 -0.6669 -0.6396 -0.3110
 2189TIP3    H128058   3.448   1.976  17.169 -0.3478  0.9087 -0.4141
 2189TIP3    H228059   3.327   2.039  17.236 -1.1291 -0.2989 -0.6575
 2190TIP3   OH228060   1.039   5.912  15.553 -0.2854 -0.0352  0.2554
 2190TIP3    H128061   0.969   5.977  15.543  1.2557  1.5866 -0.6977
 2190TIP3    H228062   1.058   5.911  15.647 -2.5905 -1.7040  0.7848
 2191TIP3   OH228063   1.165   3.674   3.667  0.0476 -0.0756 -0.2146
 2191TIP3    H128064   1.183   3.765   3.643  0.2223  0.2459  1.0324
 2191TIP3    H228065   1.154   3.677   3.762  0.0070 -1.3584 -0.1669
 2192TIP3   OH228066   1.564   3.802   4.257  1.0425  0.2435  0.5969
 2192TIP3    H128067   1.493   3.865   4.270 -2.0919 -2.4392 -1.9402
 2192TIP3    H228068   1.564   3.750   4.337  0.1010  0.2225  0.5878
 2193TIP3   OH228069   6.044   1.845  16.260 -0.1098 -0.7623 -0.1103
 2193TIP3    H128070   6.090   1.908  16.315 -0.7906 -1.0345  0.7838
 2193TIP3    H228071   6.104   1.771  16.253  0.5515 -0.1666 -0.8885
 2194TIP3   OH228072   6.058   1.938  12.983 -0.5226  0.3940  0.3438
 2194TIP3    H128073   5.967   1.950  12.956 -0.1975 -0.4500 -1.2873
 2194TIP3    H228074   6.092   2.027  12.991 -1.2255  0.7064 -0.0361
 2195TIP3   OH228075   3.614   5.987  12.443 -0.0890 -0.3108 -0.2333
 2195TIP3    H128076   3.581   5.898  12.459  0.5975 -0.6326 -0.5828
 2195TIP3    H228077   3.595   6.034  12.524 -1.1516 -0.5596 -0.3244
 2196TIP3   OH228078   5.927   2.481   5.178 -0.3211  0.0261  0.2784
 2196TIP3    H128079   5.977   2.528   5.245 -0.4290  1.1002 -0.3723
 2196TIP3    H228080   5.840   2.519   5.182 -0.7143 -0.8692  0.4552
 2197TIP3   OH228081   1.490   5.743   1.534  0.0755 -0.0337  0.1918
 2197TIP3    H128082   1.528   5.656   1.547 -0.9012 -0.6655 -1.0052
 2197TIP3    H228083   1.396   5.729   1.537 -0.1182  0.7454 -1.2397
 2198TIP3   OH228084   3.071   0.168   1.152 -0.3808 -0.2259 -0.1311
 2198TIP3    H128085   3.167   0.175   1.158 -0.2514 -1.4719 -0.3800
 2198TIP3    H228086   3.054   0.075   1.162 -1.5698 -0.0279 -0.2321
 2199TIP3   OH228087   2.322   1.307   2.112  0.1094 -0.3634  0.0225
 2199TIP3    H128088   2.369   1.389   2.125  0.0029 -0.5000  1.4199
 2199TIP3    H228089   2.296   1.280   2.200  0.7088 -2.2470 -0.3436
 2200TIP3   OH228090   5.494   2.318  10.972  0.6157 -1.3810  0.3692
 2200TIP3    H128091   5.588   2.318  10.988  0.5611 -1.1436  0.6847
 2200TIP3    H228092   5.485   2.357  10.885  0.8154 -1.5080  0.2899
 2201TIP3   OH228093   4.550   0.873   1.322 -0.0630  0.4228 -0.1796
 2201TIP3    H128094   4.636   0.830   1.328  0.0986  0.6225 -0.9779
 2201TIP3    H228095   4.542   0.898   1.230  0.0326  2.4787  0.3096
 2202TIP3   OH228096   5.167   2.182   0.789  0.2110 -0.0820 -0.4110
 2202TIP3    H128097   5.227   2.124   0.743  1.2388  0.5743  0.0670
 2202TIP3    H228098   5.171   2.264   0.740  1.7228  0.8033  1.0825
 2203TIP3   OH228099   2.691   0.487   1.536 -0.1716  0.0542 -0.3028
 2203TIP3    H128100   2.746   0.553   1.494  0.3739 -1.2830 -1.7866
 2203TIP3    H228101   2.608   0.491   1.489 -0.3494  0.0759  0.0079
 2204TIP3   OH228102   5.504   4.817  13.618  0.4704  0.0582 -0.3706
 2204TIP3    H128103   5.504   4.753  13.547  0.0058  0.6647 -0.9224
 2204TIP3    H228104   5.583   4.870  13.603  0.6674 -0.1626 -0.1156
 2205TIP3   OH228105   5.375   2.641   5.938  0.5438 -0.0874 -0.0615
 2205TIP3    H128106   5.438   2.581   5.976 -0.2401 -0.6275  0.4070
 2205TIP3    H228107   5.325   2.675   6.012 -1.7054 -1.9553 -0.6066
 2206TIP3   OH228108   2.740   6.594   5.769 -0.6498 -0.6012 -0.3199
 2206TIP3    H128109   2.779   6.682   5.763  0.5045 -1.1012 -0.3109
 2206TIP3    H228110   2.726   6.568   5.678  0.7923 -1.1695 -0.3994
 2207TIP3   OH228111   0.523   3.870  12.072 -0.3818 -0.2624  0.5421
 2207TIP3    H128112   0.472   3.946  12.100 -2.3901 -1.0572 -0.6985
 2207TIP3    H228113   0.472   3.795  12.102  1.1766 -1.1611  1.0762
 2208TIP3   OH228114   2.035   4.060  11.208 -0.1239 -0.1981  0.1381
 2208TIP3    H128115   2.030   4.100  11.295  2.2345  1.8329 -0.5429
 2208TIP3    H228116   2.107   3.997  11.215  0.5928  0.5191 -0.4709
 2209TIP3   OH228117   6.191   1.242  10.701  0.1988  0.3507 -0.1072
 2209TIP3    H128118   6.121   1.250  10.767  1.0387  0.1810  0.8332
 2209TIP3    H228119   6.206   1.148  10.693  0.6724  0.4078  0.0847
 2210TIP3   OH228120   5.342   2.924  12.532  0.6586 -0.4739 -0.1783
 2210TIP3    H128121   5.356   2.836  12.567  1.1454 -0.7499 -1.0535
 2210TIP3    H228122   5.302   2.910  12.446  1.7315  0.1126 -0.7947
 2211TIP3   OH228123   5.605   4.102   3.979  0.4216  0.6331  0.1472
 2211TIP3    H128124   5.596   4.155   3.900 -0.2486  0.6888  0.2508
 2211TIP3    H228125   5.652   4.157   4.041  0.3638  0.8350  0.0093
 2212TIP3   OH228126   1.587   1.298   2.620 -0.2316  0.8863 -0.2068
 2212TIP3    H128127   1.662   1.357   2.613  0.1254  0.3280 -1.2133
 2212TIP3    H228128   1.557   1.286   2.530 -2.3695  2.1462  0.2458
 2213TIP3   OH228129   4.698   4.130   3.071 -0.4345 -0.4207  0.2367
 2213TIP3    H128130   4.773   4.108   3.127  0.0140 -1.0984 -0.6092
 2213TIP3    H228131   4.723   4.212   3.028  0.7651 -1.6760 -1.6205
 2214TIP3   OH228132   5.164   2.119   2.889 -0.2627 -0.2521 -0.3603
 2214TIP3    H128133   5.103   2.140   2.961 -0.6320  0.7831 -0.9566
 2214TIP3    H228134   5.109   2.075   2.824  0.2197 -1.8771  0.2663
 2215TIP3   OH228135   2.460   2.510   0.347 -0.0590  0.6360  0.2374
 2215TIP3    H128136   2.468   2.598   0.384 -0.9654  1.2996 -1.0558
 2215TIP3    H228137   2.403   2.521   0.271  0.3526 -0.9600 -0.3476
 2216TIP3   OH228138   5.260   6.429  12.100  0.4039  0.1172 -0.5448
 2216TIP3    H128139   5.335   6.374  12.077  1.0162 -0.1175  1.7232
 2216TIP3    H228140   5.200   6.369  12.145 -0.2108  0.7246 -0.5497
 2217TIP3   OH228141   3.343   2.491  14.495 -0.3880 -0.4646  0.2667
 2217TIP3    H128142   3.320   2.582  14.514  0.2847 -0.3546  0.5908
 2217TIP3    H228143   3.439   2.491  14.491 -0.4235 -0.8976 -1.0589
 2218TIP3   OH228144   6.252   0.047   3.399 -0.2053  0.2728 -0.0621
 2218TIP3    H128145   6.299   0.109   3.456  0.2231 -0.2862  0.2080
 2218TIP3    H228146   6.257   0.086   3.312 -1.1835  1.3298  0.3131
 2219TIP3   OH228147   4.542   2.317  11.941 -0.3305  0.4565  0.0883
 2219TIP3    H128148   4.552   2.259  11.866 -1.7042 -1.4754  1.3064
 2219TIP3    H228149   4.448   2.323  11.954 -0.1669  1.9463  0.8040
 2220TIP3   OH228150   6.329   0.118  13.278 -0.4902  0.1871  0.6208
 2220TIP3    H128151   6.241   0.099  13.245  0.0257  1.5241 -1.7606
 2220TIP3    H228152   6.360   0.034  13.312 -1.5365 -1.1091 -1.4040
 2221TIP3   OH228153   4.912   3.797   6.131  0.1671 -0.0853  0.3876
 2221TIP3    H128154   4.927   3.703   6.120  0.1583  0.0609 -0.9645
 2221TIP3    H228155   4.954   3.837   6.055  1.3321  1.1293  1.6141
 2222TIP3   OH228156   6.076   5.380   5.927 -0.0593  0.1211 -0.4322
 2222TIP3    H128157   5.984   5.361   5.943 -0.7766  2.1362 -1.7032
 2222TIP3    H228158   6.099   5.446   5.993  0.5244 -0.4582 -0.0438
 2223TIP3   OH228159   4.882   5.309   0.654 -0.2012 -0.6214  0.2609
 2223TIP3    H128160   4.816   5.353   0.601  1.6573 -0.8063 -2.3903
 2223TIP3    H228161   4.832   5.256   0.716 -2.4806  1.2950  0.1911
 2224TIP3   OH228162   3.553   0.441   1.492 -0.2621  0.5268  0.5863
 2224TIP3    H128163   3.642   0.448   1.458 -0.5827  0.4626 -0.2883
 2224TIP3    H228164   3.557   0.481   1.579  0.6016  0.5812  0.5278
 2225TIP3   OH228165   5.234   5.888  10.751  0.2727  0.1532  0.1066
 2225TIP3    H128166   5.211   5.899  10.659 -0.8062  1.0570  0.4670
 2225TIP3    H228167   5.309   5.828  10.750  0.0776 -0.0971 -1.3305
 2226TIP3   OH228168   5.183   1.997   5.094 -0.0761  0.0649  0.0017
 2226TIP3    H128169   5.269   2.000   5.051  0.3209 -0.1929  0.7563
 2226TIP3    H228170   5.153   2.088   5.093  0.6131  0.3101  0.5093
 2227TIP3   OH228171   3.690   0.595  12.889  0.3130  0.2660  0.5404
 2227TIP3    H128172   3.761   0.582  12.952 -0.3411  0.6215  1.3735
 2227TIP3    H228173   3.650   0.678  12.914 -2.2057 -1.2235  1.9388
 2228TIP3   OH228174   4.377   1.956   3.846  0.2418  0.2280 -0.0715
 2228TIP3    H128175   4.394   2.050   3.846  0.9011  0.1107 -0.2536
 2228TIP3    H228176   4.291   1.947   3.805  0.1721  0.7501 -0.0404
 2229TIP3   OH228177   6.286   3.887  14.349 -0.0320 -0.0479  0.2351
 2229TIP3    H128178   6.230   3.818  14.312 -1.1811 -0.4336  2.5076
 2229TIP3    H228179   6.239   3.968  14.330 -0.1075 -0.1412  0.0142
 2230TIP3   OH228180   2.367   1.215  15.846 -0.6169 -0.2096 -0.8137
 2230TIP3    H128181   2.300   1.218  15.914  1.7756  1.5699  1.7161
 2230TIP3    H228182   2.354   1.294  15.794 -0.1820  0.4277  0.0295
 2231TIP3   OH228183   3.987   5.967   2.624 -0.1234 -0.1958 -0.0693
 2231TIP3    H128184   3.906   5.951   2.575  0.4165  2.0107 -1.8082
 2231TIP3    H228185   4.039   5.888   2.611 -0.9465 -0.5866 -1.0942
 2232TIP3   OH228186   6.378   1.231   2.994  0.7388  0.2552  0.0150
 2232TIP3    H128187   6.397   1.198   3.082  1.7101 -0.0442 -0.2973
 2232TIP3    H228188   6.463   1.236   2.951  0.3595  1.0937 -0.6749
 2233TIP3   OH228189   3.611   3.336  15.154  0.5236  0.4404 -0.4491
 2233TIP3    H128190   3.592   3.263  15.095  1.2577  1.5292 -2.0988
 2233TIP3    H228191   3.570   3.412  15.113  0.6845  1.1670  0.6796
 2234TIP3   OH228192   6.571   6.114  12.784 -0.4428 -0.3570 -0.4187
 2234TIP3    H128193   6.649   6.076  12.744 -0.4736  0.5047 -1.3318
 2234TIP3    H228194   6.603   6.193  12.828 -1.0937  1.2499 -2.6793
 2235TIP3   OH228195   3.020   4.403   0.897  0.0008  0.8060  0.4037
 2235TIP3    H128196   2.996   4.479   0.951  3.5900  3.1149 -0.9485
 2235TIP3    H228197   3.111   4.386   0.919  0.2506 -1.0470 -1.7615
 2236TIP3   OH228198   5.509   3.979  11.980 -0.1728  0.5902 -0.5628
 2236TIP3    H128199   5.481   3.895  11.943 -2.4593  1.4086 -0.8907
 2236TIP3    H228200   5.471   3.980  12.068 -0.4148  1.3565 -0.6643
 2237TIP3   OH228201   1.224   4.149  12.738  0.5027 -0.6399  0.2695
 2237TIP3    H128202   1.165   4.109  12.801  0.0414 -0.8197 -0.2703
 2237TIP3    H228203   1.285   4.200  12.791 -0.4432 -0.0365  0.8057
 2238TIP3   OH228204   4.080   5.387  14.919  0.0637  0.2665 -0.5766
 2238TIP3    H128205   4.150   5.396  14.983 -2.0335  2.2058  1.6353
 2238TIP3    H228206   4.101   5.452  14.851  0.3978  0.8351  0.0631
 2239TIP3   OH228207   3.356   2.919   6.354 -0.4138 -0.0816  0.0595
 2239TIP3    H128208   3.371   2.829   6.325 -0.9774 -0.1845  0.0767
 2239TIP3    H228209   3.443   2.951   6.377 -0.2861 -0.8420  0.7019
 2240TIP3   OH228210   0.631   5.773   3.375 -0.1605 -0.2227 -0.1796
 2240TIP3    H128211   0.546   5.816   3.375  0.6561  1.5270 -1.4207
 2240TIP3    H228212   0.683   5.823   3.311  1.7003 -1.4230  0.3139
 2241TIP3   OH228213   2.596   6.071  16.308  0.4883  0.0685 -0.3110
 2241TIP3    H128214   2.673   6.119  16.279  0.3744  0.5922  0.2323
 2241TIP3    H228215   2.547   6.134  16.361  0.8449 -0.9441  1.2743
 2242TIP3   OH228216   2.529   5.461   0.869 -0.9302  0.3145  0.6660
 2242TIP3    H128217   2.553   5.375   0.904  3.5718  1.0352 -0.0963
 2242TIP3    H228218   2.451   5.444   0.815 -0.4627 -3.1770  0.8741
 2243TIP3   OH228219   5.156   2.686   2.902  0.2657 -0.3261  0.2837
 2243TIP3    H128220   5.145   2.663   2.994  1.7834  0.9827  0.8410
 2243TIP3    H228221   5.232   2.636   2.873 -0.2322 -0.7700 -0.2941
 2244TIP3   OH228222   1.602   3.072  13.923 -0.3861  0.7879 -0.4073
 2244TIP3    H128223   1.552   3.094  14.001  0.2146  0.1685  0.1639
 2244TIP3    H228224   1.655   2.996  13.949  0.0865  0.8000 -1.3048
 2245TIP3   OH228225   5.519   1.610  16.759  0.1046 -0.0680  0.0790
 2245TIP3    H128226   5.468   1.531  16.779 -0.7610  0.2841 -0.6946
 2245TIP3    H228227   5.581   1.617  16.832 -1.9127  0.3295  1.8568
 2246TIP3   OH228228   1.555   2.165  11.358 -0.3230 -0.6093  0.7323
 2246TIP3    H128229   1.467   2.129  11.369 -0.0462 -1.2491  0.8676
 2246TIP3    H228230   1.547   2.224  11.282 -0.7071 -1.1915  0.3142
 2247TIP3   OH228231   0.882   2.194  12.003 -0.2016  0.4434 -0.1870
 2247TIP3    H128232   0.796   2.234  12.015 -0.7208 -0.1318 -1.6863
 2247TIP3    H228233   0.879   2.113  12.052  0.3224  1.4578  1.6215
 2248TIP3   OH228234   3.193   6.399  12.070 -0.0878  0.0577  0.5123
 2248TIP3    H128235   3.282   6.364  12.062 -0.9150 -1.9494 -0.7193
 2248TIP3    H228236   3.164   6.413  11.980 -0.8101  1.3430  0.9166
 2249TIP3   OH228237   2.438   4.197  16.121  0.4888  0.0120  0.6653
 2249TIP3    H128238   2.381   4.274  16.121 -0.4770 -0.5315 -2.6552
 2249TIP3    H228239   2.527   4.233  16.125  0.0290  1.2892  0.0321
 2250TIP3   OH228240   4.510   3.466  14.307 -0.4899 -0.0491 -0.3056
 2250TIP3    H128241   4.550   3.379  14.310 -0.3411  0.0471  1.9687
 2250TIP3    H228242   4.583   3.526  14.319 -0.5593  0.4598 -2.0787
 2251TIP3   OH228243   2.188   4.205  12.515 -0.5125 -0.3134 -0.2743
 2251TIP3    H128244   2.123   4.254  12.567  0.4493 -0.6004  1.2675
 2251TIP3    H228245   2.243   4.273  12.477  0.0762 -0.1373  0.8618
 2252TIP3   OH228246   3.596   4.029   4.284  0.1804  0.2568 -0.3226
 2252TIP3    H128247   3.546   4.003   4.361  0.6935 -0.5592 -0.2509
 2252TIP3    H228248   3.583   4.123   4.278 -1.5755  0.0286 -0.4688
 2253TIP3   OH228249   2.450   2.971   3.037  0.0488  0.6723 -0.4032
 2253TIP3    H128250   2.418   2.922   3.112 -0.6249  1.2960 -0.2652
 2253TIP3    H228251   2.372   3.017   3.004  0.4161  0.7125 -1.2386
 2254TIP3   OH228252   3.814   6.444   2.830  0.3185 -0.7824  0.3415
 2254TIP3    H128253   3.880   6.403   2.774 -2.1573 -0.0864 -3.4738
 2254TIP3    H228254   3.748   6.376   2.844 -0.2328 -0.2522  0.3637
 2255TIP3   OH228255   4.529   1.086   1.504  0.2276  0.3228  0.6576
 2255TIP3    H128256   4.489   1.134   1.431 -1.3509  1.4549  2.1781
 2255TIP3    H228257   4.569   1.009   1.463 -1.5526  0.3229 -1.2526
 2256TIP3   OH228258   2.590   5.814   0.180  0.0201 -0.2278  0.0015
 2256TIP3    H128259   2.570   5.872   0.106 -1.0530  0.3338  0.6953
 2256TIP3    H228260   2.614   5.731   0.139  0.6769  0.4218 -0.9992
 2257TIP3   OH228261   2.257   1.323  12.363  0.4777  0.3811 -0.2464
 2257TIP3    H128262   2.297   1.396  12.316  0.9558 -0.4608 -1.1785
 2257TIP3    H228263   2.283   1.245  12.314 -2.6686 -0.2082 -1.2363
 2258TIP3   OH228264   5.968   2.903   4.247 -0.0689  0.2087 -0.1603
 2258TIP3    H128265   5.997   2.814   4.266 -0.1882  0.2629  0.2856
 2258TIP3    H228266   6.046   2.948   4.216  0.6067  0.6469  2.0114
 2259TIP3   OH228267   2.072   2.259  12.557  0.1090  0.1153 -0.1330
 2259TIP3    H128268   1.979   2.250  12.537  0.4055 -0.1412 -1.4995
 2259TIP3    H228269   2.115   2.193  12.502  0.9882 -0.8111  1.5908
 2260TIP3   OH228270   0.250   4.710  12.082  0.2336  0.3135  0.2867
 2260TIP3    H128271   0.268   4.632  12.028 -0.4705 -1.2228  2.1706
 2260TIP3    H228272   0.155   4.711  12.092  0.3534  0.4551  1.6036
 2261TIP3   OH228273   2.290   3.221   1.940  0.4995  0.5539  0.6080
 2261TIP3    H128274   2.369   3.246   1.891 -0.9489  1.6369 -1.2984
 2261TIP3    H228275   2.270   3.297   1.993  0.9185  0.1277  1.4040
 2262TIP3   OH228276   0.388   6.569  13.687  0.7146  0.2959  0.5452
 2262TIP3    H128277   0.464   6.551  13.632  1.1107  0.7177  0.9465
 2262TIP3    H228278   0.329   6.495  13.672  1.5618 -0.4567  0.8557
 2263TIP3   OH228279   4.009   3.371   1.529  0.1262 -0.1527 -0.1890
 2263TIP3    H128280   4.074   3.304   1.509 -0.3791 -0.4355 -0.8936
 2263TIP3    H228281   4.042   3.450   1.488 -0.9612 -0.7497 -2.3641
 2264TIP3   OH228282   3.859   2.017   0.880  0.2009  0.3515 -0.7180
 2264TIP3    H128283   3.843   1.923   0.885 -1.0186  0.5915  0.1578
 2264TIP3    H228284   3.954   2.025   0.873  0.4513 -0.9011  0.7787
 2265TIP3   OH228285   1.332   6.082  15.083 -0.5966 -0.1249  0.2171
 2265TIP3    H128286   1.406   6.024  15.065  0.6663  1.5714 -0.3121
 2265TIP3    H228287   1.347   6.113  15.173  0.2737  1.4549 -0.4298
 2266TIP3   OH228288   4.056   5.073  13.362  0.0694  0.0431  0.7674
 2266TIP3    H128289   4.093   4.988  13.388  0.7996 -0.3145 -1.2464
 2266TIP3    H228290   3.961   5.061  13.370  0.2162 -0.4509  1.9384
 2267TIP3   OH228291   5.478   5.446  11.381 -0.3986  0.1644  0.4243
 2267TIP3    H128292   5.461   5.509  11.451 -0.7164  2.4213 -1.5691
 2267TIP3    H228293   5.400   5.448  11.326  0.7751  0.3451 -1.3393
 2268TIP3   OH228294   6.783   6.770  12.614 -0.0208  0.4750  0.0404
 2268TIP3    H128295   6.823   6.834  12.672  0.9297  1.1376 -1.3058
 2268TIP3    H228296   6.710   6.735  12.665  2.1272 -0.7074  2.5599
 2269TIP3   OH228297   3.270   1.525   3.386  0.1429  0.3294 -0.2765
 2269TIP3    H128298   3.365   1.519   3.395  0.1001 -0.3941 -0.2422
 2269TIP3    H228299   3.240   1.434   3.385 -0.4894  0.5387 -0.9473
 2270TIP3   OH228300   5.085   0.023  11.677 -0.0472 -0.5909  0.3353
 2270TIP3    H128301   5.115   0.106  11.640  1.9538 -2.1181 -1.7320
 2270TIP3    H228302   5.082   0.039  11.771  1.1162  1.5946  0.0681
 2271TIP3   OH228303   4.383   0.261  11.762  0.4031  0.2583  0.0354
 2271TIP3    H128304   4.468   0.303  11.746 -0.0504  1.6427  1.0629
 2271TIP3    H228305   4.378   0.252  11.857 -1.1812  1.5036  0.1062
 2272TIP3   OH228306   0.861   4.449   2.654  0.2450 -0.0599 -0.0699
 2272TIP3    H128307   0.836   4.449   2.562 -2.6690 -0.8195  0.6195
 2272TIP3    H228308   0.880   4.357   2.675 -1.0696 -0.2258  0.5050
 2273TIP3   OH228309   3.887   1.937  12.003  0.3651  0.1622  0.0723
 2273TIP3    H128310   3.810   1.921  11.948  1.3620 -0.8680 -1.0667
 2273TIP3    H228311   3.881   1.871  12.072 -1.0223  1.6143  1.4396
 2274TIP3   OH228312   1.582   4.640  10.992  0.0358  0.2292 -0.4050
 2274TIP3    H128313   1.537   4.653  11.075  0.7887 -1.1790  0.2565
 2274TIP3    H228314   1.527   4.684  10.928 -1.8334 -0.6730  0.4971
 2275TIP3   OH228315   0.267   2.480  16.213  0.5859  0.3015  0.1054
 2275TIP3    H128316   0.257   2.495  16.119  2.4100  1.7983  0.0859
 2275TIP3    H228317   0.307   2.394  16.220 -1.5773 -0.8214 -0.3075
 2276TIP3   OH228318   5.336   1.946  13.415  0.3926 -0.5878  0.1957
 2276TIP3    H128319   5.303   1.862  13.445  0.0538 -0.5176  0.0207
 2276TIP3    H228320   5.356   1.932  13.322 -1.2514 -0.0181 -0.2744
 2277TIP3   OH228321   3.632   3.253   2.231  0.2587 -0.2383  0.4071
 2277TIP3    H128322   3.699   3.218   2.172  0.5284 -1.7149  1.5425
 2277TIP3    H228323   3.674   3.257   2.316 -0.3151  1.2977  0.6518
 2278TIP3   OH228324   2.417   5.269  10.454 -0.1095 -0.4095 -0.1002
 2278TIP3    H128325   2.344   5.247  10.396 -0.8782  0.2249  0.6070
 2278TIP3    H228326   2.489   5.212  10.425 -1.3885 -2.3619  0.3179
 2279TIP3   OH228327   5.035   3.439  13.964 -0.0992  0.2593 -0.1876
 2279TIP3    H128328   5.113   3.495  13.960 -0.2937  0.4577 -2.5098
 2279TIP3    H228329   4.991   3.452  13.880 -1.8454 -1.0229  0.4484
 2280TIP3   OH228330   3.233   1.174  15.660 -0.1068  0.3792 -0.2337
 2280TIP3    H128331   3.195   1.213  15.581  0.5308 -0.2609 -0.8741
 2280TIP3    H228332   3.286   1.101  15.627  0.5883  0.4230  0.7428
 2281TIP3   OH228333   3.681   4.906   0.622  0.1145  0.0170  0.0613
 2281TIP3    H128334   3.624   4.832   0.643  1.8701 -1.9050 -1.4824
 2281TIP3    H228335   3.643   4.944   0.542  0.2934 -0.4592 -0.2518
 2282TIP3   OH228336   3.713   4.735   4.766 -0.0321 -0.2276  0.2158
 2282TIP3    H128337   3.680   4.719   4.678  1.1722  0.4791 -0.3823
 2282TIP3    H228338   3.638   4.773   4.813 -0.2279  0.9091 -0.9641
 2283TIP3   OH228339   2.352   0.741   2.992  0.3175  0.0998 -0.1581
 2283TIP3    H128340   2.286   0.809   3.004 -0.9318 -1.2933  1.2139
 2283TIP3    H228341   2.427   0.771   3.043  0.1224  0.8720 -0.3101
 2284TIP3   OH228342   2.264   2.738   3.514  0.5330  0.1528  0.0450
 2284TIP3    H128343   2.333   2.697   3.566  1.2287  1.3321  0.0967
 2284TIP3    H228344   2.234   2.812   3.567 -0.0137  0.3052 -0.4552
 2285TIP3   OH228345   0.573   2.775   5.742 -0.3785  0.2938  0.4593
 2285TIP3    H128346   0.481   2.754   5.758 -0.3731  0.0858  0.2344
 2285TIP3    H228347   0.600   2.713   5.674 -0.5701  1.4972 -0.7740
 2286TIP3   OH228348   4.814   0.246  11.952 -0.2075 -0.5283  0.3572
 2286TIP3    H128349   4.737   0.210  11.996 -0.8261 -0.4845 -0.6668
 2286TIP3    H228350   4.888   0.203  11.995 -0.8194 -0.9941  0.9729
 2287TIP3   OH228351   2.421   3.353   2.597  0.5162 -0.1010 -0.5231
 2287TIP3    H128352   2.392   3.349   2.688 -0.0833  0.0514 -0.7009
 2287TIP3    H228353   2.508   3.314   2.598  0.0305 -1.2135 -0.0790
 2288TIP3   OH228354   1.687   5.451  13.902 -0.5337  0.1962  0.0159
 2288TIP3    H128355   1.592   5.461  13.898 -0.6238  1.6730  2.8542
 2288TIP3    H228356   1.721   5.515  13.839 -1.4698  2.3850  1.5975
 2289TIP3   OH228357   6.524   3.620  13.922  0.5184 -0.0865  0.2317
 2289TIP3    H128358   6.478   3.539  13.944  0.2637  0.0837  0.3303
 2289TIP3    H228359   6.615   3.594  13.909  0.8887 -0.0533  2.4329
 2290TIP3   OH228360   1.624   0.149  12.353  0.3029 -0.3192  0.5254
 2290TIP3    H128361   1.669   0.077  12.309  2.8958  1.9513 -0.9199
 2290TIP3    H228362   1.694   0.197  12.397 -1.3035  1.3085  1.4318
 2291TIP3   OH228363   5.743   6.443   3.856  0.2609  0.5749 -0.4872
 2291TIP3    H128364   5.757   6.430   3.949  1.1110 -0.4499 -0.7411
 2291TIP3    H228365   5.810   6.506   3.830  2.1132 -1.4663 -0.9641
 2292TIP3   OH228366   3.938   5.379  12.613  0.2174  0.2132  0.4594
 2292TIP3    H128367   4.010   5.365  12.675  0.9006  0.0917 -0.3342
 2292TIP3    H228368   3.973   5.350  12.529 -0.2945  1.3905 -0.1935
 2293TIP3   OH228369   1.316   0.656   2.028  0.2964  0.1671  0.4849
 2293TIP3    H128370   1.313   0.741   2.071 -0.7785  0.8289 -0.8326
 2293TIP3    H228371   1.227   0.621   2.039  0.3969 -0.2578 -0.0070
 2294TIP3   OH228372   5.695   6.011  15.739 -0.3419  0.1741  0.1960
 2294TIP3    H128373   5.695   5.927  15.785  2.0867  0.8318  1.5857
 2294TIP3    H228374   5.786   6.042  15.745 -1.3879  3.5593  0.9947
 2295TIP3   OH228375   2.046   0.368  17.209  0.2266 -0.0773 -0.3564
 2295TIP3    H128376   1.954   0.354  17.187  0.0337  2.3415 -1.4062
 2295TIP3    H228377   2.053   0.341  17.301 -1.6002 -0.0113 -0.1638
 2296TIP3   OH228378   4.085   2.251   5.989  0.1273 -0.1578  0.6086
 2296TIP3    H128379   4.113   2.210   5.907  0.2514 -1.0652  1.0863
 2296TIP3    H228380   4.063   2.177   6.046 -0.5645  0.4738  1.1834
 2297TIP3   OH228381   5.078   2.372   3.816  0.1583 -0.3276 -0.6866
 2297TIP3    H128382   5.017   2.307   3.849  0.8342 -1.5217 -1.6780
 2297TIP3    H228383   5.165   2.332   3.827  0.6554  0.7146 -0.6515
 2298TIP3   OH228384   5.418   6.309  11.348 -0.3126 -0.6283 -0.0328
 2298TIP3    H128385   5.506   6.284  11.319 -0.1255 -0.1078  0.0850
 2298TIP3    H228386   5.372   6.333  11.267 -0.2080 -0.4755 -0.0479
 2299TIP3   OH228387   2.980   6.019  16.407 -0.5096  0.3287 -0.2730
 2299TIP3    H128388   3.074   6.036  16.412 -0.6128  0.6471  1.1815
 2299TIP3    H228389   2.949   6.074  16.335  0.2376  1.1419  0.0103
 2300TIP3   OH228390   3.811   0.831   4.196  0.8036 -0.0870 -0.0496
 2300TIP3    H128391   3.861   0.814   4.276 -0.0109  0.3377  0.5580
 2300TIP3    H228392   3.731   0.873   4.226  0.6588  0.4320 -1.1234
 2301TIP3   OH228393   5.576   2.614  14.377 -0.2146 -0.5889  0.3823
 2301TIP3    H128394   5.498   2.606  14.323 -0.7641 -1.4788  1.2702
 2301TIP3    H228395   5.604   2.524  14.392 -0.6548 -0.4319  2.3787
 2302TIP3   OH228396   4.395   5.229  10.959 -0.1370  0.1499 -0.1839
 2302TIP3    H128397   4.422   5.189  11.042 -2.3534  0.2671  0.6632
 2302TIP3    H228398   4.428   5.319  10.964 -3.7416  1.5848  2.6501
 2303TIP3   OH228399   3.677   3.172   0.325  0.1312  0.6912  0.0716
 2303TIP3    H128400   3.717   3.175   0.412  0.9356  1.8657 -0.3146
 2303TIP3    H228401   3.592   3.216   0.337 -0.6557 -0.9238  0.6734
 2304TIP3   OH228402   4.950   2.484  11.621  0.0938 -0.3327 -0.1751
 2304TIP3    H128403   4.874   2.496  11.679  0.1794 -0.1285 -0.1051
 2304TIP3    H228404   4.921   2.420  11.556 -0.2976  0.1023 -0.4358
 2305TIP3   OH228405   5.086   0.286   2.862  0.0158 -0.1627  0.4299
 2305TIP3    H128406   5.058   0.195   2.857 -0.5430  0.0732 -1.9954
 2305TIP3    H228407   5.047   0.319   2.943 -0.5443 -1.8128  0.8693
 2306TIP3   OH228408   4.835   2.572  16.985 -0.1199  0.5027 -0.3475
 2306TIP3    H128409   4.918   2.608  17.018  0.5025 -1.9427  1.0520
 2306TIP3    H228410   4.770   2.599  17.050  0.1033  0.2467 -0.0088
 2307TIP3   OH228411   1.459   0.962   2.346 -0.5581  0.1231  0.3978
 2307TIP3    H128412   1.552   0.941   2.349 -0.7643 -0.8492  0.5548
 2307TIP3    H228413   1.453   1.052   2.376  0.1419 -0.4334  2.3379
 2308TIP3   OH228414   4.006   0.221  11.853  0.6096 -0.6861 -0.8311
 2308TIP3    H128415   4.043   0.297  11.899 -3.2400 -0.2047  1.9200
 2308TIP3    H228416   3.965   0.258  11.775  2.9276 -0.8024 -2.2083
 2309TIP3   OH228417   3.233   3.178   1.545  0.1809 -0.1339  0.1467
 2309TIP3    H128418   3.144   3.211   1.554 -0.0061 -1.1514  2.8594
 2309TIP3    H228419   3.288   3.256   1.542 -0.7495  0.4992 -1.3949
 2310TIP3   OH228420   4.298   1.804  16.649  0.1394 -0.3598 -0.8128
 2310TIP3    H128421   4.292   1.869  16.719  1.9974 -1.8157  0.8318
 2310TIP3    H228422   4.291   1.854  16.568 -2.6849  1.3399  0.3243
 2311TIP3   OH228423   1.437   6.693  11.708 -0.1348 -0.4624 -0.3693
 2311TIP3    H128424   1.524   6.690  11.669  0.1259 -3.1253  0.1807
 2311TIP3    H228425   1.438   6.622  11.773 -1.7418  1.3789  1.8304
 2312TIP3   OH228426   2.234   4.610   6.539  0.1829  0.1274 -0.2170
 2312TIP3    H128427   2.146   4.627   6.573  0.2940 -0.0465  0.1582
 2312TIP3    H228428   2.291   4.618   6.615  0.3235 -1.2518 -0.1576
 2313TIP3   OH228429   5.047   3.318  14.694  0.4821  0.3190  0.1074
 2313TIP3    H128430   5.123   3.284  14.741  0.5617  0.9365  0.4354
 2313TIP3    H228431   4.973   3.267  14.728  0.3914  1.4223  1.6560
 2314TIP3   OH228432   3.130   3.483   6.263  0.5026  0.2278 -0.3113
 2314TIP3    H128433   3.189   3.419   6.304  1.3386  0.3761 -1.2470
 2314TIP3    H228434   3.177   3.566   6.270 -0.8987  0.9424  1.5844
 2315TIP3   OH228435   5.637   5.272  16.870 -0.0202  0.7294 -0.0998
 2315TIP3    H128436   5.621   5.353  16.820 -0.5669  0.4952 -0.3152
 2315TIP3    H228437   5.620   5.202  16.807  0.3939  0.4436  0.1035
 2316TIP3   OH228438   0.750   5.885   4.012 -0.1897  0.2419 -0.5702
 2316TIP3    H128439   0.845   5.875   4.010 -0.1649  0.4691 -0.6010
 2316TIP3    H228440   0.718   5.825   3.944 -0.0646  0.1996 -0.5922
 2317TIP3   OH228441   0.116   4.490   4.784  0.6241  0.4491 -0.7222
 2317TIP3    H128442   0.077   4.501   4.697  0.6606  1.4280 -0.6288
 2317TIP3    H228443   0.065   4.420   4.824  0.5093  0.0900 -1.4712
 2318TIP3   OH228444   3.213   2.446   5.970  0.0077  0.1679 -0.0349
 2318TIP3    H128445   3.195   2.504   6.045  0.6538 -1.5231  1.5118
 2318TIP3    H228446   3.307   2.432   5.973  0.2352  0.9798 -1.9387
 2319TIP3   OH228447   4.262   3.325   5.481 -0.2692 -0.0589 -0.3682
 2319TIP3    H128448   4.223   3.241   5.505  0.1545  0.4536  2.5440
 2319TIP3    H228449   4.312   3.351   5.559 -1.4567  3.4972 -0.5810
 2320TIP3   OH228450   1.247   0.934   2.164  0.4603  0.0252 -0.7050
 2320TIP3    H128451   1.316   0.946   2.230  1.2650 -2.9545 -0.8904
 2320TIP3    H228452   1.167   0.919   2.215  0.3260  1.3460 -0.4864
 2321TIP3   OH228453   5.350   1.317   2.981 -0.0289  0.3952 -0.0227
 2321TIP3    H128454   5.443   1.309   3.003  0.5451  0.7263 -2.1401
 2321TIP3    H228455   5.317   1.227   2.989  0.9250 -0.0745 -1.0443
 2322TIP3   OH228456   4.474   6.660  10.334  0.3983 -0.0249 -0.3680
 2322TIP3    H128457   4.380   6.674  10.323  0.3172 -0.7332 -0.6103
 2322TIP3    H228458   4.491   6.575  10.293  1.1978  0.2388 -0.6113
 2323TIP3   OH228459   0.367   0.147  15.508 -0.4485  0.0876  0.1796
 2323TIP3    H128460   0.285   0.102  15.530 -0.8558  0.2017 -1.0347
 2323TIP3    H228461   0.429   0.076  15.492 -1.0624 -0.0762 -1.6316
 2324TIP3   OH228462   2.673   0.989   2.143  0.1328  0.2875  0.6587
 2324TIP3    H128463   2.731   0.956   2.074 -0.2603  0.6362  0.1521
 2324TIP3    H228464   2.619   1.055   2.099 -1.8210 -1.2013  0.6811
 2325TIP3   OH228465   5.756   5.003  11.527 -0.6198 -0.2788 -0.1323
 2325TIP3    H128466   5.837   5.053  11.517  0.0083 -1.5476 -1.7763
 2325TIP3    H228467   5.689   5.069  11.545  0.3493  1.0585 -1.2322
 2326TIP3   OH228468   6.485   3.855  14.558 -0.1699 -0.0342  0.2129
 2326TIP3    H128469   6.422   3.854  14.486 -0.1952  1.0037  0.1968
 2326TIP3    H228470   6.433   3.834  14.635 -0.7216  1.5245  0.3087
 2327TIP3   OH228471   5.202   4.368   1.887 -0.2004 -0.1073  0.3133
 2327TIP3    H128472   5.146   4.363   1.964  1.8064 -1.3450  1.7926
 2327TIP3    H228473   5.149   4.329   1.817 -0.9261 -2.1044  1.8495
 2328TIP3   OH228474   4.129   3.951   3.982  0.5996 -0.2374  0.0725
 2328TIP3    H128475   4.078   4.023   3.945  0.2936 -0.4551  0.0683
 2328TIP3    H228476   4.108   3.876   3.926  1.0919 -0.2779 -0.0603
 2329TIP3   OH228477   0.108   4.218   3.443 -0.5477 -0.1005 -0.0913
 2329TIP3    H128478   0.110   4.306   3.481  1.6841 -0.2931  0.3948
 2329TIP3    H228479   0.134   4.231   3.351 -0.6495 -0.1970 -0.1335
 2330TIP3   OH228480   3.844   0.956   3.026  0.1146  0.0275 -0.1419
 2330TIP3    H128481   3.790   1.035   3.021 -0.0874  0.0076  1.3068
 2330TIP3    H228482   3.811   0.908   3.102  2.6899  0.4611  1.3974
 2331TIP3   OH228483   0.575   6.363  13.836 -0.7995  0.6021  0.2295
 2331TIP3    H128484   0.490   6.345  13.876 -2.5272  1.9415 -2.5017
 2331TIP3    H228485   0.559   6.355  13.742  1.1657  4.1359 -0.6072
 2332TIP3   OH228486   3.442   4.811  16.257 -0.5759  0.5421 -0.0807
 2332TIP3    H128487   3.446   4.739  16.193 -0.0135 -0.1886  0.7549
 2332TIP3    H228488   3.349   4.831  16.264 -0.7936 -0.4718  0.0672
 2333TIP3   OH228489   4.202   4.610  12.065  0.3593 -0.3716  0.1281
 2333TIP3    H128490   4.281   4.582  12.112  0.2043  0.3158  0.8100
 2333TIP3    H228491   4.184   4.538  12.005  0.4636 -1.3715  1.2515
 2334TIP3   OH228492   6.392   0.775   4.880  0.1191 -0.2594  0.7285
 2334TIP3    H128493   6.376   0.796   4.788  3.7520  0.4452  0.1064
 2334TIP3    H228494   6.319   0.815   4.927 -0.1994  2.1783 -1.5868
 2335TIP3   OH228495   6.240   2.695  14.681 -0.3282  0.4647 -0.0276
 2335TIP3    H128496   6.164   2.746  14.652 -0.5212  0.9325  1.2117
 2335TIP3    H228497   6.239   2.704  14.777 -0.2262 -1.6906  0.2246
 2336TIP3   OH228498   4.684   2.742   2.351  0.2640 -0.4633 -0.6035
 2336TIP3    H128499   4.636   2.663   2.326  2.1298 -1.7475 -0.3358
 2336TIP3    H228500   4.738   2.763   2.274  0.7518 -0.2365 -0.2095
 2337TIP3   OH228501   2.891   0.979   5.004  1.3724 -0.3439  0.0749
 2337TIP3    H128502   2.935   1.001   4.921  1.0517  0.2431  0.0500
 2337TIP3    H228503   2.875   1.064   5.045 -2.1170 -0.2535 -1.1244
 2338TIP3   OH228504   0.276   6.647  15.085  0.3199  0.1460 -0.0399
 2338TIP3    H128505   0.269   6.605  14.999  0.1508 -1.5907  0.7727
 2338TIP3    H228506   0.185   6.662  15.111  0.3386 -0.2692  0.2673
 2339TIP3   OH228507   5.987   1.307   6.010 -0.1999 -0.3895  0.2944
 2339TIP3    H128508   6.053   1.366   6.045  0.3100 -0.6506 -0.2237
 2339TIP3    H228509   5.983   1.236   6.074 -0.8074  0.1844  0.9139
 2340TIP3   OH228510   6.730   2.307  14.697 -0.0530 -0.5122 -0.2084
 2340TIP3    H128511   6.665   2.297  14.767 -1.0445 -0.6672 -1.1316
 2340TIP3    H228512   6.803   2.251  14.725  0.8522  1.6371  2.1312
 2341TIP3   OH228513   3.032   3.177  16.994 -0.4250  0.6338  0.3945
 2341TIP3    H128514   3.055   3.161  16.902 -1.4143 -1.1247  0.4038
 2341TIP3    H228515   2.947   3.220  16.990 -1.0651 -0.5860  0.4800
 2342TIP3   OH228516   1.546   3.283  16.710  0.8566  0.4978 -0.0274
 2342TIP3    H128517   1.630   3.318  16.680 -0.4542  1.9294 -2.2308
 2342TIP3    H228518   1.499   3.359  16.744 -0.2832  0.0686 -0.6030
 2343TIP3   OH228519   3.544   3.537   5.953  0.4856  0.2414  0.0645
 2343TIP3    H128520   3.583   3.471   6.011 -2.6208 -0.9292  1.0391
 2343TIP3    H228521   3.543   3.617   6.006  1.3798  0.2517  0.0760
 2344TIP3   OH228522   2.970   1.807   2.069  0.7697 -0.9106 -0.8327
 2344TIP3    H128523   2.983   1.899   2.093  1.6342 -0.9971 -0.9358
 2344TIP3    H228524   2.882   1.786   2.102 -0.9244  0.8934 -3.8280
 2345TIP3   OH228525   6.063   2.463  16.364 -0.0305  0.1167 -0.1116
 2345TIP3    H128526   6.047   2.449  16.458 -1.3663 -0.5260 -0.4175
 2345TIP3    H228527   6.061   2.558  16.353  2.0925  0.3304  0.8107
 2346TIP3   OH228528   5.663   1.614   0.263 -0.4915 -0.2784  0.2379
 2346TIP3    H128529   5.649   1.621   0.168 -0.0647 -1.9276  0.0181
 2346TIP3    H228530   5.752   1.582   0.272 -1.1397 -2.0030  1.0832
 2347TIP3   OH228531   0.735   0.014  12.675  0.3599 -0.2390  0.6077
 2347TIP3    H128532   0.824  -0.014  12.697  0.1756 -1.3480  0.0102
 2347TIP3    H228533   0.696  -0.061  12.630 -1.2537 -0.1914  1.8162
 2348TIP3   OH228534   1.892   6.581   4.872  0.2293 -0.3216 -0.1974
 2348TIP3    H128535   1.887   6.501   4.820  0.8143 -0.7651  0.4161
 2348TIP3    H228536   1.958   6.635   4.827  0.9427 -0.8232  0.2278
 2349TIP3   OH228537   1.275   3.911  14.686  0.3480 -0.0316 -0.5798
 2349TIP3    H128538   1.242   3.858  14.613  0.2590  0.5913 -1.0060
 2349TIP3    H228539   1.347   3.962  14.647  1.0165 -0.4837  0.0401
 2350TIP3   OH228540   0.053   0.164  16.938  0.6124  0.0812 -0.2232
 2350TIP3    H128541  -0.009   0.200  17.002 -1.0421 -0.6906 -1.3493
 2350TIP3    H228542   0.077   0.238  16.883  0.7929  0.4027  0.2797
 2351TIP3   OH228543   5.007   4.693  14.210  0.2149  0.2741 -0.2051
 2351TIP3    H128544   5.053   4.609  14.198  0.7209  0.9373 -4.0357
 2351TIP3    H228545   5.025   4.716  14.302 -1.1956 -4.3980  1.5408
 2352TIP3   OH228546   4.302   1.160  14.234 -0.4991  0.1980 -0.1235
 2352TIP3    H128547   4.227   1.113  14.196 -1.8383  0.5759  1.9052
 2352TIP3    H228548   4.370   1.154  14.167 -2.9460  1.6116 -2.9841
 2353TIP3   OH228549   2.386   3.312  11.537  0.5808  0.5024  1.0218
 2353TIP3    H128550   2.384   3.405  11.562  2.5568  0.5529  1.1182
 2353TIP3    H228551   2.446   3.308  11.463 -0.2639 -0.5807  0.3613
 2354TIP3   OH228552   2.068   0.344  15.062 -0.0012 -0.0218 -0.4992
 2354TIP3    H128553   2.078   0.399  14.985 -0.8279 -0.6145 -1.0502
 2354TIP3    H228554   2.085   0.403  15.136  1.2688  0.4429 -1.1254
 2355TIP3   OH228555   4.231   1.492   5.670  0.5311  0.2105  0.3034
 2355TIP3    H128556   4.139   1.488   5.696  0.1579  0.7473 -0.8607
 2355TIP3    H228557   4.262   1.577   5.701 -0.1047  1.1539 -1.4993
 2356TIP3   OH228558   6.599   3.621  11.525 -0.4295 -0.3455  0.5180
 2356TIP3    H128559   6.665   3.689  11.509  0.1307 -0.4923  2.0508
 2356TIP3    H228560   6.643   3.539  11.504 -0.4942 -0.3676  0.4680
 2357TIP3   OH228561   4.027   0.234   0.441  0.3980 -0.1929 -0.1193
 2357TIP3    H128562   4.087   0.307   0.458  1.7034 -1.6756  2.1017
 2357TIP3    H228563   3.971   0.230   0.518  0.8229 -1.9335  0.1411
 2358TIP3   OH228564   0.391   4.271   0.290  0.3703  0.0878 -0.4924
 2358TIP3    H128565   0.397   4.215   0.213 -0.8525 -1.0101  0.1651
 2358TIP3    H228566   0.479   4.270   0.328  1.4429  1.9931 -2.7245
 2359TIP3   OH228567   1.092   3.444  16.890 -0.3421  0.2913  0.0244
 2359TIP3    H128568   1.084   3.366  16.834 -1.0202  0.4108 -0.0456
 2359TIP3    H228569   1.090   3.518  16.830 -3.4692  0.5624  0.3110
 2360TIP3   OH228570   1.463   0.331  16.194  0.0737  0.1331  0.6455
 2360TIP3    H128571   1.525   0.266  16.163  0.4814  0.6864  0.2860
 2360TIP3    H228572   1.432   0.296  16.278 -0.0328 -0.7191  0.2575
 2361TIP3   OH228573   0.253   6.139  12.417  0.3786  0.1133 -0.1303
 2361TIP3    H128574   0.252   6.078  12.491 -0.6931 -0.5357 -0.6359
 2361TIP3    H228575   0.164   6.134  12.381 -0.1718  2.9777  0.5876
 2362TIP3   OH228576   1.248   0.481   4.252  0.3399 -0.1087  0.0373
 2362TIP3    H128577   1.188   0.408   4.233 -0.0259  0.0617  0.5049
 2362TIP3    H228578   1.200   0.559   4.224  1.0986 -0.1071 -1.3090
 2363TIP3   OH228579   6.149   6.442   0.414  0.8876 -0.2498  0.1342
 2363TIP3    H128580   6.111   6.357   0.388 -0.9348 -0.5510  3.2995
 2363TIP3    H228581   6.204   6.421   0.489  0.4097  1.3694  0.9629
 2364TIP3   OH228582   5.950   4.521  13.777 -0.5073  0.4208 -0.4658
 2364TIP3    H128583   5.939   4.429  13.802  0.8659  0.7120  1.4606
 2364TIP3    H228584   5.981   4.518  13.687 -0.8585 -0.9862 -0.5639
 2365TIP3   OH228585   6.761   6.547   1.204 -0.7276 -0.7344 -0.2151
 2365TIP3    H128586   6.796   6.526   1.291 -1.0939 -0.8701 -0.0976
 2365TIP3    H228587   6.796   6.634   1.184 -0.7805 -0.6282  0.1463
 2366TIP3   OH228588   0.392   0.181   0.037 -0.1239  0.3136 -0.1337
 2366TIP3    H128589   0.436   0.165   0.120  0.8013  0.2760 -0.6138
 2366TIP3    H228590   0.353   0.097   0.013 -1.3189  0.5854  0.7676
 2367TIP3   OH228591   2.741   6.590  11.908  0.1738 -0.2802 -0.3633
 2367TIP3    H128592   2.817   6.608  11.852  0.0235 -0.6081 -0.6810
 2367TIP3    H228593   2.689   6.528  11.857  0.1462 -0.7565  0.2409
 2368TIP3   OH228594   5.532   3.896  15.756 -0.0470  0.3375  0.1467
 2368TIP3    H128595   5.616   3.916  15.798  0.4104 -2.2309  0.6329
 2368TIP3    H228596   5.556   3.843  15.680 -1.1868  0.6992 -0.4830
 2369TIP3   OH228597   4.004   4.222  16.081 -0.1972 -0.0091  0.0192
 2369TIP3    H128598   4.041   4.144  16.040  0.7332  0.3142  0.2182
 2369TIP3    H228599   4.065   4.243  16.152  0.4798  1.8470 -1.0385
 2370TIP3   OH228600   4.924   2.774  10.992  0.1537 -0.0919 -0.0408
 2370TIP3    H128601   4.960   2.751  11.078  1.3427 -0.4235 -0.5931
 2370TIP3    H228602   4.902   2.690  10.952 -1.1874  0.1074  0.2473
 2371TIP3   OH228603   3.353   3.605  13.726 -0.2726 -0.6141 -0.4767
 2371TIP3    H128604   3.355   3.509  13.729 -1.3202 -0.7019 -1.7907
 2371TIP3    H228605   3.260   3.627  13.731 -0.1033  0.2873 -1.1150
 2372TIP3   OH228606   5.739   4.499  12.377 -0.4320 -0.0106 -0.4745
 2372TIP3    H128607   5.832   4.487  12.354 -0.4685 -1.7888  0.1499
 2372TIP3    H228608   5.732   4.463  12.465 -1.9994 -1.3133 -1.0843
 2373TIP3   OH228609   4.646   3.798  16.142  0.3154 -0.1927 -0.6314
 2373TIP3    H128610   4.660   3.795  16.237  0.6187 -0.8433 -0.6899
 2373TIP3    H228611   4.725   3.842  16.108 -0.5413  1.5694 -0.4530
 2374TIP3   OH228612   1.780   6.308  10.906  0.1229  1.1093  0.1421
 2374TIP3    H128613   1.752   6.400  10.897 -1.8005  0.6585  1.0449
 2374TIP3    H228614   1.761   6.286  10.997 -0.3261 -0.4531 -0.3101
 2375TIP3   OH228615   6.196   4.506  13.051 -0.0964 -0.3335  0.3005
 2375TIP3    H128616   6.259   4.553  13.105 -0.3918  0.3506  0.0605
 2375TIP3    H228617   6.149   4.450  13.112 -0.7539  0.7800  0.8526
 2376TIP3   OH228618   0.061   1.242   1.823 -0.4359 -0.0501  0.1483
 2376TIP3    H128619  -0.019   1.290   1.800 -0.5451 -0.5211 -0.4942
 2376TIP3    H228620   0.052   1.159   1.777  0.7352  0.1427 -0.4540
 2377TIP3   OH228621   5.828   0.606   0.725  0.4925  0.1935  0.2567
 2377TIP3    H128622   5.863   0.534   0.673 -2.7809 -0.8178 -0.8232
 2377TIP3    H228623   5.859   0.588   0.814  1.3942 -1.4437 -0.3417
 2378TIP3   OH228624   4.719   2.497   5.022  0.0647 -0.3462  0.4941
 2378TIP3    H128625   4.714   2.431   4.953  0.3330 -0.9781  1.0623
 2378TIP3    H228626   4.672   2.572   4.987  0.5978 -0.4817 -0.5665
 2379TIP3   OH228627   4.408   3.993   2.569 -0.1826 -0.1058 -0.0656
 2379TIP3    H128628   4.323   4.005   2.527 -0.6314  2.4623  1.3836
 2379TIP3    H228629   4.459   4.069   2.542  1.1049 -0.7837  0.3845
 2380TIP3   OH228630   4.622   6.336   1.023 -0.0159  0.2864  0.1891
 2380TIP3    H128631   4.593   6.298   0.940  2.3810 -0.7067 -0.2896
 2380TIP3    H228632   4.597   6.428   1.018 -0.2506  0.1635 -1.4890
 2381TIP3   OH228633   2.642   2.250   4.293  0.4054 -0.4284 -0.5713
 2381TIP3    H128634   2.634   2.195   4.371  0.6371 -0.5908 -0.6603
 2381TIP3    H228635   2.556   2.247   4.251 -0.1998  0.8894  0.4884
 2382TIP3   OH228636   3.727   4.114   0.690 -0.1712 -0.5446 -0.3641
 2382TIP3    H128637   3.821   4.133   0.687  0.0954 -1.7370 -0.1132
 2382TIP3    H228638   3.720   4.022   0.665 -0.9689 -1.3255  2.3141
 2383TIP3   OH228639   0.282   5.346   1.935  0.1770  0.1076 -0.2750
 2383TIP3    H128640   0.368   5.318   1.905  1.4847  0.9827  2.3169
 2383TIP3    H228641   0.246   5.271   1.983 -0.0788  0.0677 -0.5246
 2384TIP3   OH228642   3.565   4.152   1.715  0.5054  0.0019  0.3758
 2384TIP3    H128643   3.579   4.105   1.797  0.3152 -2.9158 -1.1368
 2384TIP3    H228644   3.487   4.205   1.731 -0.6541 -1.9164  1.5805
 2385TIP3   OH228645   3.221   1.441  16.523  0.3786 -0.2318 -0.4636
 2385TIP3    H128646   3.259   1.509  16.467  0.4818 -1.0514 -1.4126
 2385TIP3    H228647   3.129   1.439  16.497  0.1472  0.2527  0.3000
 2386TIP3   OH228648   1.415   2.798  11.918  0.0445  0.8607  0.0806
 2386TIP3    H128649   1.431   2.812  12.011 -1.1424  0.3361  0.3875
 2386TIP3    H228650   1.359   2.872  11.893 -0.7490  0.2911  0.1233
 2387TIP3   OH228651   1.701   4.667   5.957 -0.4153 -0.6750  0.0825
 2387TIP3    H128652   1.733   4.661   5.867  0.5764 -0.4457  0.4144
 2387TIP3    H228653   1.778   4.651   6.011 -0.6472  0.8205  0.9009
 2388TIP3   OH228654   2.425   4.550  15.287 -0.5004 -0.0404  0.5318
 2388TIP3    H128655   2.349   4.495  15.268 -1.3429  1.0513  0.7080
 2388TIP3    H228656   2.432   4.549  15.382 -0.2684 -0.1520  0.5156
 2389TIP3   OH228657   0.285   1.072   1.943 -0.5255 -0.3122 -0.1596
 2389TIP3    H128658   0.275   1.056   1.849 -1.4490 -1.4578  0.1234
 2389TIP3    H228659   0.370   1.035   1.965  0.3720  1.2546 -0.7948
 2390TIP3   OH228660   4.795   2.751   0.915  1.0061  0.4527  0.4107
 2390TIP3    H128661   4.738   2.704   0.975  0.9910 -0.6231 -0.4085
 2390TIP3    H228662   4.737   2.808   0.865  1.0258  1.3966  1.4127
 2391TIP3   OH228663   6.006   6.523  14.171 -0.2956  0.1137  0.1678
 2391TIP3    H128664   5.918   6.557  14.154 -0.7601 -0.1437  1.9082
 2391TIP3    H228665   6.062   6.601  14.170 -0.9182  0.6027  1.2798
 2392TIP3   OH228666   5.983   1.330  16.057  0.1597  0.0821  0.0681
 2392TIP3    H128667   5.923   1.380  16.112 -0.6340 -1.7364  0.9340
 2392TIP3    H228668   5.954   1.347  15.967  0.0626  1.3065  0.3143
 2393TIP3   OH228669   3.470   3.256  15.957  0.4131 -0.4994 -0.2107
 2393TIP3    H128670   3.399   3.200  15.987  0.8298 -0.9568 -0.0647
 2393TIP3    H228671   3.524   3.270  16.035  0.6305 -0.3766 -0.3822
 2394TIP3   OH228672   6.726   5.947  11.090  0.4474  0.5670  0.0439
 2394TIP3    H128673   6.765   5.936  11.003 -1.8222 -2.8673 -0.7025
 2394TIP3    H228674   6.784   5.898  11.149  1.8758  2.7325  0.5692
 2395TIP3   OH228675   1.622   0.156  12.972 -0.0328 -0.1307 -0.6825
 2395TIP3    H128676   1.575   0.075  12.952  0.0415 -0.0660 -1.1509
 2395TIP3    H228677   1.656   0.185  12.887  1.1998 -0.3948 -0.3005
 2396TIP3   OH228678   4.132   0.110   5.375  0.1383  0.0566 -0.7982
 2396TIP3    H128679   4.069   0.182   5.380  0.0793 -0.0413  0.1204
 2396TIP3    H228680   4.104   0.049   5.444  0.7719 -0.3607 -0.9026
 2397TIP3   OH228681   1.939   5.126  14.958 -0.4095  0.2124 -0.2155
 2397TIP3    H128682   1.992   5.206  14.961  1.2599 -0.8869  0.7572
 2397TIP3    H228683   1.879   5.140  14.885  0.6165  1.8843 -0.7840
 2398TIP3   OH228684   2.186   0.507   4.696 -0.6694  0.3634 -0.1572
 2398TIP3    H128685   2.280   0.503   4.678 -1.0303 -1.0586 -2.0764
 2398TIP3    H228686   2.146   0.509   4.609 -2.4899 -2.1952  0.5244
 2399TIP3   OH228687   5.928   3.077   2.002 -0.2696  0.1698  0.5188
 2399TIP3    H128688   5.967   3.038   2.080 -0.7986  0.9965  1.2207
 2399TIP3    H228689   5.888   3.003   1.956 -3.1732  0.0049  2.9280
 2400TIP3   OH228690   0.212   4.683  14.301  0.1630 -0.2321  0.5040
 2400TIP3    H128691   0.292   4.673  14.250 -1.0329 -1.9404 -1.1527
 2400TIP3    H228692   0.210   4.608  14.360 -2.0267 -2.5866 -2.2417
 2401TIP3   OH228693   3.996   6.044   2.208  0.0161 -0.2970  0.0043
 2401TIP3    H128694   3.952   6.128   2.204  0.9424  0.2649  0.9626
 2401TIP3    H228695   4.069   6.058   2.268  2.3098 -0.8099 -2.4497
 2402TIP3   OH228696   0.739   3.217   1.370 -0.7783  0.4330  0.4853
 2402TIP3    H128697   0.751   3.224   1.275  3.5796  0.1685  0.8059
 2402TIP3    H228698   0.724   3.307   1.398  0.6086  0.9318 -0.2700
 2403TIP3   OH228699   5.944   0.272  12.698  0.5138 -0.2122 -0.2248
 2403TIP3    H128700   5.976   0.268  12.608  0.6255 -0.8966 -0.1607
 2403TIP3    H228701   5.851   0.292  12.690  0.9755  2.1878 -0.3967
 2404TIP3   OH228702   3.329   6.529  11.231 -0.3638  0.0691 -0.5800
 2404TIP3    H128703   3.357   6.621  11.223 -1.1730  0.2127 -1.9875
 2404TIP3    H228704   3.317   6.500  11.141 -1.0651 -1.1372 -0.1137
 2405TIP3   OH228705   0.312   2.923   5.109  0.1580 -0.6199 -0.1673
 2405TIP3    H128706   0.312   2.876   5.026  0.0109 -1.0718  0.0820
 2405TIP3    H228707   0.263   2.866   5.168  1.3104 -0.8827  0.5576
 2406TIP3   OH228708   3.675   6.427  11.983  0.3385 -0.4350 -0.6434
 2406TIP3    H128709   3.741   6.391  11.923  0.3282 -0.5295 -0.5988
 2406TIP3    H228710   3.724   6.485  12.041  0.4562 -0.8450 -0.3271
 2407TIP3   OH228711   3.246   4.101   1.275  0.3505  0.0999  0.2457
 2407TIP3    H128712   3.238   4.015   1.234  1.0390 -0.1698  0.6542
 2407TIP3    H228713   3.308   4.087   1.347  0.2149  0.8642  0.5164
 2408TIP3   OH228714   1.570   2.683   0.113  0.0048 -0.6090  0.0075
 2408TIP3    H128715   1.623   2.665   0.191  0.2557 -3.0820 -0.6477
 2408TIP3    H228716   1.486   2.713   0.149  0.4373 -0.7403  1.1981
 2409TIP3   OH228717   3.462   4.412  12.447 -0.0752 -0.3221 -0.0709
 2409TIP3    H128718   3.474   4.319  12.465 -0.8736 -0.7623 -1.5815
 2409TIP3    H228719   3.549   4.445  12.427  0.1692 -0.8059  0.1865
 2410TIP3   OH228720   2.245   0.717   5.724 -0.1437 -0.0364 -0.0975
 2410TIP3    H128721   2.236   0.637   5.672 -0.5471 -0.2481  0.2971
 2410TIP3    H228722   2.335   0.747   5.706  0.9282 -1.9323  1.6482
 2411TIP3   OH228723   1.491   2.954  16.338  0.0114 -0.3752 -0.2250
 2411TIP3    H128724   1.476   3.020  16.406 -1.8867  0.7322 -1.6146
 2411TIP3    H228725   1.416   2.963  16.279  1.2630 -1.7216 -2.1412
 2412TIP3   OH228726   1.195   4.463  14.367 -0.3051  0.1592  0.3885
 2412TIP3    H128727   1.257   4.436  14.301 -0.7087  0.3527 -0.0771
 2412TIP3    H228728   1.188   4.558  14.357 -2.0203 -0.0517 -0.7851
 2413TIP3   OH228729   5.345   6.725  14.099  0.4077 -0.1956  0.6890
 2413TIP3    H128730   5.332   6.747  14.006  0.0015 -2.6116  0.1106
 2413TIP3    H228731   5.257   6.726  14.136  0.4229 -0.4526  0.7359
 2414TIP3   OH228732   2.448   0.027  13.300 -0.1914  0.6310  0.2238
 2414TIP3    H128733   2.496  -0.026  13.237 -2.0143 -0.7304 -0.0960
 2414TIP3    H228734   2.355   0.011  13.281 -0.8257  2.8933  1.0155
 2415TIP3   OH228735   1.539   1.650  15.844  0.5661  0.4901 -0.5452
 2415TIP3    H128736   1.459   1.602  15.820  1.1494  0.2022 -1.9807
 2415TIP3    H228737   1.539   1.727  15.786  0.3328  1.5473  0.8121
 2416TIP3   OH228738   1.200   3.066   5.436 -0.4023 -0.2753 -0.1799
 2416TIP3    H128739   1.167   3.117   5.510  0.1325 -1.1596  0.6911
 2416TIP3    H228740   1.180   2.975   5.458 -0.2473 -0.5510 -1.1292
 2417TIP3   OH228741   0.829   6.276   6.093  0.0213  0.5957 -0.4838
 2417TIP3    H128742   0.802   6.305   6.007 -0.0648  0.1662 -0.6063
 2417TIP3    H228743   0.922   6.257   6.084  0.5520  2.7260  0.1130
 2418TIP3   OH228744   3.119   1.592  16.121 -0.1277  0.0261 -0.1930
 2418TIP3    H128745   3.141   1.605  16.213  1.6487  0.0483 -0.5998
 2418TIP3    H228746   3.145   1.673  16.078 -0.8525 -0.0240 -0.7423
 2419TIP3   OH228747   3.579   1.070  11.100  0.4470 -0.4785  0.1870
 2419TIP3    H128748   3.643   1.122  11.148  0.6871 -1.6368  1.1478
 2419TIP3    H228749   3.541   1.131  11.037  2.1997  0.3334 -0.1270
 2420TIP3   OH228750   4.616   1.972  14.806 -0.5946 -0.0386 -0.1382
 2420TIP3    H128751   4.525   2.003  14.802 -0.2831  1.0517  0.6909
 2420TIP3    H228752   4.635   1.966  14.900 -0.1612 -1.3697 -0.2984
 2421TIP3   OH228753   0.471   4.596   3.923 -0.9139 -0.5580  0.0279
 2421TIP3    H128754   0.538   4.627   3.983  0.0054  1.5870 -1.9779
 2421TIP3    H228755   0.453   4.506   3.952  0.9590 -0.3311  2.1707
 2422TIP3   OH228756   5.399   4.379  14.008 -0.1993 -0.0073  0.1509
 2422TIP3    H128757   5.367   4.289  14.009  1.6198 -0.7076  1.6174
 2422TIP3    H228758   5.478   4.376  13.954 -2.0844  1.5843 -3.0438
 2423TIP3   OH228759   0.608   3.366  14.145  0.0292  0.2639  0.2655
 2423TIP3    H128760   0.626   3.289  14.092 -2.0666  1.1647 -1.9181
 2423TIP3    H228761   0.657   3.437  14.104 -1.0841  0.8404 -0.1254
 2424TIP3   OH228762   4.381   4.938   3.432 -0.3045  0.4284  0.5556
 2424TIP3    H128763   4.376   4.844   3.451  1.1645  0.0511 -0.7704
 2424TIP3    H228764   4.474   4.960   3.439 -0.2855  1.2298 -1.5144
 2425TIP3   OH228765   4.584   5.248   1.441  0.0134 -0.4455 -0.1504
 2425TIP3    H128766   4.602   5.222   1.531  0.4196 -0.6418 -0.2876
 2425TIP3    H228767   4.644   5.321   1.424 -2.2665  1.7956  0.7934
 2426TIP3   OH228768   6.742   0.518   1.194 -0.2198 -0.0374  0.3052
 2426TIP3    H128769   6.728   0.477   1.279  0.1720  2.3067  1.5640
 2426TIP3    H228770   6.656   0.550   1.168 -0.0573  0.6438  0.5916
 2427TIP3   OH228771   1.375   2.676  14.230 -0.5710  0.1365  0.3420
 2427TIP3    H128772   1.372   2.720  14.145  0.8020  1.2478  0.8266
 2427TIP3    H228773   1.345   2.742  14.292  1.3290  0.4056  1.0586
 2428TIP3   OH228774   6.151   4.112  11.583 -0.3324  0.1924  0.3245
 2428TIP3    H128775   6.201   4.172  11.638  0.9182 -0.2116 -0.3295
 2428TIP3    H228776   6.093   4.169  11.532  0.1610  0.7586  0.3838
 2429TIP3   OH228777   4.659   4.661  14.277  0.3244 -0.0897  0.9906
 2429TIP3    H128778   4.713   4.593  14.317  1.7879  0.8888  0.7420
 2429TIP3    H228779   4.657   4.731  14.342  2.7445  1.5286 -0.5131
 2430TIP3   OH228780   3.409   0.079  12.382  0.3698 -0.3024  0.0495
 2430TIP3    H128781   3.460   0.074  12.463  0.5265 -0.7717 -0.0752
 2430TIP3    H228782   3.422  -0.006  12.340 -0.2784 -0.3252 -0.1240
 2431TIP3   OH228783   3.025   4.948  13.651 -0.2042 -0.2801  0.0422
 2431TIP3    H128784   3.088   5.014  13.624 -0.6459  0.5791  1.0414
 2431TIP3    H228785   3.001   4.972  13.741 -1.2844 -1.0971  0.0025
 2432TIP3   OH228786   5.798   3.315  15.071  0.1785 -0.1662  0.3691
 2432TIP3    H128787   5.803   3.280  14.982  0.6684  0.0798  0.2974
 2432TIP3    H228788   5.802   3.410  15.061 -0.8065 -0.0873  0.5905
 2433TIP3   OH228789   5.324   2.211  15.285 -0.2256 -0.0997 -0.4321
 2433TIP3    H128790   5.352   2.230  15.375 -1.8340  1.3458 -0.1790
 2433TIP3    H228791   5.230   2.193  15.293 -0.5665  0.8971 -1.9216
 2434TIP3   OH228792   0.214   1.093  12.943  0.2040  0.0139 -0.7159
 2434TIP3    H128793   0.216   1.140  12.859 -1.2426  2.0860  0.3057
 2434TIP3    H228794   0.132   1.044  12.941  0.8990 -1.1692 -1.0884
 2435TIP3   OH228795   1.506   3.681  13.329  0.5026 -0.1426 -0.1511
 2435TIP3    H128796   1.505   3.747  13.398  0.3456  2.6292 -2.5736
 2435TIP3    H228797   1.599   3.675  13.304  0.2045  1.6272 -1.9650
 2436TIP3   OH228798   1.518   6.353   5.606  0.2595  0.0879 -0.0341
 2436TIP3    H128799   1.524   6.346   5.701 -0.6161  1.6006  0.1473
 2436TIP3    H228800   1.431   6.321   5.585 -0.0198  0.9370 -0.1907
 2437TIP3   OH228801   3.718   3.981  10.167  0.2659  0.4795  0.1920
 2437TIP3    H128802   3.644   3.983  10.228 -0.3347  0.9172 -0.5242
 2437TIP3    H228803   3.794   4.003  10.221  0.1303 -1.4237  1.2518
 2438TIP3   OH228804   3.540   1.033  12.628 -0.0707  0.3249  0.5894
 2438TIP3    H128805   3.499   1.109  12.669 -0.7339  0.7910 -0.8726
 2438TIP3    H228806   3.557   1.061  12.537  0.4642 -0.9821  0.2654
 2439TIP3   OH228807   2.614   0.382  16.166  0.5202  0.0204  0.0947
 2439TIP3    H128808   2.649   0.471  16.170 -4.7714  2.4958 -0.8855
 2439TIP3    H228809   2.595   0.368  16.074 -2.4635 -0.3055  0.6657
 2440TIP3   OH228810   3.893   3.638  12.120 -0.2748 -0.0253  0.2490
 2440TIP3    H128811   3.871   3.554  12.079  0.2472 -0.5745  1.0568
 2440TIP3    H228812   3.820   3.655  12.179 -0.9869  0.7254 -0.8151
 2441TIP3   OH228813   3.812   3.159  11.526  0.2706  0.1973  0.4275
 2441TIP3    H128814   3.774   3.230  11.475 -1.5918  0.4000  1.9880
 2441TIP3    H228815   3.788   3.179  11.616  0.0709 -2.1757  0.9624
 2442TIP3   OH228816   0.094   5.778   0.031  0.1476  0.6226  0.0319
 2442TIP3    H128817   0.172   5.770  -0.026  1.1708 -1.2088  1.5773
 2442TIP3    H228818   0.022   5.749  -0.025  1.0798 -0.8709 -0.4831
 2443TIP3   OH228819   0.942   3.312  13.499  0.1867 -0.2195  0.6527
 2443TIP3    H128820   0.950   3.338  13.591  2.1645 -0.6678  0.6485
 2443TIP3    H228821   0.957   3.392  13.450  1.0219 -0.3256  0.7170
 2444TIP3   OH228822   5.527   5.597   1.496 -0.9053 -0.2630 -0.1620
 2444TIP3    H128823   5.464   5.667   1.481 -1.8378 -1.3003 -1.3089
 2444TIP3    H228824   5.576   5.624   1.574 -1.7198  1.2968 -0.1642
 2445TIP3   OH228825   4.643   2.786  11.632 -0.1471 -0.8961 -0.8301
 2445TIP3    H128826   4.713   2.769  11.695  0.6410 -2.3976 -2.0338
 2445TIP3    H228827   4.562   2.767  11.679  0.3262 -0.4062  0.1939
 2446TIP3   OH228828   2.420   6.459   0.298  0.0989  0.2784 -0.2109
 2446TIP3    H128829   2.391   6.542   0.260 -0.7008 -0.5740 -1.5586
 2446TIP3    H228830   2.465   6.414   0.226 -1.8992 -1.6082 -0.4032
 2447TIP3   OH228831   6.056   2.699  16.535  0.1260 -0.5678  0.2989
 2447TIP3    H128832   6.084   2.747  16.613 -0.4932 -1.6929  1.2441
 2447TIP3    H228833   6.135   2.653  16.505  0.3990 -0.0202  0.1765
 2448TIP3   OH228834   5.120   0.399   6.750 -0.3311 -0.1620  0.5061
 2448TIP3    H128835   5.106   0.311   6.784  0.6225 -0.4679  0.1403
 2448TIP3    H228836   5.205   0.394   6.705 -0.2608  0.9405  0.4915
 2449TIP3   OH228837   3.385   6.224   3.229 -0.5897 -0.1435 -0.0241
 2449TIP3    H128838   3.412   6.211   3.138  0.9897  0.4768  0.3337
 2449TIP3    H228839   3.467   6.229   3.278 -1.4078  0.0205  1.3757
 2450TIP3   OH228840   3.099   6.382   5.266 -0.1555  0.1509  0.2492
 2450TIP3    H128841   3.129   6.471   5.247 -0.2497  0.4446  1.4047
 2450TIP3    H228842   3.084   6.381   5.360  0.8588 -1.4053  0.4401
 2451TIP3   OH228843   6.742   6.475  16.627  0.0484 -0.6255  0.2514
 2451TIP3    H128844   6.731   6.520  16.711  0.6973  0.7094 -0.3588
 2451TIP3    H228845   6.652   6.460  16.597 -0.2059  1.3411 -0.0758
 2452TIP3   OH228846   5.930   3.656  12.157  0.1487 -0.8425  0.3486
 2452TIP3    H128847   6.001   3.633  12.098 -0.6764 -0.4022 -0.8556
 2452TIP3    H228848   5.974   3.679  12.239  1.4608  0.0497 -0.5501
 2453TIP3   OH228849   0.598   0.213  15.028  0.6192 -0.1016 -0.0598
 2453TIP3    H128850   0.623   0.296  14.988  1.9133 -0.5745 -0.2771
 2453TIP3    H228851   0.502   0.215  15.030  0.6080  1.0041 -0.8685
 2454TIP3   OH228852   0.927   2.426  16.894  0.3539  0.1109  0.7876
 2454TIP3    H128853   0.928   2.508  16.844  0.2632 -0.4287 -0.1146
 2454TIP3    H228854   1.017   2.393  16.888 -0.0044 -0.7333 -0.3576
 2455TIP3   OH228855   2.054   3.384  11.394  0.3112  0.2928 -0.1529
 2455TIP3    H128856   2.007   3.317  11.345 -1.6660  1.0081  0.6790
 2455TIP3    H228857   2.122   3.414  11.334 -1.3094  0.3385 -2.0695
 2456TIP3   OH228858   6.791   5.417  14.912  0.3927 -0.1232 -0.3492
 2456TIP3    H128859   6.705   5.382  14.885  1.1689 -1.6387 -1.0030
 2456TIP3    H228860   6.781   5.437  15.005 -0.6066 -0.5070 -0.3605
 2457TIP3   OH228861   0.744   0.246   4.761  0.9433  0.0843 -0.5976
 2457TIP3    H128862   0.735   0.172   4.702  2.7973 -1.0704  0.4773
 2457TIP3    H228863   0.808   0.218   4.826  0.8263  2.2084  0.5370
 2458TIP3   OH228864   5.831   5.132  12.139 -0.1156  0.2940  0.1018
 2458TIP3    H128865   5.769   5.060  12.124 -0.1257  0.6173 -1.7208
 2458TIP3    H228866   5.789   5.208  12.099  1.1775  0.6512 -0.6484
 2459TIP3   OH228867   1.400   1.040   6.539  0.4518  0.4075 -0.0277
 2459TIP3    H128868   1.335   1.109   6.548 -1.2610 -1.2901  1.4170
 2459TIP3    H228869   1.477   1.073   6.585 -0.2612  1.4111  0.4656
 2460TIP3   OH228870   5.042   4.663   1.993 -0.0689  0.0683  0.0513
 2460TIP3    H128871   5.128   4.702   1.978 -0.2599 -0.1228 -1.8277
 2460TIP3    H228872   5.000   4.663   1.906 -1.6806 -0.5053  0.7830
 2461TIP3   OH228873   1.265   3.411  15.893 -0.3898 -0.1155 -0.1405
 2461TIP3    H128874   1.262   3.492  15.843  2.1719  0.7100  0.8964
 2461TIP3    H228875   1.322   3.353  15.841 -0.0915 -0.3029  0.3893
 2462TIP3   OH228876   6.498   2.880  13.099 -0.4494  0.3149 -0.1767
 2462TIP3    H128877   6.504   2.921  13.186 -1.9431 -0.2966  0.2551
 2462TIP3    H228878   6.484   2.953  13.040  0.4458  0.7280  0.0989
 2463TIP3   OH228879   3.488   6.216  13.402  0.1535 -0.3960 -0.7281
 2463TIP3    H128880   3.530   6.140  13.361  0.2067  1.0264 -3.6187
 2463TIP3    H228881   3.428   6.179  13.467  0.4950 -2.8805 -1.7230
 2464TIP3   OH228882   2.030   6.625  13.548 -0.1061 -0.1234  0.1828
 2464TIP3    H128883   2.055   6.640  13.639  0.4469  1.8652 -0.2597
 2464TIP3    H228884   2.113   6.618  13.501 -0.3785  0.5076 -0.4061
 2465TIP3   OH228885   0.477   2.092  17.001  0.2905  0.4796 -0.3412
 2465TIP3    H128886   0.552   2.081  16.942  1.4412 -0.3813  1.1747
 2465TIP3    H228887   0.454   2.003  17.027  0.0276  0.8436  0.7276
 2466TIP3   OH228888   4.575   5.772   4.499  0.3523 -0.0689  0.3523
 2466TIP3    H128889   4.615   5.692   4.533 -1.0131 -0.6467  0.7028
 2466TIP3    H228890   4.554   5.752   4.408 -0.1060 -0.1624  0.4758
 2467TIP3   OH228891   0.548   4.725  11.161 -0.1253  0.1879 -0.4391
 2467TIP3    H128892   0.590   4.639  11.156 -0.0945  0.1731  0.0709
 2467TIP3    H228893   0.544   4.755  11.070  0.6646  0.0308 -0.5273
 2468TIP3   OH228894   1.052   4.469  15.024  0.1566  0.7907  0.4687
 2468TIP3    H128895   1.062   4.434  15.112  1.0955  2.7504  1.1884
 2468TIP3    H228896   1.136   4.509  15.004 -0.8799  2.7232 -0.2427
 2469TIP3   OH228897   0.315   5.027  11.516  0.4567  0.1936  0.4339
 2469TIP3    H128898   0.334   5.079  11.438  1.7262 -0.6755  0.1276
 2469TIP3    H228899   0.322   4.936  11.487  0.7753 -0.1470  1.5152
 2470TIP3   OH228900   0.575   1.053  13.762  0.4390  0.5503  0.8872
 2470TIP3    H128901   0.595   1.140  13.797 -1.6924  1.4758  0.0065
 2470TIP3    H228902   0.519   1.013  13.828 -1.5448  1.3290 -0.2291
 2471TIP3   OH228903   3.436   1.199   4.558  0.4822 -0.4162  0.1992
 2471TIP3    H128904   3.348   1.216   4.593  0.2094 -0.9193 -0.2197
 2471TIP3    H228905   3.424   1.123   4.500  1.4732 -1.4970  1.3423
 2472TIP3   OH228906   0.028   4.163   6.297 -0.7638 -0.0877 -0.3606
 2472TIP3    H128907   0.058   4.254   6.287  0.1419 -0.4704 -1.2529
 2472TIP3    H228908  -0.049   4.170   6.354 -0.1873  1.1474  0.3152
 2473TIP3   OH228909   0.413   2.948  13.942 -0.2577  0.5395  0.8629
 2473TIP3    H128910   0.489   2.897  13.913 -0.1352  0.8963  0.5458
 2473TIP3    H228911   0.428   2.961  14.036  0.1736  0.7644  0.7666
 2474TIP3   OH228912   6.204   3.875  11.727  0.7284  0.2245  0.2686
 2474TIP3    H128913   6.298   3.867  11.738  0.6898 -1.1299 -0.1110
 2474TIP3    H228914   6.191   3.962  11.690  1.7396  0.7531  1.1066
 2475TIP3   OH228915   1.164   6.376  11.193 -0.2468  0.1698  0.6245
 2475TIP3    H128916   1.107   6.447  11.225 -1.8537 -1.6787  2.1344
 2475TIP3    H228917   1.106   6.300  11.188  1.1641 -0.8369 -2.0236
 2476TIP3   OH228918   6.610   4.554  12.963  0.2725  0.1115 -0.2965
 2476TIP3    H128919   6.635   4.613  13.034 -1.1019 -0.2542  0.5225
 2476TIP3    H228920   6.549   4.605  12.909 -0.9593 -0.5350  0.4422
 2477TIP3   OH228921   1.950   4.830   1.818 -0.4147 -0.2711  0.0862
 2477TIP3    H128922   1.938   4.853   1.726 -0.3826 -1.4571 -0.2318
 2477TIP3    H228923   1.912   4.904   1.866 -1.3701 -0.1089 -0.8789
 2478TIP3   OH228924   2.649   5.836   3.000 -0.4133 -0.0569 -0.5745
 2478TIP3    H128925   2.578   5.822   2.937 -1.6448 -0.7818  0.8828
 2478TIP3    H228926   2.630   5.773   3.070  2.1440 -0.8377 -0.4945
 2479TIP3   OH228927   2.007   1.411   2.104  0.1317 -0.1769  0.1179
 2479TIP3    H128928   2.092   1.371   2.086  0.3637  1.1296 -2.0206
 2479TIP3    H228929   1.985   1.381   2.192  2.5218 -0.9959  0.5165
 2480TIP3   OH228930   6.486   6.725   4.571  0.5247  0.3228  0.5232
 2480TIP3    H128931   6.507   6.763   4.657 -0.3856 -0.0374  0.9179
 2480TIP3    H228932   6.418   6.660   4.590  0.4631  0.0955 -0.4489
 2481TIP3   OH228933   3.100   0.906   3.807 -0.2004  0.5380  0.0572
 2481TIP3    H128934   3.037   0.835   3.804 -2.0369  2.0955 -0.3726
 2481TIP3    H228935   3.072   0.960   3.881  0.7463  1.1677 -0.0185
 2482TIP3   OH228936   6.739   4.623  13.688 -0.2339  0.4611  0.7613
 2482TIP3    H128937   6.709   4.584  13.605 -0.7020  1.9171  0.1988
 2482TIP3    H228938   6.704   4.565  13.756  1.3575 -1.5634 -0.0575
 2483TIP3   OH228939   0.223   6.649   3.843  0.5915  0.0804 -0.1744
 2483TIP3    H128940   0.317   6.628   3.847  0.8511  1.2664  0.4828
 2483TIP3    H228941   0.179   6.568   3.866  1.4578 -0.5219 -0.5964
 2484TIP3   OH228942   2.429   0.590   1.539 -0.1486 -0.3153 -0.5401
 2484TIP3    H128943   2.444   0.633   1.623  0.4099 -0.4241 -0.5790
 2484TIP3    H228944   2.425   0.661   1.475 -1.1692 -0.1911 -0.3437
 2485TIP3   OH228945   4.207   1.938   3.610  0.2017  0.0982 -0.3881
 2485TIP3    H128946   4.148   1.893   3.549 -1.5057 -0.3966  1.5252
 2485TIP3    H228947   4.225   2.022   3.567 -1.6703  0.1517 -1.1930
 2486TIP3   OH228948   4.522   3.852   3.403  0.6571 -0.4349 -0.1029
 2486TIP3    H128949   4.560   3.880   3.319  1.1193 -0.9039 -0.0526
 2486TIP3    H228950   4.480   3.769   3.384  0.4190 -0.3515  0.0478
 2487TIP3   OH228951   4.507   4.263  14.929 -0.0528 -0.5554  0.1511
 2487TIP3    H128952   4.441   4.208  14.971  0.6176  0.3246  2.4960
 2487TIP3    H228953   4.585   4.207  14.925  0.7016  0.2059  2.7623
 2488TIP3   OH228954   6.719   3.071  15.622  0.1184  0.2819 -0.0347
 2488TIP3    H128955   6.688   2.989  15.660  0.5457  1.0697  2.1456
 2488TIP3    H228956   6.643   3.106  15.575 -0.9003 -0.0604  1.3186
 2489TIP3   OH228957   2.880   6.073   4.185  0.4504 -0.2771 -0.1960
 2489TIP3    H128958   2.907   6.079   4.276  0.4053  0.5025 -0.2268
 2489TIP3    H228959   2.843   5.985   4.176  0.1765 -0.2471  0.6118
 2490TIP3   OH228960   3.314   1.387  16.099  0.0870  0.0331 -0.0994
 2490TIP3    H128961   3.250   1.457  16.091  1.1567  1.1490  0.7535
 2490TIP3    H228962   3.395   1.425  16.066  0.9183 -0.4459  1.3073
 2491TIP3   OH228963   5.637   6.177   5.175  0.1502 -0.0064  0.1033
 2491TIP3    H128964   5.657   6.239   5.245 -0.8235 -0.3420  0.6890
 2491TIP3    H228965   5.610   6.231   5.102  0.3658  0.3078  0.2538
 2492TIP3   OH228966   6.734   5.764   4.949  0.1488 -0.2351  0.7394
 2492TIP3    H128967   6.811   5.714   4.923 -0.4294 -0.2632 -0.9893
 2492TIP3    H228968   6.768   5.853   4.965  0.3973  0.0348 -1.0963
 2493TIP3   OH228969   1.081   2.849  14.294  0.8634 -0.1830  0.3470
 2493TIP3    H128970   1.086   2.798  14.374 -3.0611  0.4921  1.2330
 2493TIP3    H228971   1.032   2.793  14.233 -0.3247  1.0805  0.0976
 2494TIP3   OH228972   5.120   2.293   2.316 -0.4080 -0.0122  0.3775
 2494TIP3    H128973   5.160   2.258   2.237 -1.5721  1.0644 -0.7419
 2494TIP3    H228974   5.029   2.310   2.291 -0.2364  2.5283  1.2052
 2495TIP3   OH228975   4.526   1.762  16.397  0.5991 -0.3862 -0.0620
 2495TIP3    H128976   4.585   1.777  16.471  2.8615 -2.2243 -1.3706
 2495TIP3    H228977   4.499   1.671  16.406  0.0477 -0.3243 -0.9344
 2496TIP3   OH228978   3.674   4.713   2.935 -0.0549  0.2766 -0.0384
 2496TIP3    H128979   3.655   4.761   2.854 -1.9599  0.5123  0.4825
 2496TIP3    H228980   3.720   4.775   2.990  1.3308  0.0895 -0.9400
 2497TIP3   OH228981   3.975   0.515   3.739 -0.3450  0.4514 -0.6229
 2497TIP3    H128982   3.892   0.560   3.724 -0.8251  0.9973  2.8179
 2497TIP3    H228983   4.041   0.573   3.703 -1.2653  1.4602 -0.7379
 2498TIP3   OH228984   2.068   6.302  15.609 -0.0382  0.1092 -0.3995
 2498TIP3    H128985   2.127   6.280  15.681 -1.0850 -1.3378  0.0527
 2498TIP3    H228986   2.055   6.220  15.562 -1.3765  0.4665 -0.7018
 2499TIP3   OH228987   3.225   2.293   4.628  0.3318  0.3580  0.0073
 2499TIP3    H128988   3.206   2.268   4.538  0.6516 -0.5755  0.1842
 2499TIP3    H228989   3.152   2.259   4.679  0.1776  0.8376  0.1137
 2500TIP3   OH228990   2.109   0.043   5.093 -0.3402 -0.0549 -0.2271
 2500TIP3    H128991   2.145   0.128   5.118  0.1697 -0.3804  0.1507
 2500TIP3    H228992   2.178   0.001   5.042 -0.1051 -0.7495  0.6397
 2501TIP3   OH228993   1.930   3.018  13.047  0.3671  0.8819  0.7577
 2501TIP3    H128994   1.999   2.996  13.109  0.3792  2.4391  1.3387
 2501TIP3    H228995   1.895   3.102  13.078 -1.0072  0.6943 -0.1814
 2502TIP3   OH228996   6.639   2.921  10.749  0.0477 -0.3782 -0.3346
 2502TIP3    H128997   6.671   3.011  10.753  1.9095 -0.9959 -0.0659
 2502TIP3    H228998   6.668   2.882  10.831 -0.0758 -1.4208 -0.7752
 2503TIP3   OH228999   6.610   6.749   3.890  0.1846 -0.0755  0.5876
 2503TIP3    H129000   6.527   6.745   3.842  0.3506  0.2707  0.2682
 2503TIP3    H229001   6.605   6.831   3.940  0.3526 -0.0348  0.5376
 2504TIP3   OH229002   0.997   3.720  13.725 -0.8823 -0.4093 -0.4449
 2504TIP3    H129003   1.036   3.727  13.812 -2.9953 -0.5451  0.5741
 2504TIP3    H229004   0.970   3.628  13.718  0.8548 -0.8749 -2.0260
 2505TIP3   OH229005   1.622   2.624  14.963 -0.1844  0.0725 -0.0871
 2505TIP3    H129006   1.663   2.570  15.031  0.2042 -1.3212 -1.3814
 2505TIP3    H229007   1.644   2.714  14.987 -0.5523 -0.3219  1.9439
 2506TIP3   OH229008   5.791   0.218  10.644 -0.2443 -0.0706 -0.1525
 2506TIP3    H129009   5.716   0.158  10.638 -1.0692  1.0620 -2.2600
 2506TIP3    H229010   5.752   0.305  10.651  0.8193  0.5684 -1.5783
 2507TIP3   OH229011   2.193   5.805  16.792  1.1484  0.0651 -0.0607
 2507TIP3    H129012   2.223   5.714  16.800 -0.6751 -0.4960  0.9993
 2507TIP3    H229013   2.148   5.808  16.708  1.8318  0.2090 -0.4333
 2508TIP3   OH229014   2.978   4.839   0.691  0.4152  0.3896  0.4718
 2508TIP3    H129015   2.968   4.756   0.644  2.7857 -0.4469  1.2691
 2508TIP3    H229016   2.891   4.859   0.724 -0.9481  0.0197 -2.5890
 2509TIP3   OH229017   6.406   4.445  15.856 -0.6109 -0.7136 -0.0763
 2509TIP3    H129018   6.443   4.505  15.792 -0.6413 -2.2019 -1.5307
 2509TIP3    H229019   6.480   4.389  15.883 -1.0906 -1.6060 -0.5787
 2510TIP3   OH229020   0.391   1.752  15.068  0.3307 -0.1860 -0.5469
 2510TIP3    H129021   0.320   1.775  15.009 -0.5986 -0.9338  0.2282
 2510TIP3    H229022   0.404   1.658  15.055  0.4309 -0.2696  0.0813
 2511TIP3   OH229023   4.884   3.202   0.398 -0.0044  0.2753  0.2528
 2511TIP3    H129024   4.891   3.186   0.303 -1.6146  0.4577  0.0785
 2511TIP3    H229025   4.973   3.227   0.424  0.6137 -0.4073 -1.0872
 2512TIP3   OH229026   6.573   1.623  13.495  0.0615 -0.3700 -0.8830
 2512TIP3    H129027   6.541   1.701  13.451 -0.2779 -0.4731 -0.8262
 2512TIP3    H229028   6.531   1.550  13.449 -0.3946 -0.4744 -0.3157
 2513TIP3   OH229029   4.786   0.101  15.848  0.4249  0.3083 -0.1687
 2513TIP3    H129030   4.743   0.093  15.934 -1.7722 -2.5209 -1.3279
 2513TIP3    H229031   4.879   0.096  15.868 -0.0290 -1.6482  2.0526
 2514TIP3   OH229032   1.716   4.418  16.263  0.7031 -0.1069 -0.1826
 2514TIP3    H129033   1.764   4.494  16.296  0.9123  0.6955 -2.2232
 2514TIP3    H229034   1.625   4.433  16.290  0.9325  0.3052  0.3629
 2515TIP3   OH229035   1.500   5.462  13.266  0.1523  0.1856  0.4710
 2515TIP3    H129036   1.552   5.464  13.185  0.2765  0.3832  0.5565
 2515TIP3    H229037   1.412   5.438  13.237  0.3217 -0.3011  0.3431
 2516TIP3   OH229038   3.880   3.892  12.004 -0.0458 -0.1892 -0.2293
 2516TIP3    H129039   3.882   3.801  12.036 -2.9562 -0.2361  0.1306
 2516TIP3    H229040   3.849   3.943  12.080  0.3539  0.9080 -0.7868
 2517TIP3   OH229041   6.272   4.380  16.091 -0.2855  0.0135 -0.2915
 2517TIP3    H129042   6.223   4.305  16.057 -0.7776  0.4984 -0.6655
 2517TIP3    H229043   6.313   4.418  16.013  1.2185 -0.7596  0.0937
 2518TIP3   OH229044   4.720   3.951  17.170  0.2275 -0.4627 -0.2644
 2518TIP3    H129045   4.754   3.880  17.225 -0.9208 -0.1757  0.8723
 2518TIP3    H229046   4.642   3.913  17.128 -0.1928 -0.0047  0.0796
 2519TIP3   OH229047   0.891   2.839  12.632 -0.2528 -0.1083  0.5272
 2519TIP3    H129048   0.960   2.783  12.597 -0.6385 -0.3493  0.1398
 2519TIP3    H229049   0.934   2.922  12.651 -0.3512  0.6316 -2.1479
 2520TIP3   OH229050   6.552   1.908  13.694 -0.5052 -0.3195  0.3245
 2520TIP3    H129051   6.592   1.821  13.686 -0.1616 -0.0848 -0.6911
 2520TIP3    H229052   6.625   1.967  13.711 -0.1498  0.2988 -2.8230
 2521TIP3   OH229053   4.137   2.517   1.995  0.0444 -0.0550 -0.3846
 2521TIP3    H129054   4.087   2.503   1.914 -0.3804  0.2649 -0.1840
 2521TIP3    H229055   4.105   2.601   2.028  0.7408  0.1641 -0.2599
 2522TIP3   OH229056   0.369   5.702   5.072  0.1270  0.1974  0.7233
 2522TIP3    H129057   0.389   5.611   5.049 -0.6909  0.5000 -1.4674
 2522TIP3    H229058   0.285   5.720   5.030 -0.0474  1.8002  1.6405
 2523TIP3   OH229059   1.614   3.444  17.005 -0.2481 -0.0150 -0.9661
 2523TIP3    H129060   1.684   3.378  17.003 -0.0819  0.1588 -0.9355
 2523TIP3    H229061   1.544   3.402  17.055 -0.1320 -0.1584 -0.9180
 2524TIP3   OH229062   0.597   4.737  12.906  0.0942  0.0984  0.2555
 2524TIP3    H129063   0.679   4.727  12.954 -0.2167  0.1792  0.8132
 2524TIP3    H229064   0.531   4.697  12.963 -0.4834  1.3447  0.4944
 2525TIP3   OH229065   6.718   5.879  11.596 -0.2046  0.0425  0.0666
 2525TIP3    H129066   6.801   5.894  11.551  0.1791  1.8776  1.2755
 2525TIP3    H229067   6.727   5.791  11.633  1.8488  0.7372  1.4051
 2526TIP3   OH229068   0.078   4.225   4.035 -0.2905 -0.5531  0.1716
 2526TIP3    H129069   0.006   4.172   4.070 -0.7233  0.1782  0.4139
 2526TIP3    H229070   0.083   4.199   3.943 -1.5077  0.0447 -0.0940
 2527TIP3   OH229071   5.329   3.975  16.202  0.4237 -0.0587  0.6675
 2527TIP3    H129072   5.382   3.896  16.190 -2.1349 -2.2008  2.3287
 2527TIP3    H229073   5.384   4.033  16.254  2.4386 -0.6183 -0.6966
 2528TIP3   OH229074   3.861   2.321   0.927 -1.0176  0.2025  0.1738
 2528TIP3    H129075   3.817   2.248   0.971  0.3332 -0.1960  0.9231
 2528TIP3    H229076   3.954   2.302   0.936 -0.6709  0.9207 -1.5431
 2529TIP3   OH229077   5.183   5.083   0.678 -0.7182  0.1071  0.1484
 2529TIP3    H129078   5.096   5.088   0.638 -0.7609 -0.3305  0.1723
 2529TIP3    H229079   5.167   5.098   0.771 -0.4753  2.2531 -0.1077
 2530TIP3   OH229080   3.975   4.595   2.920 -0.0628 -0.7353 -0.2786
 2530TIP3    H129081   3.892   4.643   2.927  0.0121 -0.5569 -0.5767
 2530TIP3    H229082   4.018   4.633   2.844  1.5838  1.1954  1.4848
 2531TIP3   OH229083   5.069   0.284   4.461 -0.3094 -0.2967 -0.0653
 2531TIP3    H129084   5.133   0.336   4.412 -0.3232 -0.4066 -0.2016
 2531TIP3    H229085   5.121   0.232   4.522  0.0340 -2.5013 -2.0699
 2532TIP3   OH229086   0.983   0.821  16.511 -0.6903 -0.1468  0.0741
 2532TIP3    H129087   1.011   0.740  16.554  0.8933  1.3159  2.0258
 2532TIP3    H229088   0.887   0.821  16.521 -0.7144 -1.6801  0.1554
 2533TIP3   OH229089   3.991   4.036   3.416 -0.3145  0.1719  0.2808
 2533TIP3    H129090   4.080   4.025   3.449  0.1253  0.9181 -0.6267
 2533TIP3    H229091   3.960   3.947   3.401  0.2262 -0.0998  0.7433
 2534TIP3   OH229092   6.445   5.591   1.764  0.0153  0.7136 -0.3310
 2534TIP3    H129093   6.356   5.613   1.790  0.4522  1.0187  1.0225
 2534TIP3    H229094   6.477   5.532   1.833 -0.4270 -2.7076 -2.8067
 2535TIP3   OH229095   4.685   3.478  13.080  0.6067 -0.1831 -0.4075
 2535TIP3    H129096   4.773   3.446  13.060  0.1773 -0.6231 -1.7618
 2535TIP3    H229097   4.671   3.549  13.017 -0.1135 -0.3300 -0.4222
 2536TIP3   OH229098   0.645   4.333  14.723  0.3954  0.4706 -0.2628
 2536TIP3    H129099   0.622   4.388  14.798 -0.2734  1.2335 -0.9917
 2536TIP3    H229100   0.739   4.320  14.730  0.2340 -0.1093  1.1122
 2537TIP3   OH229101   4.845   3.504  11.001 -0.1547 -0.0805 -0.0279
 2537TIP3    H129102   4.855   3.538  11.090  0.2984 -0.7937  0.2056
 2537TIP3    H229103   4.823   3.580  10.948  0.2568  0.4707  0.5837
 2538TIP3   OH229104   4.558   0.204  10.642 -0.7720 -1.1444 -0.1495
 2538TIP3    H129105   4.588   0.239  10.726 -0.6179  0.4122 -0.8091
 2538TIP3    H229106   4.608   0.123  10.630 -0.1990 -0.9607  0.8760
 2539TIP3   OH229107   4.778   4.645   3.157  0.2449  0.1300 -0.5156
 2539TIP3    H129108   4.785   4.675   3.067  1.2952  3.1551  0.4489
 2539TIP3    H229109   4.688   4.664   3.182  0.1791  0.0239 -0.6681
 2540TIP3   OH229110   3.687   6.314  13.568 -0.5840  0.2928 -0.4737
 2540TIP3    H129111   3.685   6.407  13.591 -0.5968  0.2574 -0.3292
 2540TIP3    H229112   3.630   6.306  13.492  0.0040  0.5327 -0.9530
 2541TIP3   OH229113   6.400   4.471  15.260  0.1060  0.2789 -0.2770
 2541TIP3    H129114   6.375   4.527  15.334  0.0034 -0.5215  0.3054
 2541TIP3    H229115   6.447   4.398  15.299  0.4260  0.0580 -1.0511
 2542TIP3   OH229116   3.642   6.043   0.319  0.3125  0.6724  0.1914
 2542TIP3    H129117   3.583   6.110   0.354 -2.9781 -1.0165 -1.6847
 2542TIP3    H229118   3.664   6.075   0.232 -0.9589 -0.3990 -0.5601
 2543TIP3   OH229119   5.893   5.414   5.325 -0.3971  0.4317 -0.2429
 2543TIP3    H129120   5.833   5.428   5.399  0.4378  0.1641  0.5005
 2543TIP3    H229121   5.836   5.404   5.249 -1.3267 -0.3730  0.5361
 2544TIP3   OH229122   1.232   4.448  15.468 -0.0990  0.0080  0.1005
 2544TIP3    H129123   1.248   4.359  15.499 -0.1208  0.1516  0.5215
 2544TIP3    H229124   1.158   4.438  15.407 -0.3720 -0.2067  0.4570
 2545TIP3   OH229125   5.352   4.346   5.805  0.1549 -0.0736  0.3096
 2545TIP3    H129126   5.279   4.286   5.789  0.4532 -0.1548 -0.8512
 2545TIP3    H229127   5.312   4.420   5.851 -0.5290 -0.4191  0.2923
 2546TIP3   OH229128   4.468   1.373  15.243 -0.7221 -0.4069 -0.6035
 2546TIP3    H129129   4.392   1.423  15.273  0.6036  0.8107  0.9115
 2546TIP3    H229130   4.538   1.438  15.236  1.3624 -2.0957  2.4202
 2547TIP3   OH229131   2.675   0.595  15.586 -0.4023 -0.0430  0.1823
 2547TIP3    H129132   2.594   0.545  15.579  1.0307 -2.2928 -1.9661
 2547TIP3    H229133   2.689   0.631  15.499  0.3232  1.3702  0.8421
 2548TIP3   OH229134   2.357   1.710  13.616 -0.2170 -0.4657  0.1605
 2548TIP3    H129135   2.332   1.713  13.524  0.6022 -0.4156 -0.0725
 2548TIP3    H229136   2.410   1.789  13.629 -0.1073 -0.6089  0.6060
 2549TIP3   OH229137   5.381   2.985  14.023 -0.0212  0.0413  0.1149
 2549TIP3    H129138   5.393   2.919  13.955  0.4162  0.8061 -0.5617
 2549TIP3    H229139   5.303   3.034  13.996 -0.9244 -0.7739  1.1151
 2550TIP3   OH229140   5.076   3.317   4.740 -0.2446 -0.6480  0.2950
 2550TIP3    H129141   5.095   3.378   4.669 -0.9025  0.3145  0.9245
 2550TIP3    H229142   5.136   3.342   4.810 -2.0288  0.8144  1.3891
 2551TIP3   OH229143   6.160   0.758  14.758 -0.0269 -0.3991 -0.0094
 2551TIP3    H129144   6.241   0.800  14.730 -0.2310  0.2492  0.3527
 2551TIP3    H229145   6.107   0.751  14.679 -0.2016  0.5071  0.0250
 2552TIP3   OH229146   0.126   4.757  15.943  0.0377 -0.1949  0.3200
 2552TIP3    H129147   0.138   4.784  15.852  1.7098  2.1405  1.1309
 2552TIP3    H229148   0.196   4.694  15.959 -1.5227 -2.2788 -0.4891
 2553TIP3   OH229149   5.349   4.929   1.259  1.3972  0.0521 -0.9504
 2553TIP3    H129150   5.409   4.997   1.230 -0.6027  1.9502 -0.9423
 2553TIP3    H229151   5.265   4.952   1.218  0.2962 -1.6184  0.2015
 2554TIP3   OH229152   2.330   0.493  15.909 -0.6519 -0.1650  0.3406
 2554TIP3    H129153   2.247   0.518  15.951 -0.1845  0.7138  0.7731
 2554TIP3    H229154   2.380   0.574  15.906  0.6348 -0.9090  1.0855
 2555TIP3   OH229155   5.984   0.860   3.730  0.1159 -0.1468 -1.0259
 2555TIP3    H129156   5.904   0.871   3.678 -1.8249  0.4230  1.8701
 2555TIP3    H229157   5.954   0.856   3.821  3.1532 -2.6904  0.0631
 2556TIP3   OH229158   4.404   1.851  14.449 -0.2054 -0.1029  0.0433
 2556TIP3    H129159   4.322   1.824  14.406 -0.9303  0.3741  1.0903
 2556TIP3    H229160   4.416   1.788  14.520 -0.5054  0.7237  0.8550
 2557TIP3   OH229161   5.591   3.149   1.592  0.1522 -0.3749 -0.3848
 2557TIP3    H129162   5.580   3.054   1.589 -2.3164 -0.2013  0.6477
 2557TIP3    H229163   5.630   3.166   1.678  1.9841 -0.5046 -1.1517
 2558TIP3   OH229164   5.556   6.397  13.901 -0.2672 -0.5166 -0.2974
 2558TIP3    H129165   5.477   6.435  13.941 -1.3504 -0.1464 -2.5803
 2558TIP3    H229166   5.595   6.471  13.854  0.3529 -1.1511 -0.7764
 2559TIP3   OH229167   2.127   2.572   4.487 -0.2666  0.0533 -0.3395
 2559TIP3    H129168   2.085   2.492   4.516 -2.3358  1.1895  0.0304
 2559TIP3    H229169   2.068   2.607   4.420  0.6918  1.1555 -0.6490
 2560TIP3   OH229170   3.758   0.133  14.088  0.2638 -0.2881  0.3268
 2560TIP3    H129171   3.762   0.124  13.993  2.4943  1.0930  0.2068
 2560TIP3    H229172   3.768   0.043  14.121 -0.1747 -0.7400 -0.7215
 2561TIP3   OH229173   5.521   5.303  10.673 -0.0300  0.3034 -0.2463
 2561TIP3    H129174   5.488   5.346  10.752 -0.9573 -0.3239 -0.2810
 2561TIP3    H229175   5.464   5.334  10.603  0.5744  0.5911 -0.6138
 2562TIP3   OH229176   2.594   2.025  14.701 -0.1972  0.3976  0.3701
 2562TIP3    H129177   2.676   2.048  14.745  0.3059  1.3960 -1.0053
 2562TIP3    H229178   2.528   2.026  14.770  0.6144  1.5312  1.1711
 2563TIP3   OH229179   6.207   2.974  16.246 -0.4159  0.3670  0.4355
 2563TIP3    H129180   6.123   2.932  16.262 -0.5923  1.4966  3.0798
 2563TIP3    H229181   6.206   2.997  16.153 -3.5350  1.3714  0.6106
 2564TIP3   OH229182   4.529   5.673   4.221  0.4900 -0.1329  0.1907
 2564TIP3    H129183   4.588   5.638   4.154  0.7584  0.8618 -0.1037
 2564TIP3    H229184   4.477   5.739   4.175 -0.6044 -0.7298  0.5364
 2565TIP3   OH229185   2.135   1.788   3.827 -0.3592  0.2332 -0.7371
 2565TIP3    H129186   2.041   1.780   3.843  0.1751 -0.7981  2.6511
 2565TIP3    H229187   2.159   1.871   3.867  0.1233  0.8615 -2.2573
 2566TIP3   OH229188   5.249   2.660   6.179  0.2127 -0.1218  0.7589
 2566TIP3    H129189   5.201   2.743   6.170 -3.0851 -1.9033  0.3943
 2566TIP3    H229190   5.252   2.644   6.273 -0.0770 -0.1061  0.7698
 2567TIP3   OH229191   5.186   3.584  16.889  0.6829 -0.2012  0.6092
 2567TIP3    H129192   5.263   3.632  16.921  1.3526 -0.1156 -1.0173
 2567TIP3    H229193   5.167   3.625  16.805  1.0625 -2.5436 -0.6869
 2568TIP3   OH229194   2.277   0.835  11.212  0.0683  0.0394  0.0994
 2568TIP3    H129195   2.274   0.753  11.262 -0.8700 -0.5340 -0.8653
 2568TIP3    H229196   2.359   0.830  11.162 -0.3655 -0.6744 -0.5482
 2569TIP3   OH229197   2.979   0.631  10.563  0.1621  0.2684  0.0823
 2569TIP3    H129198   3.046   0.648  10.629  0.2495 -0.5632  0.2297
 2569TIP3    H229199   2.909   0.693  10.584  0.3715  0.3098  0.6943
 2570TIP3   OH229200   3.885   3.061  16.980  0.3097 -0.2311  0.2592
 2570TIP3    H129201   3.865   3.003  17.054 -1.2366 -2.3334 -1.6540
 2570TIP3    H229202   3.816   3.126  16.982 -0.0417 -0.6021  0.3424
 2571TIP3   OH229203   0.525   5.328  14.333  0.1111  0.7299 -0.6039
 2571TIP3    H129204   0.491   5.413  14.362 -0.1547  0.0302  1.2444
 2571TIP3    H229205   0.606   5.317  14.382 -0.8268 -0.9006  0.6741
 2572TIP3   OH229206   6.359   5.773   6.634 -0.2756  0.3719  0.7906
 2572TIP3    H129207   6.341   5.848   6.578  1.1479 -0.7888 -1.4004
 2572TIP3    H229208   6.279   5.721   6.632 -0.6410  0.9281  0.8207
 2573TIP3   OH229209   3.404   3.924  16.268 -0.5328 -0.1373 -0.6283
 2573TIP3    H129210   3.325   3.928  16.214 -0.6505  0.8881 -0.4062
 2573TIP3    H229211   3.426   4.016  16.284  0.1456 -0.4257  0.1268
 2574TIP3   OH229212   3.654   4.125   2.240  0.2913  0.4556 -0.3831
 2574TIP3    H129213   3.571   4.089   2.209  0.7423  0.7080 -1.9350
 2574TIP3    H229214   3.681   4.186   2.172  2.3523 -0.5052 -0.5113
 2575TIP3   OH229215   2.311   1.144  17.106 -0.2865  0.5453 -0.2003
 2575TIP3    H129216   2.278   1.184  17.026 -2.3005 -0.6944 -0.0392
 2575TIP3    H229217   2.401   1.178  17.114 -0.4137  1.5554 -2.3538
 2576TIP3   OH229218   1.247   1.124   2.613  0.4367  0.4722  0.7015
 2576TIP3    H129219   1.158   1.121   2.650  0.3544 -2.8357  0.5348
 2576TIP3    H229220   1.235   1.155   2.524 -0.2567  1.9179  1.2608
 2577TIP3   OH229221   5.248   3.913  16.713  0.4677 -0.1423 -0.0814
 2577TIP3    H129222   5.195   3.872  16.645 -0.2135 -0.9481  0.9030
 2577TIP3    H229223   5.216   4.003  16.719 -0.8824 -0.6510  0.5773
 2578TIP3   OH229224   3.824   3.125   4.811  0.4848  0.4755  0.5645
 2578TIP3    H129225   3.746   3.110   4.759  1.1561 -2.1291  0.1639
 2578TIP3    H229226   3.832   3.220   4.816 -1.5821  0.7965 -1.0505
 2579TIP3   OH229227   3.193   1.870  16.963 -0.0194  0.3693 -0.2972
 2579TIP3    H129228   3.129   1.820  17.013 -0.8425  0.1660 -1.5144
 2579TIP3    H229229   3.252   1.906  17.029 -0.3019 -0.9465  0.7182
 2580TIP3   OH229230   5.978   5.367  14.683 -0.0218  0.1692  0.1591
 2580TIP3    H129231   6.045   5.340  14.620  0.7282  0.8270  0.6522
 2580TIP3    H229232   5.952   5.455  14.654  0.0300  0.3065  0.5209
 2581TIP3   OH229233   2.558   1.050  12.436  0.0277 -0.2741  0.5144
 2581TIP3    H129234   2.592   0.963  12.414  0.0379 -0.1200 -0.0984
 2581TIP3    H229235   2.533   1.043  12.528  0.5381 -0.7644  0.6261
 2582TIP3   OH229236   4.778   3.720  12.299 -0.0212 -0.2749  0.0457
 2582TIP3    H129237   4.735   3.685  12.377  0.1256 -1.0256 -0.1989
 2582TIP3    H229238   4.815   3.643  12.256  1.2495  0.3072  0.0535
 2583TIP3   OH229239   1.571   4.294  16.839  0.2559  0.0416 -0.9597
 2583TIP3    H129240   1.478   4.273  16.836  0.1416  0.4828 -0.7335
 2583TIP3    H229241   1.597   4.278  16.930  0.5719 -0.7617 -1.1858
 2584TIP3   OH229242   0.091   5.833  13.388  0.0708  0.3829  0.1940
 2584TIP3    H129243   0.072   5.863  13.300  1.7807  2.0233  0.3166
 2584TIP3    H229244   0.174   5.876  13.411  0.6684 -1.4892  1.8808
 2585TIP3   OH229245   2.471   2.900  16.857  0.5372 -0.4974 -0.1218
 2585TIP3    H129246   2.538   2.912  16.790 -0.0744 -0.2241 -0.7004
 2585TIP3    H229247   2.388   2.903  16.808  0.0068  1.1030  0.8159
 2586TIP3   OH229248   2.721   6.768   6.079  0.2576 -0.2006 -0.1243
 2586TIP3    H129249   2.650   6.712   6.110 -0.0018  0.5722  0.7198
 2586TIP3    H229250   2.791   6.755   6.144 -0.1127  1.0685  0.5652
 2587TIP3   OH229251   3.381   5.543  12.078  0.7150  0.1620 -0.8529
 2587TIP3    H129252   3.359   5.593  11.999 -0.7986 -2.8070 -2.5102
 2587TIP3    H229253   3.431   5.468  12.045 -0.2073 -1.3239  0.9484
 2588TIP3   OH229254   6.586   3.739   0.339  0.1406  0.1279  0.3536
 2588TIP3    H129255   6.630   3.823   0.323 -2.2421  1.8628  2.2361
 2588TIP3    H229256   6.520   3.733   0.270  1.0616 -0.8328 -0.4760
 2589TIP3   OH229257   5.399   4.605  12.219  0.1849 -0.2834  0.4195
 2589TIP3    H129258   5.489   4.600  12.186 -0.1520 -0.0656 -0.5617
 2589TIP3    H229259   5.401   4.676  12.284  0.2753  1.1455 -1.0921
 2590TIP3   OH229260   1.850   5.245  11.148  0.6262 -0.6347 -0.3885
 2590TIP3    H129261   1.896   5.161  11.156  0.5407 -0.5670  1.1578
 2590TIP3    H229262   1.882   5.282  11.066  0.5934 -2.2208 -1.1453
 2591TIP3   OH229263   3.817   4.067  13.781  0.2412  0.6238 -0.4549
 2591TIP3    H129264   3.821   4.098  13.690 -0.2615  0.8243 -0.4107
 2591TIP3    H229265   3.860   3.981  13.779 -1.6527 -0.3519 -1.3103
 2592TIP3   OH229266   2.141   2.115  13.655 -0.0691 -0.7972 -0.4647
 2592TIP3    H129267   2.077   2.186  13.652 -0.5569 -1.1848  0.3421
 2592TIP3    H229268   2.219   2.151  13.612 -0.2697  0.2494  0.0185
 2593TIP3   OH229269   6.605   2.601   3.713  0.3111  0.1352 -0.3647
 2593TIP3    H129270   6.630   2.508   3.711  0.7105  0.2575 -1.9848
 2593TIP3    H229271   6.645   2.634   3.794  0.3784 -1.0426  0.1021
 2594TIP3   OH229272   3.531   6.469   3.134 -0.2514 -0.2080  0.2004
 2594TIP3    H129273   3.460   6.480   3.198 -0.7085 -0.5640 -0.2356
 2594TIP3    H229274   3.486   6.468   3.050  0.3189 -0.0377 -0.1074
 2595TIP3   OH229275   0.828   4.069   0.755  0.5540  0.0153  0.2363
 2595TIP3    H129276   0.844   4.154   0.714  0.4447  0.0810  0.3291
 2595TIP3    H229277   0.845   4.006   0.686  1.1201  0.0866  0.3052
 2596TIP3   OH229278   0.154   3.513  14.656 -0.6054 -0.3886 -0.4681
 2596TIP3    H129279   0.187   3.467  14.580 -0.0880  0.6141 -0.8656
 2596TIP3    H229280   0.097   3.582  14.621  3.0182  3.0032 -0.3784
 2597TIP3   OH229281   0.426   4.496  16.048  0.3319 -0.6096  0.4254
 2597TIP3    H129282   0.503   4.444  16.074  0.8896 -0.5536 -1.0259
 2597TIP3    H229283   0.458   4.586  16.046 -0.4105 -0.2685  2.0840
 2598TIP3   OH229284   6.020   3.540  13.899 -0.3208 -0.0936 -0.8393
 2598TIP3    H129285   6.043   3.450  13.924  1.3387  0.6367  0.4947
 2598TIP3    H229286   6.073   3.558  13.822  0.2728  0.1255 -0.3871
 2599TIP3   OH229287   2.909   5.357   3.305 -0.1495 -0.1125  0.1815
 2599TIP3    H129288   2.864   5.301   3.369 -1.9494  2.2293  1.1100
 2599TIP3    H229289   2.847   5.366   3.233  1.4712 -1.9133 -1.5504
 2600TIP3   OH229290   0.181   6.384   4.906  0.1188 -0.0405  0.7215
 2600TIP3    H129291   0.097   6.430   4.903 -0.2129 -0.6810 -1.1365
 2600TIP3    H229292   0.214   6.401   4.994 -1.2350  1.5057  0.9897
 2601TIP3   OH229293   0.564   0.796  17.240  0.1996 -0.3599  0.0609
 2601TIP3    H129294   0.556   0.705  17.209  0.2549 -0.7609  1.1659
 2601TIP3    H229295   0.481   0.837  17.216 -0.5963 -1.2435  1.1992
 2602TIP3   OH229296   3.898   5.439  15.170 -0.0318  0.5514 -0.3317
 2602TIP3    H129297   3.970   5.448  15.108  0.4393 -1.6975 -0.1844
 2602TIP3    H229298   3.839   5.376  15.129 -0.7274  0.5641  0.6125
 2603TIP3   OH229299   1.995   6.176  13.892 -0.9834 -0.9373 -0.3655
 2603TIP3    H129300   1.982   6.270  13.885  2.3528 -0.4188 -1.4975
 2603TIP3    H229301   1.965   6.154  13.980 -1.3647  1.2665  0.1097
 2604TIP3   OH229302   5.102   0.281  12.417 -0.3850  0.1111 -0.1735
 2604TIP3    H129303   5.187   0.279  12.461 -1.1935 -0.1031  1.4664
 2604TIP3    H229304   5.048   0.220  12.467 -1.0854 -0.9367 -2.1275
 2605TIP3   OH229305   3.437   3.518   5.702  0.2038  0.0059 -0.0232
 2605TIP3    H129306   3.459   3.598   5.654 -1.5732  0.0016 -0.9349
 2605TIP3    H229307   3.491   3.522   5.781  0.6269  1.7806 -0.3540
 2606TIP3   OH229308   2.532   4.184   1.324 -0.3866 -0.3346 -0.1052
 2606TIP3    H129309   2.476   4.127   1.272 -0.9342  2.2022 -2.5709
 2606TIP3    H229310   2.506   4.273   1.298  2.7449  1.0013  0.8499
 2607TIP3   OH229311   0.334   5.315  15.941 -0.6396 -0.0403 -0.1962
 2607TIP3    H129312   0.370   5.378  15.879 -0.3615 -0.0993 -0.0975
 2607TIP3    H229313   0.304   5.242  15.887  0.9722 -0.7641 -0.1695
 2608TIP3   OH229314   2.116   1.290  13.020 -0.2662 -0.2390 -0.0711
 2608TIP3    H129315   2.077   1.243  13.094 -3.0135  1.2029 -0.4529
 2608TIP3    H229316   2.124   1.381  13.051  0.1842  0.0438 -0.9757
 2609TIP3   OH229317   0.151   6.725   1.477 -0.2254 -0.3356 -0.9436
 2609TIP3    H129318   0.138   6.633   1.499 -2.5897 -0.7305 -3.3393
 2609TIP3    H229319   0.063   6.762   1.480  0.7266  2.0033  0.3608
 2610TIP3   OH229320   5.618   4.510  14.151 -0.4141  0.1264  0.1213
 2610TIP3    H129321   5.660   4.459  14.082 -0.9754 -0.9226  0.5256
 2610TIP3    H229322   5.575   4.445  14.206 -0.6291  0.9998  1.0232
 2611TIP3   OH229323   2.275   4.408   1.331 -0.3262 -1.1219 -0.2526
 2611TIP3    H129324   2.328   4.451   1.398  0.2856 -0.5198 -1.0928
 2611TIP3    H229325   2.190   4.394   1.373  0.1610 -1.1189  0.7681
 2612TIP3   OH229326   2.591   1.308  16.020  0.0514 -0.1863 -0.5515
 2612TIP3    H129327   2.610   1.393  15.980 -0.5057  0.7376  1.0631
 2612TIP3    H229328   2.510   1.279  15.976  0.0096  0.3117 -0.8118
 2613TIP3   OH229329   5.948   0.228  12.420  0.2473  0.4909 -0.1582
 2613TIP3    H129330   5.857   0.215  12.396 -0.1319  0.3206  1.2777
 2613TIP3    H229331   5.985   0.139  12.420  0.4078  0.5536 -0.6809
 2614TIP3   OH229332   6.309   1.032  12.441  0.2488 -0.1605  0.3108
 2614TIP3    H129333   6.244   1.018  12.510  1.4162  1.9082  1.9698
 2614TIP3    H229334   6.258   1.032  12.360 -1.6566  0.1536  1.4361
 2615TIP3   OH229335   6.519   6.424   3.277  0.8514  0.5755  0.1711
 2615TIP3    H129336   6.603   6.390   3.245  1.3662  1.1260  0.9115
 2615TIP3    H229337   6.461   6.418   3.201  1.6945  0.6426 -0.4952
 2616TIP3   OH229338   5.889   0.185  15.877  0.3882  0.6752 -0.1317
 2616TIP3    H129339   5.825   0.113  15.879 -0.1057  1.1219  0.5451
 2616TIP3    H229340   5.911   0.200  15.969  0.1087  1.7138 -0.2206
 2617TIP3   OH229341   3.826   1.589   3.577 -0.0285  0.2540  0.3399
 2617TIP3    H129342   3.905   1.538   3.558  0.3079  0.8779  0.0422
 2617TIP3    H229343   3.819   1.588   3.672  0.8017  0.8927  0.4118
 2618TIP3   OH229344   0.028   6.420   2.979  0.2653 -0.3145 -0.1999
 2618TIP3    H129345   0.105   6.470   2.952  0.8894 -1.6621 -0.9837
 2618TIP3    H229346   0.060   6.332   2.997 -1.1342 -1.0365 -1.0063
 2619TIP3   OH229347   2.002   3.017  12.772 -0.3518  0.2490 -0.2235
 2619TIP3    H129348   1.932   2.988  12.830 -1.1520  0.6567 -0.9640
 2619TIP3    H229349   1.999   2.956  12.699 -0.2560  0.5682 -0.4937
 2620TIP3   OH229350   5.492   1.100  15.275 -0.6029 -0.7450  0.3060
 2620TIP3    H129351   5.478   1.084  15.182  1.0310  0.7521 -0.2511
 2620TIP3    H229352   5.425   1.163  15.300  0.2965  0.5518 -0.4445
 2621TIP3   OH229353   1.589   2.691  16.654 -0.2213  0.7820  0.1351
 2621TIP3    H129354   1.654   2.729  16.595  1.4337  1.4579  2.2630
 2621TIP3    H229355   1.511   2.744  16.643  0.2002  1.1704 -1.0867
 2622TIP3   OH229356   5.386   4.450   4.504  0.0161  0.1934  0.6333
 2622TIP3    H129357   5.297   4.447   4.540 -0.2859 -1.3466 -0.1404
 2622TIP3    H229358   5.384   4.388   4.431  1.6139  0.4799  0.3168
 2623TIP3   OH229359   6.252   6.113   4.418  0.2540 -0.6312 -0.1309
 2623TIP3    H129360   6.301   6.071   4.489 -0.7308 -1.4096  0.0987
 2623TIP3    H229361   6.286   6.203   4.417  0.7361 -0.7795  0.9030
 2624TIP3   OH229362   6.710   1.265   5.573 -0.4137 -0.2511 -0.4568
 2624TIP3    H129363   6.806   1.256   5.572 -0.4444 -0.5698 -0.6309
 2624TIP3    H229364   6.688   1.280   5.665 -0.4240 -2.7150  0.0093
 2625TIP3   OH229365   3.437   4.030   0.475 -0.2227 -0.3676 -0.2140
 2625TIP3    H129366   3.498   3.973   0.522  0.2420 -0.5307 -0.9903
 2625TIP3    H229367   3.447   4.116   0.516  0.5614 -0.3875 -0.3506
 2626TIP3   OH229368   4.474   3.416  14.832  0.2967  0.4043 -0.4065
 2626TIP3    H129369   4.490   3.483  14.898  1.4892  0.0717 -0.3343
 2626TIP3    H229370   4.382   3.429  14.806  0.1048  1.1672  0.5897
 2627TIP3   OH229371   4.751   6.588  16.897  0.1721 -0.2385  0.3759
 2627TIP3    H129372   4.750   6.542  16.813  4.8049 -2.8114  1.3781
 2627TIP3    H229373   4.784   6.676  16.876 -1.6835  0.2607 -0.7101
 2628TIP3   OH229374   3.461   3.752  14.874  0.4436  0.2433  0.1145
 2628TIP3    H129375   3.519   3.826  14.859  0.5209 -0.0525 -1.1188
 2628TIP3    H229376   3.452   3.710  14.789  0.0297 -0.9009  0.6976
 2629TIP3   OH229377   0.267   4.191   2.978  0.1375 -0.2521  0.6435
 2629TIP3    H129378   0.245   4.111   3.026  1.6806 -1.4490 -0.5401
 2629TIP3    H229379   0.246   4.172   2.887 -0.7642  1.2186  0.5095
 2630TIP3   OH229380   2.181   4.940   3.505 -0.0577  0.5121  0.1703
 2630TIP3    H129381   2.171   4.985   3.589  1.4556  2.2523 -0.5045
 2630TIP3    H229382   2.242   4.868   3.523 -0.7278  0.1020  0.8117
 2631TIP3   OH229383   1.694   6.568  15.754  0.2702 -0.3634  0.7073
 2631TIP3    H129384   1.786   6.578  15.731  0.1361 -0.9572 -0.1529
 2631TIP3    H229385   1.695   6.532  15.843  0.8402  0.2635  0.9670
 2632TIP3   OH229386   3.447   1.495  13.199  0.2273  0.2083 -0.5216
 2632TIP3    H129387   3.514   1.536  13.254 -1.3408  0.4802  1.2979
 2632TIP3    H229388   3.456   1.401  13.217 -0.3554  0.3060  0.3111
 2633TIP3   OH229389   0.431   0.228   3.448 -0.4833 -0.1339 -0.6003
 2633TIP3    H129390   0.447   0.138   3.418  1.8986 -0.2163  0.6519
 2633TIP3    H229391   0.427   0.222   3.543  1.0324  1.2103 -0.4026
 2634TIP3   OH229392   1.841   6.630   2.464  0.0269  0.0211 -0.5633
 2634TIP3    H129393   1.877   6.554   2.418 -1.0141 -1.3369  0.7454
 2634TIP3    H229394   1.917   6.684   2.485  0.7456 -0.4568 -1.8778
 2635TIP3   OH229395   0.766   2.501   0.532 -0.2358  0.4534  0.1988
 2635TIP3    H129396   0.837   2.462   0.584 -0.5840  0.3386  0.5899
 2635TIP3    H229397   0.801   2.585   0.504 -0.1710  0.6746  0.9163
 2636TIP3   OH229398   2.386   1.600  13.048 -0.1879  0.1565  0.5382
 2636TIP3    H129399   2.395   1.564  12.960 -0.7165  0.5347  0.3197
 2636TIP3    H229400   2.430   1.686  13.043  0.9852 -0.3962  1.0280
 2637TIP3   OH229401   2.802   3.817  11.080  0.3154 -0.4962 -0.0464
 2637TIP3    H129402   2.786   3.832  10.987  0.8212 -2.2557 -0.4554
 2637TIP3    H229403   2.890   3.780  11.084  0.3491 -0.3235  1.1410
 2638TIP3   OH229404   3.370   1.781   5.684  0.0243 -0.3506  0.3503
 2638TIP3    H129405   3.328   1.701   5.714 -0.1124 -0.5007 -0.2322
 2638TIP3    H229406   3.421   1.755   5.607 -0.8462  0.3129 -0.4715
 2639TIP3   OH229407   2.457   6.067   2.843 -0.3829 -0.2227  0.4377
 2639TIP3    H129408   2.527   6.067   2.908  0.3054 -1.9119 -0.2379
 2639TIP3    H229409   2.391   6.008   2.879 -0.4052 -0.4509  0.0358
 2640TIP3   OH229410   3.162   6.126   3.801  0.1143  0.5701  0.1262
 2640TIP3    H129411   3.104   6.124   3.878  0.2343  1.2837  0.2383
 2640TIP3    H229412   3.237   6.178   3.829  1.3240 -1.2047  0.3210
 2641TIP3   OH229413   2.130   5.114  14.175 -0.4187 -0.2786  0.2658
 2641TIP3    H129414   2.109   5.105  14.082  0.3810  1.3775 -0.1164
 2641TIP3    H229415   2.045   5.131  14.216 -0.8964 -1.8144 -0.0009
 2642TIP3   OH229416   0.106   3.422   1.970 -0.1101 -0.0033  1.2629
 2642TIP3    H129417   0.140   3.465   1.892 -0.8027 -1.3961  0.1450
 2642TIP3    H229418   0.183   3.388   2.014  0.1938 -0.5747  0.3204
 2643TIP3   OH229419   6.812   4.377  16.878  0.4580 -0.2652  0.2578
 2643TIP3    H129420   6.901   4.384  16.843  0.1243  0.3386 -0.5100
 2643TIP3    H229421   6.824   4.345  16.967  1.4710  0.0908  0.2674
 2644TIP3   OH229422   4.786   0.382   0.341  0.2249  0.4846  0.2138
 2644TIP3    H129423   4.734   0.437   0.281  0.0844 -2.2431 -2.4049
 2644TIP3    H229424   4.873   0.421   0.339 -0.4412  2.0908  0.5435
 2645TIP3   OH229425   6.734   3.807  12.792  0.1093 -0.5759 -0.6372
 2645TIP3    H129426   6.747   3.841  12.704  1.2119 -0.3365 -0.3886
 2645TIP3    H229427   6.821   3.783  12.823 -0.0886  0.4439  0.8363
 2646TIP3   OH229428   1.468   6.631  14.113  0.0778 -0.1964 -0.8627
 2646TIP3    H129429   1.378   6.663  14.114  0.0078 -0.3874 -1.0292
 2646TIP3    H229430   1.514   6.693  14.056  0.3537  0.6967  0.2941
 2647TIP3   OH229431   4.904   1.926   1.676 -0.1922  0.0980 -0.0297
 2647TIP3    H129432   4.828   1.873   1.650 -0.1501  0.0859 -0.1291
 2647TIP3    H229433   4.966   1.916   1.603 -0.5655  1.0494 -0.5026
 2648TIP3   OH229434   4.996   2.713   6.340 -0.3275 -0.2462 -0.1401
 2648TIP3    H129435   4.945   2.689   6.417 -2.4292  1.6337 -0.8615
 2648TIP3    H229436   5.070   2.763   6.375 -0.4840 -0.5995  0.7277
 2649TIP3   OH229437   3.943   5.185  12.887 -0.0524  0.5482  0.6409
 2649TIP3    H129438   3.935   5.268  12.933  0.2637  2.0397 -1.8184
 2649TIP3    H229439   3.871   5.185  12.825  1.6781  0.4440 -1.4784
 2650TIP3   OH229440   0.650   3.817   0.106 -0.2082 -0.5585  0.2740
 2650TIP3    H129441   0.615   3.793   0.192  0.1174 -0.0765  0.5461
 2650TIP3    H229442   0.691   3.736   0.074 -1.6886 -1.1863 -0.1308
 2651TIP3   OH229443   4.052   1.709  11.746 -0.0777 -0.1732 -0.0100
 2651TIP3    H129444   4.108   1.707  11.669  2.4073  0.1860  1.6468
 2651TIP3    H229445   4.007   1.794  11.741  0.4966  0.0956 -0.7655
 2652TIP3   OH229446   1.783   3.780   5.752  0.1921 -0.0836  0.2638
 2652TIP3    H129447   1.743   3.769   5.838 -2.9694  0.9495 -0.9541
 2652TIP3    H229448   1.789   3.875   5.740 -0.1473 -0.1989 -0.9678
 2653TIP3   OH229449   3.781   0.794  17.162  0.0530  0.6331  0.2117
 2653TIP3    H129450   3.825   0.842  17.092  1.3724  1.3945  1.5017
 2653TIP3    H229451   3.688   0.812  17.148  0.2735  0.6926 -1.3760
 2654TIP3   OH229452   3.873   2.438   5.900  0.1646 -0.0438  0.0565
 2654TIP3    H129453   3.806   2.393   5.952  0.9032  0.6063  1.6571
 2654TIP3    H229454   3.955   2.395   5.925  0.4938 -0.0439 -0.9758
 2655TIP3   OH229455   2.167   6.451  14.956  0.2660  0.7996 -0.0931
 2655TIP3    H129456   2.085   6.443  15.005 -0.9048 -0.2266 -2.1068
 2655TIP3    H229457   2.193   6.542  14.967 -1.0514  1.0941  0.7318
 2656TIP3   OH229458   1.236   6.409  13.397 -0.2298  0.4799 -0.2385
 2656TIP3    H129459   1.274   6.363  13.472  0.6724  0.4338 -0.7168
 2656TIP3    H229460   1.261   6.500  13.410 -1.0450  0.6652  0.1050
 2657TIP3   OH229461   4.776   4.161  16.014 -0.2480  0.2729  0.8896
 2657TIP3    H129462   4.729   4.151  15.932 -0.1636 -0.8840  0.9597
 2657TIP3    H229463   4.744   4.090  16.069  1.0435 -0.1105  1.1877
 2658TIP3   OH229464   1.541   3.943   3.228  0.6877  0.6847 -0.0492
 2658TIP3    H129465   1.526   3.851   3.251 -0.3529  0.3208 -2.0006
 2658TIP3    H229466   1.634   3.958   3.246  0.7214 -0.5437  0.9018
 2659TIP3   OH229467   3.062   5.715   1.936  0.4470 -0.3604  0.3933
 2659TIP3    H129468   3.099   5.633   1.968 -0.7712 -1.1856 -0.2353
 2659TIP3    H229469   3.129   5.751   1.879  1.4096 -0.3933  1.4832
 2660TIP3   OH229470   3.950   5.007   5.267  0.3377  0.0908  0.3365
 2660TIP3    H129471   3.860   4.990   5.236  0.6927 -0.0189 -0.6746
 2660TIP3    H229472   3.950   4.977   5.358 -0.4327 -0.6780  0.0960
 2661TIP3   OH229473   2.850   6.616  16.526 -0.1755  0.1748  0.5560
 2661TIP3    H129474   2.868   6.680  16.457 -0.2251 -0.4221 -0.0146
 2661TIP3    H229475   2.760   6.634  16.553 -0.0801  0.5566  0.6325
 2662TIP3   OH229476   1.761   4.851  17.280 -0.4819 -0.8699  0.1725
 2662TIP3    H129477   1.742   4.923  17.340  1.2703  0.0041 -0.2380
 2662TIP3    H229478   1.833   4.804  17.322 -0.5704 -1.4498 -0.3126
 2663TIP3   OH229479   3.101   6.062  13.203 -0.1287  0.0223 -0.4648
 2663TIP3    H129480   3.139   6.077  13.117  0.4633 -0.4032 -0.2835
 2663TIP3    H229481   3.008   6.048  13.186 -0.3916  1.9216 -0.8328
 2664TIP3   OH229482   0.441   1.141   3.222 -0.6938  0.7585  0.4858
 2664TIP3    H129483   0.501   1.066   3.214 -1.3353  0.1433  1.2092
 2664TIP3    H229484   0.378   1.129   3.151  0.4872  1.8639 -0.7991
 2665TIP3   OH229485   0.980   5.132  12.172 -0.3527 -0.3793 -0.4926
 2665TIP3    H129486   0.949   5.211  12.128 -0.9488 -0.5664 -0.4135
 2665TIP3    H229487   0.959   5.146  12.264 -2.2538 -1.4565 -0.7292
 2666TIP3   OH229488   5.628   3.563   3.084 -0.1029  0.2030 -0.1760
 2666TIP3    H129489   5.606   3.602   3.169  1.7055 -0.6572  0.7617
 2666TIP3    H229490   5.544   3.536   3.047 -0.8592 -0.6693  1.9954
 2667TIP3   OH229491   1.690   3.814  11.681  0.3040 -0.5335  0.0828
 2667TIP3    H129492   1.701   3.859  11.597  1.6538 -0.9723  0.0066
 2667TIP3    H229493   1.778   3.786  11.705 -0.0344 -0.2876  1.7298
 2668TIP3   OH229494   2.424   4.504   5.527  0.0753  0.1382  0.3203
 2668TIP3    H129495   2.449   4.537   5.614 -0.5941 -1.2890  1.0962
 2668TIP3    H229496   2.485   4.546   5.467  1.0202  0.6252  1.5640
 2669TIP3   OH229497   4.279   6.258  13.776  0.2270 -0.1069 -0.4431
 2669TIP3    H129498   4.259   6.351  13.787 -0.0528 -0.3153  1.0040
 2669TIP3    H229499   4.338   6.237  13.848 -0.5495 -1.2858 -0.1086
 2670TIP3   OH229500   1.262   6.747  15.836 -0.2906 -0.0798  0.4993
 2670TIP3    H129501   1.348   6.724  15.803  0.7888  0.7770  2.5266
 2670TIP3    H229502   1.212   6.774  15.759  1.3850 -0.1707 -0.6523
 2671TIP3   OH229503   4.846   1.629  12.880  0.1644 -0.1539 -0.3440
 2671TIP3    H129504   4.857   1.535  12.893  2.4687  0.2303  1.0621
 2671TIP3    H229505   4.888   1.646  12.796 -0.0588 -0.3324 -0.4943
 2672TIP3   OH229506   3.813   3.046  16.522  1.2472 -0.5799  0.0067
 2672TIP3    H129507   3.757   3.009  16.453  2.1614  0.6538 -1.4562
 2672TIP3    H229508   3.794   2.992  16.599 -2.4156  0.1133 -0.1967
 2673TIP3   OH229509   6.383   3.448  14.262  0.5745 -0.3199  0.5339
 2673TIP3    H129510   6.362   3.355  14.265  1.2100 -0.4647  0.6439
 2673TIP3    H229511   6.461   3.454  14.207  0.4142  0.1697  0.3537
 2674TIP3   OH229512   1.121   5.942   4.383 -0.0623 -0.1804  0.3808
 2674TIP3    H129513   1.115   6.026   4.339 -3.4560 -0.7808 -0.6129
 2674TIP3    H229514   1.152   5.962   4.471 -1.1894  2.1975  0.2967
 2675TIP3   OH229515   2.992   5.740  16.330 -0.6129 -0.1379 -0.5529
 2675TIP3    H129516   3.071   5.780  16.367 -0.4561  0.5826 -1.6225
 2675TIP3    H229517   2.924   5.805  16.343 -1.4512 -1.3453  1.7287
 2676TIP3   OH229518   6.728   2.365  11.086 -0.0073 -0.4145 -0.5054
 2676TIP3    H129519   6.705   2.406  11.003 -0.5765  0.1609 -0.0708
 2676TIP3    H229520   6.645   2.336  11.123  0.2140 -0.4708 -0.0393
 2677TIP3   OH229521   1.590   5.971  12.134  0.2233 -0.4503  0.0208
 2677TIP3    H129522   1.532   5.911  12.086  0.1110 -0.8302  0.6188
 2677TIP3    H229523   1.601   5.930  12.220 -0.1703  0.5852  0.5855
 2678TIP3   OH229524   0.638   6.525   3.763 -0.3775 -0.3321 -0.0491
 2678TIP3    H129525   0.573   6.593   3.782  1.0363  1.1639 -0.3680
 2678TIP3    H229526   0.607   6.485   3.681 -1.5884 -0.5733  0.5000
 2679TIP3   OH229527   5.555   5.073  16.710 -0.6121  0.5296  0.3183
 2679TIP3    H129528   5.461   5.075  16.728 -0.7918  0.7683 -0.6101
 2679TIP3    H229529   5.567   4.997  16.654 -0.3697  0.9367 -0.1911
 2680TIP3   OH229530   0.953   4.227   4.623  0.2290 -0.1572 -0.1684
 2680TIP3    H129531   0.869   4.218   4.668  0.4380 -2.1258 -0.0715
 2680TIP3    H229532   1.018   4.230   4.694  0.4109 -1.1938 -0.2828
 2681TIP3   OH229533   1.636   4.378   2.779  0.4799 -0.2142  0.0312
 2681TIP3    H129534   1.596   4.464   2.791 -0.5747 -1.0551  3.9758
 2681TIP3    H229535   1.729   4.391   2.798  0.3601  0.1015  0.4034
 2682TIP3   OH229536   2.239   1.798   0.411  0.1675 -0.2349  0.7704
 2682TIP3    H129537   2.237   1.702   0.408 -1.3572 -0.2106 -0.3852
 2682TIP3    H229538   2.297   1.823   0.339 -0.0357 -0.2888  0.5864
 2683TIP3   OH229539   4.315   0.488   5.674  0.4511  0.2005 -0.1639
 2683TIP3    H129540   4.256   0.467   5.602  1.3286  1.4441 -1.2831
 2683TIP3    H229541   4.260   0.536   5.737 -0.3228 -0.9281  0.0400
 2684TIP3   OH229542   4.494   6.430  13.250 -0.1925 -0.5960  0.1123
 2684TIP3    H129543   4.475   6.478  13.170  0.4557  0.9707  0.8567
 2684TIP3    H229544   4.473   6.491  13.320  0.4147 -1.4930  1.1029
 2685TIP3   OH229545   0.395   5.743   3.698  0.2381 -0.3014  0.0729
 2685TIP3    H129546   0.402   5.814   3.634 -0.6693 -0.8869 -0.7023
 2685TIP3    H229547   0.364   5.786   3.778 -1.0950  0.0793 -0.6182
 2686TIP3   OH229548   2.324   4.987  11.724  0.2447 -0.7657  0.4287
 2686TIP3    H129549   2.390   4.937  11.773 -0.4283 -1.6940  0.3938
 2686TIP3    H229550   2.240   4.959  11.760 -0.2091 -0.6691 -0.5286
 2687TIP3   OH229551   6.795   5.336  13.431 -0.4560 -0.4685  0.1057
 2687TIP3    H129552   6.764   5.423  13.405  0.0994  0.1408  1.4039
 2687TIP3    H229553   6.887   5.350  13.454 -0.3945 -1.3857  0.4371
 2688TIP3   OH229554   1.949   1.087   2.675 -0.3282 -0.1399 -0.2726
 2688TIP3    H129555   2.002   1.150   2.627 -1.3010 -0.3565 -1.6868
 2688TIP3    H229556   1.898   1.140   2.736  2.5067 -0.0319  2.2515
 2689TIP3   OH229557   3.435   6.527   2.889 -0.0668  0.1135  0.0328
 2689TIP3    H129558   3.449   6.466   2.816  0.5551 -0.0154  0.2550
 2689TIP3    H229559   3.496   6.599   2.872 -0.1366  0.2268  0.2622
 2690TIP3   OH229560   3.250   3.104  16.328  0.1196 -0.0214  0.3307
 2690TIP3    H129561   3.245   3.161  16.404  2.0204 -0.1500  0.6222
 2690TIP3    H229562   3.241   3.162  16.253 -1.5472  0.1374  0.6325
 2691TIP3   OH229563   1.202   6.691   4.852 -0.3191 -0.5085  0.3186
 2691TIP3    H129564   1.169   6.610   4.892 -1.1507 -0.2514  0.1627
 2691TIP3    H229565   1.164   6.692   4.765 -1.1030  0.5218  0.6548
 2692TIP3   OH229566   3.201   3.788   5.090  0.0703 -0.6415 -0.3789
 2692TIP3    H129567   3.111   3.819   5.084 -0.3525 -1.8457 -0.4511
 2692TIP3    H229568   3.250   3.845   5.031 -0.7976 -0.5354 -1.0185
 2693TIP3   OH229569   0.969   4.291  12.696 -0.0568 -0.2443  0.4836
 2693TIP3    H129570   1.013   4.210  12.671 -0.0975 -0.2091  0.2961
 2693TIP3    H229571   0.927   4.321  12.616 -1.6227 -1.0099  0.9659
 2694TIP3   OH229572   6.249   2.860   4.561  0.0466  0.4192  0.1870
 2694TIP3    H129573   6.277   2.922   4.493  0.5976  1.0054  0.9406
 2694TIP3    H229574   6.326   2.849   4.617 -0.4538  0.0645  0.8138
 2695TIP3   OH229575   5.760   0.910  11.064  0.3368 -0.3503  0.3695
 2695TIP3    H129576   5.793   0.857  11.137 -1.8498  1.4068  2.8357
 2695TIP3    H229577   5.832   0.969  11.043  1.4182 -1.6639  0.2731
 2696TIP3   OH229578   2.310   4.492   4.181 -0.0932 -0.4419 -0.2832
 2696TIP3    H129579   2.350   4.453   4.259 -1.5227 -3.0914 -0.7285
 2696TIP3    H229580   2.249   4.558   4.216 -0.5462 -1.4246  0.8741
 2697TIP3   OH229581   1.484   6.557   0.907 -0.6131  0.0182  0.2058
 2697TIP3    H129582   1.507   6.613   0.833  0.8018  0.9169  1.2889
 2697TIP3    H229583   1.522   6.600   0.983 -0.4781 -1.8232  1.2419
 2698TIP3   OH229584   1.594   0.511  12.205  0.4033  0.3400  0.5062
 2698TIP3    H129585   1.553   0.597  12.211  1.2025  0.6801  1.3872
 2698TIP3    H229586   1.678   0.521  12.250  0.9703 -0.6264 -0.2916
 2699TIP3   OH229587   4.513   4.752   2.706 -0.3683 -0.0395  0.2332
 2699TIP3    H129588   4.593   4.751   2.759  0.4126  2.2158 -0.7727
 2699TIP3    H229589   4.442   4.756   2.770  0.2296 -2.3422  1.1609
 2700TIP3   OH229590   3.065   3.120  14.924  0.0147 -0.6075 -0.3709
 2700TIP3    H129591   3.026   3.114  15.011 -0.4540  0.0623 -0.5261
 2700TIP3    H229592   3.001   3.169  14.873  0.1407 -1.2751 -1.1849
 2701TIP3   OH229593   6.711   2.672   2.567 -0.3517  0.0705 -0.6913
 2701TIP3    H129594   6.623   2.635   2.562  0.4412 -1.8393 -2.2990
 2701TIP3    H229595   6.755   2.619   2.634 -0.6895  1.8011  0.9895
 2702TIP3   OH229596   1.875   0.612   5.182  0.4143 -0.1085  0.1977
 2702TIP3    H129597   1.869   0.645   5.092  0.6493 -1.8575 -0.5169
 2702TIP3    H229598   1.965   0.580   5.189  0.4382  0.1492  1.1226
 2703TIP3   OH229599   0.361   0.774   3.155  0.0238  0.5398 -0.9442
 2703TIP3    H129600   0.383   0.867   3.167  3.4576 -0.4413  2.0185
 2703TIP3    H229601   0.442   0.734   3.123 -0.1680 -1.9248  1.3111
 2704TIP3   OH229602   3.539   6.590   1.504 -0.4329  1.0781  0.3801
 2704TIP3    H129603   3.500   6.674   1.527 -1.3768  0.0969  2.7210
 2704TIP3    H229604   3.491   6.526   1.557  0.6156 -0.8860 -0.9082
 2705TIP3   OH229605   5.539   4.669   4.588 -0.0631  0.3652 -0.0545
 2705TIP3    H129606   5.501   4.751   4.558  1.2962  0.9552 -0.2393
 2705TIP3    H229607   5.490   4.601   4.542 -2.3389  0.9365  1.3375
 2706TIP3   OH229608   4.804   0.288   1.028 -0.6787  0.3727  0.1605
 2706TIP3    H129609   4.756   0.357   0.982  2.2244  1.0985 -2.0533
 2706TIP3    H229610   4.845   0.332   1.102 -0.5757  0.5253  0.0118
 2707TIP3   OH229611   5.031   0.297  16.626  0.1441 -0.2627 -0.6923
 2707TIP3    H129612   4.944   0.276  16.592  0.0891  0.5234 -1.0609
 2707TIP3    H229613   5.088   0.231  16.588 -0.5063 -1.7356  0.7646
 2708TIP3   OH229614   4.934   0.401  11.541 -0.5742 -0.5082  0.4149
 2708TIP3    H129615   5.019   0.418  11.501 -0.3237 -4.0266 -0.9095
 2708TIP3    H229616   4.952   0.397  11.635  0.3258  0.6083  0.3031
 2709TIP3   OH229617   1.953   2.323  16.782  0.3795  0.1892 -0.1685
 2709TIP3    H129618   1.927   2.279  16.863 -0.2406  0.0529 -0.4374
 2709TIP3    H229619   1.877   2.375  16.757  1.3273  1.9973  0.5163
 2710TIP3   OH229620   6.616   5.618   0.349  0.4414  0.1877  0.1251
 2710TIP3    H129621   6.627   5.706   0.311 -0.0760 -0.3145 -1.2518
 2710TIP3    H229622   6.701   5.576   0.338  0.8567  0.6873  1.2946
 2711TIP3   OH229623   0.772   5.552  17.204 -0.2715 -0.2291 -0.2514
 2711TIP3    H129624   0.677   5.541  17.205 -0.1828 -1.2474  1.6578
 2711TIP3    H229625   0.785   5.646  17.191 -1.5208 -0.0879 -0.6422
 2712TIP3   OH229626   5.703   6.346   2.992 -0.2218 -0.5247 -0.3859
 2712TIP3    H129627   5.773   6.368   2.932  0.1202 -0.2286  0.1132
 2712TIP3    H229628   5.746   6.301   3.065 -0.4360  0.3189  0.2776
 2713TIP3   OH229629   2.967   5.399   5.577  0.2143  0.5944 -0.2145
 2713TIP3    H129630   3.020   5.468   5.536 -0.9673  0.9662 -1.1632
 2713TIP3    H229631   2.896   5.383   5.515  0.3563 -1.3668  0.0672
 2714TIP3   OH229632   3.295   5.041  15.792  0.0673 -0.1376  0.3310
 2714TIP3    H129633   3.208   5.012  15.818  0.7196 -1.8651  0.7020
 2714TIP3    H229634   3.353   4.968  15.815  1.2317 -0.2141 -2.3854
 2715TIP3   OH229635   1.959   2.696   2.749  0.7067 -0.4955  0.4940
 2715TIP3    H129636   1.994   2.655   2.670  0.6960 -2.0998  1.2905
 2715TIP3    H229637   2.036   2.718   2.800  0.6566 -1.9348  1.2239
 2716TIP3   OH229638   5.176   6.598  16.176 -0.0949  0.1003  0.1310
 2716TIP3    H129639   5.100   6.545  16.199  0.7247 -0.9566  0.4582
 2716TIP3    H229640   5.150   6.643  16.095 -0.6515 -1.1596 -0.4208
 2717TIP3   OH229641   1.180   2.886   3.866 -0.1757  0.0457 -1.0946
 2717TIP3    H129642   1.143   2.842   3.789 -0.0577 -0.4070 -0.8939
 2717TIP3    H229643   1.220   2.966   3.830 -2.0231  0.9768 -1.2173
 2718TIP3   OH229644   4.112   2.788   4.463 -0.3911 -0.2074 -0.3420
 2718TIP3    H129645   4.202   2.785   4.432 -0.2048  0.7191  0.0577
 2718TIP3    H229646   4.063   2.827   4.391 -0.6386 -1.4907 -0.8891
 2719TIP3   OH229647   3.807   1.774   0.703  0.6450 -0.1469 -0.2347
 2719TIP3    H129648   3.754   1.849   0.678 -0.6094 -0.9976 -0.1849
 2719TIP3    H229649   3.747   1.714   0.746  1.9336 -0.5361  1.1009
 2720TIP3   OH229650   4.696   1.202   1.104  0.2487 -0.1829  0.2416
 2720TIP3    H129651   4.731   1.160   1.026  1.4925 -0.1662  0.7639
 2720TIP3    H229652   4.702   1.296   1.086 -1.5545 -0.1829 -0.5098
 2721TIP3   OH229653   5.606   6.111   3.729 -0.5992 -0.3372 -0.1803
 2721TIP3    H129654   5.602   6.123   3.824 -1.1025  0.2993 -0.2736
 2721TIP3    H229655   5.516   6.091   3.703 -0.6619  0.4929 -0.6429
 2722TIP3   OH229656   4.971   6.030  13.773  0.0205 -0.3638 -0.0396
 2722TIP3    H129657   5.024   6.102  13.805  0.7654 -0.8446 -0.1803
 2722TIP3    H229658   4.888   6.039  13.820  1.4101 -1.6712  2.8705
 2723TIP3   OH229659   1.269   0.074   2.137  0.9645  0.5223  0.2859
 2723TIP3    H129660   1.290   0.136   2.067 -1.0323 -0.1369 -0.9780
 2723TIP3    H229661   1.338   0.007   2.132  0.7194  0.3617 -1.2351
 2724TIP3   OH229662   5.691   1.191   5.448 -0.2664  0.0052  0.2934
 2724TIP3    H129663   5.643   1.199   5.530  0.4472  0.7996  0.6511
 2724TIP3    H229664   5.768   1.138   5.470  1.4791  2.5801  0.9085
 2725TIP3   OH229665   2.482   5.475  12.687  0.4042  0.3257 -0.5231
 2725TIP3    H129666   2.437   5.440  12.764 -1.0910  1.7017 -0.7357
 2725TIP3    H229667   2.553   5.528  12.723 -0.1945  0.8407 -0.0900
 2726TIP3   OH229668   3.714   2.405  14.254  0.5258  0.0293 -0.2683
 2726TIP3    H129669   3.620   2.421  14.243  0.7588  2.4337  0.5834
 2726TIP3    H229670   3.752   2.493  14.260  2.8491 -0.8918 -0.6302
 2727TIP3   OH229671   1.451   2.245   6.493 -0.2695  0.4968 -0.1674
 2727TIP3    H129672   1.431   2.260   6.585 -0.8510 -0.4495 -0.1287
 2727TIP3    H229673   1.456   2.150   6.484  0.6968  0.5969 -0.9301
 2728TIP3   OH229674   0.954   6.620  13.839 -0.4517 -0.1430  0.4903
 2728TIP3    H129675   0.864   6.645  13.863 -1.4926 -0.3335 -2.7201
 2728TIP3    H229676   0.962   6.645  13.747  2.0002 -2.2838  0.0013
 2729TIP3   OH229677   3.353   0.606  12.611  0.4849 -0.7537  0.6312
 2729TIP3    H129678   3.345   0.537  12.545  1.4417 -0.2835  0.0092
 2729TIP3    H229679   3.443   0.600  12.643  0.3822 -0.2101  1.0456
 2730TIP3   OH229680   0.636   4.186  11.152 -0.0668 -0.5011 -0.0099
 2730TIP3    H129681   0.657   4.123  11.220 -2.3761  1.2959  2.5891
 2730TIP3    H229682   0.544   4.169  11.131  0.0977  0.1471 -1.4390
 2731TIP3   OH229683   2.543   1.112   0.154  0.5028 -0.2089 -0.1470
 2731TIP3    H129684   2.610   1.067   0.207 -0.9557 -0.3868  1.6282
 2731TIP3    H229685   2.460   1.082   0.190 -0.5395  1.2257 -1.2665
 2732TIP3   OH229686   5.252   2.693  17.091 -0.5670  0.3486 -0.0347
 2732TIP3    H129687   5.306   2.615  17.079 -2.2926 -0.9069 -0.0072
 2732TIP3    H229688   5.281   2.753  17.023  2.5315  0.7801  1.4521
 2733TIP3   OH229689   4.453   6.683  12.408 -0.8551  0.1639 -0.1130
 2733TIP3    H129690   4.390   6.644  12.347  0.4345 -1.1358 -0.6935
 2733TIP3    H229691   4.401   6.715  12.481 -2.0551 -2.6154  0.3656
 2734TIP3   OH229692   6.633   3.807   6.636 -0.3224  0.4987 -0.6627
 2734TIP3    H129693   6.567   3.740   6.619  0.3998 -0.2041 -0.7404
 2734TIP3    H229694   6.629   3.864   6.559  0.4238 -0.6018 -1.5589
 2735TIP3   OH229695   3.485   5.213   4.829 -0.7477 -0.2075  0.0174
 2735TIP3    H129696   3.485   5.181   4.919 -0.9854  0.8788  0.4091
 2735TIP3    H229697   3.571   5.253   4.817 -1.4395  1.4869  0.4482
 2736TIP3   OH229698   1.882   5.134   1.032  0.2976  0.1382 -0.2124
 2736TIP3    H129699   1.935   5.066   1.073 -0.2140  0.0813  0.3692
 2736TIP3    H229700   1.792   5.107   1.049  0.0361 -0.3929 -2.1858
 2737TIP3   OH229701   6.212   4.659  12.322  0.2062  0.0901  0.2342
 2737TIP3    H129702   6.285   4.605  12.352  1.1420  0.4963 -1.1891
 2737TIP3    H229703   6.231   4.676  12.230 -1.2005  1.0180  0.0772
 2738TIP3   OH229704   6.220   2.509   2.019 -0.1497 -0.2086 -0.2817
 2738TIP3    H129705   6.239   2.484   1.928  1.3404 -0.4751  0.0738
 2738TIP3    H229706   6.133   2.474   2.036  0.1118 -1.3641 -1.1777
 2739TIP3   OH229707   6.754   4.829   3.478 -0.0000 -0.4288 -0.2294
 2739TIP3    H129708   6.682   4.891   3.494  0.8170  0.6501 -0.5879
 2739TIP3    H229709   6.831   4.873   3.513  0.5415 -1.4713 -0.0708
 2740TIP3   OH229710   0.551   4.116  16.264  0.0262 -0.3533 -0.0550
 2740TIP3    H129711   0.611   4.190  16.262 -0.5649  0.2078  1.4103
 2740TIP3    H229712   0.496   4.127  16.186 -0.5084  1.1720  0.5076
 2741TIP3   OH229713   3.813   4.951   1.091 -0.0669  0.3490 -0.0606
 2741TIP3    H129714   3.759   4.951   1.013  0.1812 -1.1535 -0.2625
 2741TIP3    H229715   3.800   4.864   1.129  2.2895 -0.1373 -0.2024
 2742TIP3   OH229716   6.464   5.366   1.522 -0.1901  0.6572 -0.3467
 2742TIP3    H129717   6.547   5.326   1.546 -0.2895  0.4713 -0.3103
 2742TIP3    H229718   6.424   5.304   1.460 -0.1669  0.8871 -0.5968
 2743TIP3   OH229719   4.140   5.261  11.824 -0.4087 -0.1828  0.2985
 2743TIP3    H129720   4.098   5.244  11.908 -0.2816 -5.1366 -0.3485
 2743TIP3    H229721   4.069   5.289  11.766 -0.9418  0.8639  1.4286
 2744TIP3   OH229722   4.155   5.285  10.839 -0.3322  0.5537  0.1292
 2744TIP3    H129723   4.091   5.219  10.813  0.3008  0.2279 -0.6653
 2744TIP3    H229724   4.237   5.237  10.847  0.2806  1.3404 -1.1398
 2745TIP3   OH229725   5.910   3.831   6.114 -0.1237 -0.2416 -0.4201
 2745TIP3    H129726   5.978   3.897   6.128 -0.4596  0.7051 -2.7499
 2745TIP3    H229727   5.837   3.858   6.170  0.3659  0.4133 -0.0975
 2746TIP3   OH229728   3.626   3.513   4.950  0.0089  0.6710  0.1093
 2746TIP3    H129729   3.680   3.581   4.991 -0.3487  0.5190  0.8538
 2746TIP3    H229730   3.598   3.551   4.867 -0.1324  1.4112  0.4879
 2747TIP3   OH229731   2.352   2.525  11.532  0.4189 -0.2189  0.4870
 2747TIP3    H129732   2.348   2.600  11.591 -1.7572  0.2549 -0.1876
 2747TIP3    H229733   2.350   2.563  11.444 -1.0680 -1.0515  0.1420
 2748TIP3   OH229734   4.040   6.443   2.416  0.1257 -0.6436  0.2977
 2748TIP3    H129735   4.037   6.355   2.452  1.1817 -1.4977 -1.5375
 2748TIP3    H229736   4.102   6.437   2.343  0.4693  1.6979  0.3157
 2749TIP3   OH229737   6.055   2.757  15.651  0.1126  0.3993  0.1162
 2749TIP3    H129738   6.092   2.819  15.713 -0.4773  1.1013 -0.2173
 2749TIP3    H229739   5.960   2.768  15.659  0.0204  0.4561 -0.8478
 2750TIP3   OH229740   1.199   2.758  13.400 -0.8194 -0.2648  0.3578
 2750TIP3    H129741   1.190   2.689  13.465 -0.7052 -1.1369 -0.5302
 2750TIP3    H229742   1.130   2.740  13.336 -1.8346  1.3817  0.9102
 2751TIP3   OH229743   4.738   5.767  12.190 -0.4861 -0.7628 -0.3963
 2751TIP3    H129744   4.752   5.677  12.161  1.3759 -1.3026  1.8735
 2751TIP3    H229745   4.823   5.809  12.177 -0.3451 -0.3230  1.7158
 2752TIP3   OH229746   5.391   1.024  15.995 -0.3418 -0.0981  0.0393
 2752TIP3    H129747   5.380   0.940  15.950 -0.7891 -0.5439  0.9467
 2752TIP3    H229748   5.470   1.062  15.956 -1.4732  0.2013 -2.0908
 2753TIP3   OH229749   3.686   2.547  11.270 -0.3146  0.4571  0.1804
 2753TIP3    H129750   3.735   2.518  11.348  0.1339 -0.2408 -0.3485
 2753TIP3    H229751   3.595   2.551  11.299 -0.2420 -0.4745  0.5641
 2754TIP3   OH229752   6.492   5.876  12.993 -0.3441  0.9161 -0.2725
 2754TIP3    H129753   6.511   5.967  13.015  2.6042  0.1854  0.7449
 2754TIP3    H229754   6.424   5.850  13.054 -0.9792  2.3247 -0.3460
 2755TIP3   OH229755   1.277   0.357   2.897  0.3310 -0.3469 -0.1280
 2755TIP3    H129756   1.298   0.416   2.825  2.2663 -1.3617 -0.4631
 2755TIP3    H229757   1.183   0.341   2.888  0.3627  0.2062 -1.9296
 2756TIP3   OH229758   4.085   0.294  15.045  0.0909  0.2484 -0.4171
 2756TIP3    H129759   4.128   0.371  15.082 -0.9042  0.2536  0.7651
 2756TIP3    H229760   3.993   0.318  15.039 -0.3292 -1.0160  0.4922
 2757TIP3   OH229761   2.501   3.636   5.837 -0.2277  0.0991 -0.3590
 2757TIP3    H129762   2.524   3.675   5.921  0.0029 -1.3449  0.2762
 2757TIP3    H229763   2.447   3.561   5.860 -2.0022  0.9399 -1.6293
 2758TIP3   OH229764   0.448   3.816   5.832  0.0869 -0.0485 -0.2673
 2758TIP3    H129765   0.357   3.843   5.821 -0.1558 -1.3078 -1.7223
 2758TIP3    H229766   0.443   3.736   5.886  0.2226 -0.6667 -1.1537
 2759TIP3   OH229767   2.640   6.655  16.935  0.0878 -0.2153  0.1173
 2759TIP3    H129768   2.616   6.732  16.884  1.5367  0.7901  0.8742
 2759TIP3    H229769   2.736   6.660  16.944  0.1715 -1.8432  0.5953
 2760TIP3   OH229770   3.659   5.524   3.413  0.5041  0.0970  0.4686
 2760TIP3    H129771   3.708   5.577   3.351 -1.2654 -0.1407 -1.2493
 2760TIP3    H229772   3.614   5.459   3.359  0.2881 -1.2943  2.2034
 2761TIP3   OH229773   6.604   2.072  11.520 -0.1602  0.1165  0.6647
 2761TIP3    H129774   6.542   2.142  11.540  0.1171  0.2270  1.1372
 2761TIP3    H229775   6.580   2.000  11.579 -1.2768 -0.6842 -0.7058
 2762TIP3   OH229776   6.667   6.281   5.280  0.0779 -0.4525 -0.2464
 2762TIP3    H129777   6.601   6.350   5.286 -1.3022 -1.5893 -1.5829
 2762TIP3    H229778   6.632   6.220   5.216  2.0428 -1.5614 -0.3383
 2763TIP3   OH229779   6.212   6.100  12.320 -0.2708 -0.2315  0.0728
 2763TIP3    H129780   6.195   6.139  12.406  1.2710  1.4020 -0.3096
 2763TIP3    H229781   6.292   6.050  12.332 -0.7934 -1.1448 -0.1170
 2764TIP3   OH229782   6.114   2.787  10.907 -0.3047 -0.4255 -0.4931
 2764TIP3    H129783   6.135   2.712  10.962 -0.7047 -0.5472 -0.4982
 2764TIP3    H229784   6.193   2.803  10.855 -0.5017 -1.3702 -1.0957
 2765TIP3   OH229785   0.519   3.238   5.247  0.2807  0.5262 -0.1691
 2765TIP3    H129786   0.614   3.249   5.256  0.7897 -1.9838 -1.7091
 2765TIP3    H229787   0.490   3.214   5.335  1.5202 -1.2701 -0.2067
 2766TIP3   OH229788   4.115   5.469   4.546 -0.2341  0.1940  0.5218
 2766TIP3    H129789   4.063   5.547   4.562 -0.5090  0.2732 -0.6385
 2766TIP3    H229790   4.112   5.457   4.451  0.4534 -0.7784  0.6002
 2767TIP3   OH229791   0.045   1.927   5.137  0.3770  0.6569 -0.1691
 2767TIP3    H129792   0.113   1.953   5.075  0.8659  0.5182  0.3023
 2767TIP3    H229793  -0.002   1.856   5.093 -0.5231  1.8361 -1.1831
 2768TIP3   OH229794   6.366   4.274  11.971  0.1892 -0.5836  0.5868
 2768TIP3    H129795   6.367   4.301  11.879 -0.8576  1.7867  1.1740
 2768TIP3    H229796   6.274   4.252  11.987  0.8031 -3.5225  0.4778
 2769TIP3   OH229797   0.536   5.289  13.741  0.0879  0.0907  0.0741
 2769TIP3    H129798   0.478   5.362  13.765 -1.9586 -1.6467  0.6993
 2769TIP3    H229799   0.566   5.255  13.825  1.2290  0.3220 -0.2256
 2770TIP3   OH229800   6.099   2.514  17.146  0.0298 -0.7570  0.3411
 2770TIP3    H129801   6.180   2.508  17.096  0.8169  1.6151  1.2203
 2770TIP3    H229802   6.123   2.487  17.235 -0.0008  0.3689  0.7073
 2771TIP3   OH229803   4.200   6.316  14.663 -0.1798 -0.3543  0.4506
 2771TIP3    H129804   4.168   6.377  14.597 -0.6863 -3.2968 -2.2714
 2771TIP3    H229805   4.133   6.317  14.731 -0.1961  1.9754  0.4761
 2772TIP3   OH229806   2.272   2.654   5.129  0.3151  0.4442 -0.7050
 2772TIP3    H129807   2.188   2.626   5.093 -0.4967  0.8041  0.8035
 2772TIP3    H229808   2.330   2.579   5.118 -0.4500 -0.1085 -1.0246
 2773TIP3   OH229809   0.490   2.561   3.157  0.3827 -0.3955  0.5905
 2773TIP3    H129810   0.577   2.525   3.139 -0.0319 -1.7659  1.1216
 2773TIP3    H229811   0.505   2.654   3.172  2.1542 -0.9519  3.0561
 2774TIP3   OH229812   4.635   0.442  12.856  0.7847  0.1644 -0.2423
 2774TIP3    H129813   4.641   0.423  12.949 -1.6708 -0.4134 -0.1228
 2774TIP3    H229814   4.707   0.503  12.839  2.8377 -1.6375  1.4403
 2775TIP3   OH229815   5.378   2.923  15.509 -0.3900 -0.3625  0.1158
 2775TIP3    H129816   5.319   2.875  15.566 -1.6608  2.5398  1.4503
 2775TIP3    H229817   5.321   2.965  15.445  0.1783  1.9375  1.0035
 2776TIP3   OH229818   0.081   6.769   1.165  0.3762 -0.1888 -0.0165
 2776TIP3    H129819   0.168   6.754   1.128  0.9732  1.6976  0.5379
 2776TIP3    H229820   0.065   6.863   1.152 -0.6554 -0.0665  1.8275
 2777TIP3   OH229821   2.121   0.337   2.833  0.5329 -0.1611 -0.2513
 2777TIP3    H129822   2.046   0.293   2.873 -0.3601  1.5915  0.1440
 2777TIP3    H229823   2.117   0.312   2.741 -0.7384  0.1256 -0.2942
 2778TIP3   OH229824   0.583   5.987  12.006 -0.3041  0.1285 -0.2099
 2778TIP3    H129825   0.531   6.058  11.970  0.6640  0.5596 -0.7857
 2778TIP3    H229826   0.536   5.907  11.981 -1.5131  0.5548  0.6292
 2779TIP3   OH229827   3.999   6.256   3.112 -0.5683  0.1539  0.0572
 2779TIP3    H129828   3.923   6.280   3.165 -0.2747 -0.9277  1.0133
 2779TIP3    H229829   4.073   6.296   3.158 -0.3483 -0.4901  0.2758
 2780TIP3   OH229830   2.090   5.782  14.147  0.0622 -0.6139  0.1681
 2780TIP3    H129831   2.026   5.853  14.148  1.2150  0.4631  0.4776
 2780TIP3    H229832   2.040   5.704  14.170 -0.9671  0.3423  1.2809
 2781TIP3   OH229833   5.534   6.807  16.457  0.2879 -0.3087 -0.2930
 2781TIP3    H129834   5.594   6.771  16.391 -0.5399 -0.0403 -1.2165
 2781TIP3    H229835   5.447   6.781  16.427 -0.0907 -0.4803  0.8980
 2782TIP3   OH229836   5.669   1.893  11.386  0.1123  0.0415 -0.4872
 2782TIP3    H129837   5.642   1.908  11.295  0.5611 -0.7507 -0.7645
 2782TIP3    H229838   5.756   1.853  11.378 -0.4214 -1.3041  0.2477
 2783TIP3   OH229839   4.821   5.556   2.854  0.2390 -0.7441 -0.4744
 2783TIP3    H129840   4.754   5.578   2.789 -1.6652 -2.0643  0.9285
 2783TIP3    H229841   4.830   5.461   2.849 -1.3954 -1.1787  2.3881
 2784TIP3   OH229842   5.965   4.912  16.628 -0.0206 -0.2356 -0.0501
 2784TIP3    H129843   6.001   4.908  16.539 -1.2480 -1.2195 -0.5261
 2784TIP3    H229844   5.884   4.862  16.623 -0.6214  0.5566  1.3941
 2785TIP3   OH229845   1.539   0.784  17.041 -0.5680 -0.4766 -0.0792
 2785TIP3    H129846   1.508   0.699  17.071 -1.7567 -0.6844 -1.7248
 2785TIP3    H229847   1.473   0.846  17.072  0.2636 -0.1314  1.0621
 2786TIP3   OH229848   6.782   5.448   4.104  0.2992 -0.3376 -0.3360
 2786TIP3    H129849   6.810   5.361   4.134  0.3557 -0.1418  0.1915
 2786TIP3    H229850   6.798   5.505   4.179 -0.0996  0.0570 -0.5492
 2787TIP3   OH229851   5.230   6.045   1.305 -0.0327 -0.2502  0.4475
 2787TIP3    H129852   5.169   5.979   1.271  0.4918 -0.4978 -0.0427
 2787TIP3    H229853   5.192   6.073   1.388  0.1290 -1.7627  1.0735
 2788TIP3   OH229854   4.137   4.631   0.624  0.5051 -0.2127  0.2019
 2788TIP3    H129855   4.190   4.711   0.633  1.4637 -0.6107 -1.4789
 2788TIP3    H229856   4.179   4.568   0.684  1.0925 -0.1092 -0.0962
 2789TIP3   OH229857   5.199   1.521   1.761  0.0548 -0.0477 -0.1478
 2789TIP3    H129858   5.126   1.476   1.802  1.5015 -0.0657  2.6670
 2789TIP3    H229859   5.254   1.452   1.725 -0.1116 -0.1999 -0.1065
 2790TIP3   OH229860   0.564   2.166  15.019  0.5021 -0.0896  0.1656
 2790TIP3    H129861   0.625   2.129  15.082  0.2883 -1.5285 -0.4503
 2790TIP3    H229862   0.483   2.179  15.069  1.6098  3.1338  1.3591
 2791TIP3   OH229863   1.453   5.223   2.079 -0.0123  0.1428  0.1975
 2791TIP3    H129864   1.523   5.203   2.142  0.2765 -3.0490 -0.9801
 2791TIP3    H229865   1.382   5.164   2.104 -0.7254  0.4393 -1.0917
 2792TIP3   OH229866   0.416   1.742  16.672 -0.2591 -0.6385 -0.4913
 2792TIP3    H129867   0.422   1.821  16.725  1.8620 -1.2813  0.3390
 2792TIP3    H229868   0.337   1.754  16.620 -0.5976  1.5132  0.4056
 2793TIP3   OH229869   3.867   4.711   5.656  0.3378 -0.5824  0.3505
 2793TIP3    H129870   3.814   4.785   5.686  1.7562 -0.0428  1.6581
 2793TIP3    H229871   3.892   4.734   5.566 -3.8746 -2.1636 -1.5000
 2794TIP3   OH229872   4.744   3.324  11.594  0.1222 -0.4023 -0.5118
 2794TIP3    H129873   4.708   3.236  11.598 -1.0217  0.0720  1.5561
 2794TIP3    H229874   4.798   3.331  11.673 -0.4115  0.9368 -0.2252
 2795TIP3   OH229875   0.847   3.287  16.123 -0.5223 -0.1048  0.1851
 2795TIP3    H129876   0.923   3.234  16.149 -0.6736 -0.8011 -0.7471
 2795TIP3    H229877   0.876   3.336  16.047 -1.0756 -0.6021 -0.3663
 2796TIP3   OH229878   4.372   3.164   4.479 -0.3188  0.4791  0.2175
 2796TIP3    H129879   4.291   3.174   4.429 -0.4314 -0.7350  0.1320
 2796TIP3    H229880   4.441   3.160   4.412 -0.4758 -1.2144  0.1089
 2797TIP3   OH229881   6.541   5.310  14.815  0.4152 -0.1135 -0.5895
 2797TIP3    H129882   6.576   5.254  14.745  0.6924 -0.3531 -0.2636
 2797TIP3    H229883   6.456   5.271  14.837  0.7877 -0.6519 -0.0860
 2798TIP3   OH229884   2.757   2.821  14.688 -0.4837  0.0711  0.1660
 2798TIP3    H129885   2.730   2.828  14.779  0.6640 -1.5187  0.6793
 2798TIP3    H229886   2.845   2.858  14.686 -0.9251  1.1194 -0.5431
 2799TIP3   OH229887   2.022   4.329  16.319  0.4006 -0.4003  0.4811
 2799TIP3    H129888   2.003   4.255  16.262 -1.7335 -1.8544  2.8417
 2799TIP3    H229889   2.020   4.405  16.262  3.9183 -2.0958 -2.2910
 2800TIP3   OH229890   4.595   3.601   1.949 -0.1944 -0.2038 -0.5377
 2800TIP3    H129891   4.561   3.688   1.967 -2.3016 -0.9169 -0.8174
 2800TIP3    H229892   4.635   3.608   1.862  0.2383  0.6220 -0.2785
 2801TIP3   OH229893   5.087   2.609   4.148  0.6858  0.4326  0.0474
 2801TIP3    H129894   5.156   2.675   4.157  0.8215  0.4618 -1.0961
 2801TIP3    H229895   5.019   2.637   4.210  0.7997  1.5637 -0.3195
 2802TIP3   OH229896   3.753   2.406  12.291 -0.7470  0.2921  0.6309
 2802TIP3    H129897   3.685   2.440  12.348 -0.2805  0.4561  1.0983
 2802TIP3    H229898   3.821   2.474  12.292  0.0920 -0.5254  1.3891
 2803TIP3   OH229899   3.139   2.504  11.761  0.9050 -0.5851 -0.2270
 2803TIP3    H129900   3.070   2.541  11.707  0.5814 -1.0495 -0.1433
 2803TIP3    H229901   3.093   2.464  11.835  1.3165 -0.2723  0.2041
 2804TIP3   OH229902   1.647   0.450   0.070  0.3114 -0.6728 -0.4015
 2804TIP3    H129903   1.607   0.416   0.149 -0.0560 -1.2886 -0.8470
 2804TIP3    H229904   1.740   0.461   0.093  0.3753 -1.6616 -0.1421
 2805TIP3   OH229905   1.112   5.524  15.835 -0.2709 -0.2815  0.0210
 2805TIP3    H129906   1.126   5.596  15.896  1.7920  0.4519 -1.2033
 2805TIP3    H229907   1.148   5.448  15.880  1.5633  0.3162 -0.3355
 2806TIP3   OH229908   5.203   1.034  15.085 -0.2483 -0.2868  0.4590
 2806TIP3    H129909   5.184   0.972  15.015 -0.0313 -0.9798  0.9987
 2806TIP3    H229910   5.298   1.033  15.093 -0.3594 -1.9500  2.2641
 2807TIP3   OH229911   6.726   0.013   4.949  0.4095 -0.3694  0.2351
 2807TIP3    H129912   6.757   0.010   5.039  1.7649 -0.9139 -0.2207
 2807TIP3    H229913   6.773   0.087   4.909 -0.0688 -0.2206 -0.0685
 2808TIP3   OH229914   0.563   2.974   5.175 -0.2085 -0.3642  0.2701
 2808TIP3    H129915   0.521   3.054   5.207  1.2278  0.6595 -0.2822
 2808TIP3    H229916   0.497   2.932   5.121 -1.1924  0.1291  1.0639
 2809TIP3   OH229917   3.992   0.696  11.771  0.1514  0.3662  0.0899
 2809TIP3    H129918   3.957   0.608  11.761 -1.8269  1.0376  0.6656
 2809TIP3    H229919   4.030   0.716  11.685 -0.8409 -0.4366 -0.5668
 2810TIP3   OH229920   2.690   0.808  12.361 -0.1170 -0.0644  0.4194
 2810TIP3    H129921   2.651   0.755  12.431 -0.4106  0.6630  0.8166
 2810TIP3    H229922   2.783   0.809  12.381 -0.3142  0.9464  1.3690
 2811TIP3   OH229923   5.613   0.413   1.864  0.3499  0.0676 -0.4872
 2811TIP3    H129924   5.570   0.462   1.935 -3.0539  2.0520 -3.5536
 2811TIP3    H229925   5.580   0.324   1.874  0.7089  0.0575  0.9170
 2812TIP3   OH229926   1.785   4.162  16.408  0.2215 -0.2753 -0.2045
 2812TIP3    H129927   1.695   4.129  16.399 -0.2499  1.0253 -0.6008
 2812TIP3    H229928   1.785   4.243  16.357  1.6051 -0.2092 -0.1191
 2813TIP3   OH229929   3.027   2.193  11.240  0.2441  0.0001 -0.2125
 2813TIP3    H129930   3.036   2.289  11.238  0.0895  0.0424  0.6441
 2813TIP3    H229931   3.108   2.163  11.282  1.0961 -0.3857 -2.0470
 2814TIP3   OH229932   5.820   1.645   1.183 -0.2622  0.0957  0.1251
 2814TIP3    H129933   5.905   1.660   1.140 -0.5996  0.4047 -0.4404
 2814TIP3    H229934   5.841   1.586   1.255  0.5425  0.6933  0.3976
 2815TIP3   OH229935   3.237   6.328   3.431  0.1990 -0.3082 -0.2815
 2815TIP3    H129936   3.320   6.332   3.479 -0.0346  1.9830  0.0459
 2815TIP3    H229937   3.263   6.315   3.340  0.9475  0.3168 -0.1732
 2816TIP3   OH229938   4.339   2.594  15.721  0.4064 -0.6552 -0.2507
 2816TIP3    H129939   4.366   2.513  15.764 -0.9112 -0.5696  0.7639
 2816TIP3    H229940   4.332   2.658  15.791 -0.7503 -0.2398 -0.7194
 2817TIP3   OH229941   3.768   4.583  17.238  0.1846 -0.0679  0.4488
 2817TIP3    H129942   3.700   4.518  17.254 -0.3636  0.4256  0.1264
 2817TIP3    H229943   3.722   4.658  17.201  0.9864  0.0186 -0.4240
 2818TIP3   OH229944   0.215   2.678  14.544  0.4894  0.1372 -0.0901
 2818TIP3    H129945   0.219   2.583  14.549 -1.4723  0.0611  2.2162
 2818TIP3    H229946   0.125   2.697  14.518  1.6622  1.4421 -3.8590
 2819TIP3   OH229947   5.236   3.258   5.314  0.2368  0.6455  0.7959
 2819TIP3    H129948   5.181   3.182   5.329  0.0390  0.5291 -0.4356
 2819TIP3    H229949   5.235   3.305   5.398 -0.0744 -0.4068  1.4044
 2820TIP3   OH229950   2.878   3.720   3.352 -0.1327 -0.1477 -0.0780
 2820TIP3    H129951   2.933   3.697   3.427  2.6153 -1.4207 -2.3150
 2820TIP3    H229952   2.859   3.636   3.309  0.2514  0.7002 -2.0116
 2821TIP3   OH229953   6.784   0.578   2.776  0.6657  0.4449 -0.1050
 2821TIP3    H129954   6.791   0.656   2.832  3.2623 -0.9321  1.6993
 2821TIP3    H229955   6.801   0.505   2.835  2.9224 -1.1540 -2.5150
 2822TIP3   OH229956   6.334   0.325  16.273 -0.4874 -0.0009 -0.1863
 2822TIP3    H129957   6.350   0.231  16.281  1.6780  0.1420 -1.9351
 2822TIP3    H229958   6.378   0.363  16.349 -0.5883 -0.3086  0.0322
 2823TIP3   OH229959   6.081   1.730   0.339  0.2128  0.0278  0.0211
 2823TIP3    H129960   6.154   1.788   0.359 -0.0075  0.7391 -1.1710
 2823TIP3    H229961   6.074   1.732   0.244 -1.1338 -0.3175  0.0971
 2824TIP3   OH229962   4.305   5.230   1.026 -0.1130  0.4318 -0.5767
 2824TIP3    H129963   4.328   5.156   1.082  0.5053  0.5379 -0.6833
 2824TIP3    H229964   4.280   5.300   1.087 -0.0730  0.3432 -0.4581
 2825TIP3   OH229965   1.377   2.071   2.028  0.2828 -0.0687 -0.0766
 2825TIP3    H129966   1.467   2.063   2.061 -0.2585  0.6522  1.7296
 2825TIP3    H229967   1.372   2.161   1.997 -0.3568  0.6004  1.7948
 2826TIP3   OH229968   6.785   2.700  12.878  0.3239 -0.9088  0.1204
 2826TIP3    H129969   6.793   2.628  12.816  1.6381 -0.8898  0.2348
 2826TIP3    H229970   6.782   2.658  12.964 -0.2397 -0.8789  0.1182
 2827TIP3   OH229971   1.064   2.334  12.560 -0.3252 -0.2267  0.7075
 2827TIP3    H129972   1.135   2.290  12.605 -0.5029 -0.3334  0.8865
 2827TIP3    H229973   1.102   2.363  12.477 -0.4952 -1.7249  0.0678
 2828TIP3   OH229974   2.932   6.342   5.539  0.2532  0.5271  0.3934
 2828TIP3    H129975   3.004   6.388   5.580 -0.6744  2.9038 -0.4561
 2828TIP3    H229976   2.863   6.408   5.529 -1.2830 -1.1193 -0.6805
 2829TIP3   OH229977   4.342   2.720   3.738 -0.0417 -0.0316  0.2015
 2829TIP3    H129978   4.254   2.741   3.706  0.0406  2.2129  1.2424
 2829TIP3    H229979   4.365   2.794   3.795  1.6179 -1.6514  1.7792
 2830TIP3   OH229980   1.154   3.108  17.053 -0.1450  0.2074 -0.4412
 2830TIP3    H129981   1.158   3.013  17.049 -0.5059  0.1249  0.8105
 2830TIP3    H229982   1.145   3.136  16.962  0.8735 -0.9019 -0.8943
 2831TIP3   OH229983   4.725   5.295  10.930  0.4217 -0.1767  0.2869
 2831TIP3    H129984   4.653   5.320  10.873  0.2457  0.4134  0.7490
 2831TIP3    H229985   4.748   5.376  10.976  0.9168 -0.5169  0.6551
 2832TIP3   OH229986   5.984   0.098  15.551 -0.8943  0.8974  0.2709
 2832TIP3    H129987   6.052   0.155  15.514  0.2914 -1.2712 -1.1299
 2832TIP3    H229988   5.911   0.104  15.489 -1.7940  2.6739  1.4051
 2833TIP3   OH229989   0.163   1.202  13.739 -0.3238 -0.3960  0.7331
 2833TIP3    H129990   0.117   1.124  13.770 -1.5014  0.8938  2.3877
 2833TIP3    H229991   0.231   1.217  13.804  0.8548 -0.8243 -0.3538
 2834TIP3   OH229992   6.288   6.606   1.721 -0.4936 -0.5812 -0.1785
 2834TIP3    H129993   6.193   6.595   1.727 -0.7820  1.5807 -0.0313
 2834TIP3    H229994   6.300   6.675   1.656  0.7053  2.0343  2.6022
 2835TIP3   OH229995   2.161   0.836   1.582 -0.1150  0.0494  0.0813
 2835TIP3    H129996   2.206   0.920   1.585 -1.9952  1.1381 -0.6041
 2835TIP3    H229997   2.177   0.797   1.669  0.2115  1.4108  0.6589
 2836TIP3   OH229998   1.473   6.091   5.273  0.3220 -0.3596 -0.0542
 2836TIP3    H129999   1.480   6.031   5.199 -2.4756  1.0326 -1.5885
 2836TIP3    H230000   1.555   6.141   5.271  2.2264 -3.1790  0.5771
 2837TIP3   OH230001   0.909   1.414  13.146  0.1251  0.4093 -0.6067
 2837TIP3    H130002   0.994   1.416  13.190 -0.0393  2.3890 -0.2543
 2837TIP3    H230003   0.915   1.484  13.080 -0.8451 -0.1970 -1.3625
 2838TIP3   OH230004   3.145   0.337   0.916  0.2469  0.6396  0.3061
 2838TIP3    H130005   3.142   0.259   0.860  0.0149  0.7818  0.1221
 2838TIP3    H230006   3.129   0.303   1.004 -2.5268  0.7996 -0.0651
 2839TIP3   OH230007   3.302   5.008   3.093  0.5046 -0.1395 -0.6538
 2839TIP3    H130008   3.282   4.962   3.012 -3.1976  0.5050 -0.2919
 2839TIP3    H230009   3.367   4.953   3.137 -1.6842 -3.6884 -1.4409
 2840TIP3   OH230010   3.771   5.124  12.668  0.1089 -0.4256 -0.0219
 2840TIP3    H130011   3.681   5.093  12.677  0.1727 -0.4311  0.6433
 2840TIP3    H230012   3.769   5.181  12.591 -1.6153  3.6818  2.7395
 2841TIP3   OH230013   6.217   0.029  13.676 -0.6659  0.0265  0.5326
 2841TIP3    H130014   6.275   0.099  13.646 -0.4913  0.7344  2.3967
 2841TIP3    H230015   6.176   0.064  13.755 -0.3394 -2.0668  1.7012
 2842TIP3   OH230016   6.488   6.604  12.002 -0.1808 -0.2836  0.3310
 2842TIP3    H130017   6.474   6.601  12.097 -0.3054  1.6335  0.4261
 2842TIP3    H230018   6.582   6.619  11.992 -0.3896  1.0989  0.2423
 2843TIP3   OH230019   2.730   3.177  17.275  0.4976 -0.5455  0.2914
 2843TIP3    H130020   2.664   3.178  17.344  2.7312 -1.9953  2.6211
 2843TIP3    H230021   2.733   3.086  17.246 -0.1209 -0.0401 -1.5397
 2844TIP3   OH230022   1.595   4.806  12.002 -0.4574 -0.0997 -0.3738
 2844TIP3    H130023   1.570   4.762  11.920 -2.3904 -1.7128  0.9959
 2844TIP3    H230024   1.515   4.806  12.054  0.0777  3.0433  0.6593
 2845TIP3   OH230025   4.177   0.446  14.239 -0.2618  0.3269  0.4870
 2845TIP3    H130026   4.093   0.427  14.281  0.7171 -1.2209  1.8509
 2845TIP3    H230027   4.242   0.422  14.304  1.2666  1.5909 -0.5105
 2846TIP3   OH230028   4.164   5.637  12.740 -0.2132 -0.3469  0.1775
 2846TIP3    H130029   4.219   5.661  12.814  0.1820 -1.2395  0.1839
 2846TIP3    H230030   4.155   5.542  12.747  0.4610 -0.5377 -1.3601
 2847TIP3   OH230031   1.921   1.139  16.388  0.4116 -0.0867 -0.0109
 2847TIP3    H130032   1.958   1.178  16.309 -0.7782  2.5288  0.6004
 2847TIP3    H230033   1.978   1.065  16.408  1.1698 -0.3752 -2.8695
 2848TIP3   OH230034   1.826   2.573   0.887 -0.0139  0.4069 -0.2031
 2848TIP3    H130035   1.889   2.644   0.901 -0.4692  0.8282 -0.2914
 2848TIP3    H230036   1.815   2.533   0.973  1.3058 -0.4671 -0.3976
 2849TIP3   OH230037   2.129   2.513  13.423 -0.0137  0.0860  0.2270
 2849TIP3    H130038   2.190   2.445  13.454  1.9382  0.8048 -1.7694
 2849TIP3    H230039   2.092   2.478  13.342  0.8246  1.2385 -0.6913
 2850TIP3   OH230040   0.417   5.921   2.449  0.4414 -0.3271  0.1716
 2850TIP3    H130041   0.446   5.898   2.361 -0.1323 -3.1556  0.6415
 2850TIP3    H230042   0.398   5.837   2.491 -1.7157  1.0411  2.1705
 2851TIP3   OH230043   0.461   4.148   6.364 -0.0291  0.0268  0.5565
 2851TIP3    H130044   0.493   4.070   6.319  0.9825  1.6761 -1.8121
 2851TIP3    H230045   0.536   4.179   6.415  0.7985  1.3415 -1.3436
 2852TIP3   OH230046   2.248   4.219   3.350  0.4752  0.0072 -0.2926
 2852TIP3    H130047   2.174   4.202   3.408 -0.9162  0.5352 -1.8322
 2852TIP3    H230048   2.300   4.139   3.355 -0.8975 -0.9242 -0.1401
 2853TIP3   OH230049   5.371   4.371  16.636  0.0896  0.6303 -0.1664
 2853TIP3    H130050   5.368   4.409  16.548  0.6827  0.7432 -0.1413
 2853TIP3    H230051   5.286   4.392  16.674 -1.1730 -1.4835 -1.5724
 2854TIP3   OH230052   2.767   1.049   2.394  0.4763 -1.2009 -0.2479
 2854TIP3    H130053   2.724   0.978   2.441 -1.8310 -0.2130 -0.7227
 2854TIP3    H230054   2.748   1.033   2.302 -0.7240  0.3226 -0.3264
 2855TIP3   OH230055   1.512   0.280   1.800  0.3180  0.2948 -0.0076
 2855TIP3    H130056   1.505   0.324   1.716  0.2868  0.3210  0.0088
 2855TIP3    H230057   1.522   0.350   1.864 -3.4884  0.5882  0.4912
 2856TIP3   OH230058   0.636   1.312   3.383 -0.2686 -0.0843 -0.0080
 2856TIP3    H130059   0.687   1.291   3.461 -0.9987  0.1615  0.5478
 2856TIP3    H230060   0.639   1.233   3.330 -0.2241 -0.4412  0.5240
 2857TIP3   OH230061   1.206   1.781   3.303 -0.0353  0.2510 -0.0607
 2857TIP3    H130062   1.264   1.777   3.228  0.2279  0.9281  0.0968
 2857TIP3    H230063   1.230   1.863   3.347  0.7886 -0.8183  1.5614
 2858TIP3   OH230064   6.091   6.716  16.999 -0.3913 -0.1547 -0.2431
 2858TIP3    H130065   6.040   6.636  17.011  0.4180 -0.5313  0.8603
 2858TIP3    H230066   6.033   6.774  16.949 -0.7837 -1.6055 -1.5543
 2859TIP3   OH230067   3.214   1.246  14.894 -0.0140  0.7850  0.2116
 2859TIP3    H130068   3.305   1.236  14.920  0.6314  0.9258 -1.7915
 2859TIP3    H230069   3.184   1.156  14.881  0.0915  0.7665  0.0921
 2860TIP3   OH230070   4.196   2.501  13.137 -0.1605 -0.2790  0.2778
 2860TIP3    H130071   4.183   2.444  13.061 -1.9206 -1.4261  1.3890
 2860TIP3    H230072   4.271   2.556  13.112 -0.4292 -0.8694 -2.1155
 2861TIP3   OH230073   5.167   5.888   0.251 -0.0743  0.0946 -0.1701
 2861TIP3    H130074   5.198   5.959   0.195 -2.0883  0.8815 -0.3722
 2861TIP3    H230075   5.219   5.896   0.331  0.8520  0.7698 -0.8255
 2862TIP3   OH230076   1.640   2.217   2.175 -0.1405  0.1576  0.2450
 2862TIP3    H130077   1.735   2.211   2.180 -0.2143 -2.0957  0.2126
 2862TIP3    H230078   1.623   2.259   2.091  0.8226 -0.0958 -0.0927
 2863TIP3   OH230079   3.308   4.125   3.520 -0.4098 -0.2446  0.1767
 2863TIP3    H130080   3.374   4.056   3.522  0.4322  0.5143 -0.6200
 2863TIP3    H230081   3.271   4.125   3.609 -1.1883 -2.3974 -0.0800
 2864TIP3   OH230082   3.208   1.101  13.285 -0.2207  0.0769  0.3868
 2864TIP3    H130083   3.121   1.073  13.312 -0.5162  1.3623  0.8422
 2864TIP3    H230084   3.209   1.196  13.300  1.8606 -0.1363  2.1043
 2865TIP3   OH230085   1.983   4.338  12.623  0.1534 -0.0484 -0.2983
 2865TIP3    H130086   1.960   4.250  12.652 -1.1402  0.7153  1.1758
 2865TIP3    H230087   1.916   4.360  12.558  1.0092 -0.4705 -1.3393
 2866TIP3   OH230088   5.952   4.562   3.520 -0.1959  0.0117 -0.2492
 2866TIP3    H130089   5.892   4.612   3.466 -1.5317 -0.3936  0.8049
 2866TIP3    H230090   5.929   4.470   3.505 -1.9561 -0.0877  2.3770
 2867TIP3   OH230091   2.834   3.371   4.816  0.0433 -0.0259  0.3758
 2867TIP3    H130092   2.844   3.358   4.910  1.3247 -1.0592  0.1412
 2867TIP3    H230093   2.884   3.299   4.777 -1.3916 -0.2896 -1.1064
 2868TIP3   OH230094   4.610   1.672   1.592  0.8707 -0.2692  0.1648
 2868TIP3    H130095   4.632   1.601   1.652  1.5096 -0.1215  0.1193
 2868TIP3    H230096   4.676   1.666   1.523  1.0394  0.4675  0.2532
 2869TIP3   OH230097   1.157   2.076  15.499 -0.1942  0.0725  0.5753
 2869TIP3    H130098   1.162   2.061  15.405  3.1371 -1.0269  0.7681
 2869TIP3    H230099   1.115   1.997  15.534  1.4505 -1.0406  0.1753
 2870TIP3   OH230100   3.015   5.140  17.177  0.3439  0.0413  0.0151
 2870TIP3    H130101   3.049   5.057  17.145  0.3020 -1.3328  3.1599
 2870TIP3    H230102   2.920   5.127  17.181  0.2967  0.4079  0.1117
 2871TIP3   OH230103   0.223   5.982   5.346  0.1845 -0.5269  0.2742
 2871TIP3    H130104   0.130   5.990   5.323  0.4312  1.1822 -0.2443
 2871TIP3    H230105   0.236   6.047   5.416  1.3300  0.4600 -0.8051
 2872TIP3   OH230106   0.958   5.931  15.103 -0.2182  0.2250  0.5362
 2872TIP3    H130107   1.037   5.933  15.157  0.5849 -3.3363 -0.2796
 2872TIP3    H230108   0.892   5.893  15.159 -0.3342 -0.2605  0.0710
 2873TIP3   OH230109   2.018   6.013   4.805 -0.2560  0.0723 -0.2923
 2873TIP3    H130110   1.966   5.959   4.745  0.4466  0.2665 -1.0996
 2873TIP3    H230111   2.098   6.031   4.757 -0.1598  1.2078  0.2632
 2874TIP3   OH230112   4.498   1.160   0.764  0.0980  0.4285  0.1912
 2874TIP3    H130113   4.446   1.213   0.826 -0.4910 -0.8733  0.8417
 2874TIP3    H230114   4.445   1.158   0.685  0.6691  1.7622 -0.2663
 2875TIP3   OH230115   0.557   0.267   4.975 -0.3197  0.2084 -0.0274
 2875TIP3    H130116   0.481   0.325   4.977 -0.1193  0.5603 -1.6027
 2875TIP3    H230117   0.619   0.310   4.916 -0.3627 -1.8050 -1.6580
 2876TIP3   OH230118   0.291   5.019   4.718  0.1783  0.0695  0.2192
 2876TIP3    H130119   0.303   4.989   4.627  1.6519  1.8074 -0.2037
 2876TIP3    H230120   0.196   5.028   4.727  0.0680  1.4017 -1.6962
 2877TIP3   OH230121   5.639   3.492   1.378 -0.0542 -0.4865 -0.4739
 2877TIP3    H130122   5.672   3.437   1.307 -0.0713 -1.6869  0.4151
 2877TIP3    H230123   5.557   3.527   1.345  0.1073 -0.7510 -1.1818
 2878TIP3   OH230124   1.517   4.982  16.331 -0.3589 -0.1970  0.1284
 2878TIP3    H130125   1.549   4.943  16.412 -0.5653  2.1549  1.4189
 2878TIP3    H230126   1.597   5.008  16.284 -0.2137 -2.1367 -0.8080
 2879TIP3   OH230127   2.669   3.691  14.600 -0.2897 -0.2906 -0.4046
 2879TIP3    H130128   2.646   3.772  14.645  0.8519  0.1243 -0.5481
 2879TIP3    H230129   2.640   3.704  14.510 -0.6491 -0.2807 -0.2889
 2880TIP3   OH230130   5.592   6.191   2.192 -0.2880 -1.0168 -0.2873
 2880TIP3    H130131   5.576   6.256   2.261  0.5664  0.1298 -1.1444
 2880TIP3    H230132   5.504   6.166   2.163 -0.6807  1.5288 -1.5494
 2881TIP3   OH230133   4.465   0.329   5.859 -0.1438  0.2387 -0.0126
 2881TIP3    H130134   4.391   0.282   5.896  0.6461 -0.7775  0.3211
 2881TIP3    H230135   4.426   0.387   5.794 -1.0512 -1.8451 -1.4371
 2882TIP3   OH230136   0.088   4.929  16.674  0.4406  0.4721 -0.1300
 2882TIP3    H130137   0.130   4.875  16.607 -0.6819  2.7947 -2.9296
 2882TIP3    H230138   0.149   5.000  16.689 -0.5688  1.5667 -1.0171
 2883TIP3   OH230139   0.765   0.002  14.567 -0.0389  0.4414  0.0332
 2883TIP3    H130140   0.723   0.044  14.642  0.1283  0.7128 -0.0227
 2883TIP3    H230141   0.692  -0.026  14.511 -0.1843 -0.4928  0.6872
 2884TIP3   OH230142   3.469   0.121  12.802 -1.0636  0.1735 -1.0691
 2884TIP3    H130143   3.478   0.097  12.895 -2.7852  2.2123 -0.2761
 2884TIP3    H230144   3.497   0.212  12.799 -1.7793  0.3661 -2.3898
 2885TIP3   OH230145   1.287   3.686   1.529  0.0639 -0.5401 -0.1564
 2885TIP3    H130146   1.243   3.743   1.592 -0.7835  1.3093 -2.2988
 2885TIP3    H230147   1.239   3.603   1.534 -0.3207 -0.2560  1.2160
 2886TIP3   OH230148   2.790   6.601   1.287  0.0368 -0.2956 -0.0750
 2886TIP3    H130149   2.870   6.653   1.292  0.1907 -0.4359 -1.0200
 2886TIP3    H230150   2.816   6.513   1.311 -0.2114  0.0192  1.4661
 2887TIP3   OH230151   5.783   0.190   2.844  0.4711  0.1785 -0.0310
 2887TIP3    H130152   5.728   0.121   2.808 -1.3610  1.4087  0.2635
 2887TIP3    H230153   5.864   0.186   2.793 -0.3001 -0.9903 -1.2217
 2888TIP3   OH230154   0.854   4.369  14.479  0.6731 -0.0704  0.0803
 2888TIP3    H130155   0.837   4.431  14.408  1.7602 -1.1404 -1.1690
 2888TIP3    H230156   0.943   4.391  14.508  0.7395 -0.4894  0.1960
 2889TIP3   OH230157   3.514   2.128   4.362  0.1247  0.0849 -0.1359
 2889TIP3    H130158   3.573   2.174   4.422  0.2207 -1.0436  0.6729
 2889TIP3    H230159   3.442   2.190   4.347  0.5840  0.7604  0.3660
 2890TIP3   OH230160   0.711   3.410   1.873  0.4409  0.0369  0.2523
 2890TIP3    H130161   0.702   3.358   1.793  0.4301 -0.9347  0.8691
 2890TIP3    H230162   0.772   3.359   1.927 -0.3320  0.1617  1.2710
 2891TIP3   OH230163   5.260   3.575   6.006 -0.3250 -0.7159 -0.0248
 2891TIP3    H130164   5.244   3.655   6.056 -0.7788 -0.1019 -1.1202
 2891TIP3    H230165   5.256   3.505   6.071  1.9560  0.2601  1.3124
 2892TIP3   OH230166   5.822   5.588   4.270 -0.3458 -0.1784 -0.6176
 2892TIP3    H130167   5.839   5.548   4.355  0.7790 -0.9522 -1.1704
 2892TIP3    H230168   5.906   5.627   4.245 -0.0495 -1.7236 -2.2530
 2893TIP3   OH230169   5.608   5.478  13.433  0.3053  0.2387 -0.4571
 2893TIP3    H130170   5.625   5.398  13.382  2.8946 -0.9716  2.0333
 2893TIP3    H230171   5.693   5.519  13.444  0.1482 -0.0832  3.5238
 2894TIP3   OH230172   5.303   5.988  15.863  0.0813  0.0327  0.1375
 2894TIP3    H130173   5.270   6.024  15.781  2.2082  0.9987 -0.3930
 2894TIP3    H230174   5.316   6.065  15.918  0.8006 -0.3608  0.5266
 2895TIP3   OH230175   0.251   2.933   2.976 -0.1537 -0.1732 -0.2005
 2895TIP3    H130176   0.334   2.887   2.983  0.8348  1.3395 -1.2318
 2895TIP3    H230177   0.205   2.889   2.904  0.4243 -0.0798 -0.6371
 2896TIP3   OH230178   1.223   6.267   0.014  0.6438  0.6626  0.6667
 2896TIP3    H130179   1.174   6.223  -0.055  1.7893 -0.8641  0.7557
 2896TIP3    H230180   1.161   6.327   0.055 -0.5505  0.2426 -0.4880
 2897TIP3   OH230181   5.963   1.514   4.796  0.5713  0.5849 -0.1047
 2897TIP3    H130182   6.000   1.585   4.850  1.5564  0.2524 -0.3095
 2897TIP3    H230183   6.009   1.521   4.713 -0.3588  0.5852 -0.6256
 2898TIP3   OH230184   1.778   1.488   2.595  0.0807  0.5497  0.0512
 2898TIP3    H130185   1.748   1.559   2.652 -2.4112  0.4824 -1.0840
 2898TIP3    H230186   1.764   1.519   2.506 -0.7186 -1.1881 -0.4825
 2899TIP3   OH230187   4.939   3.861   2.625  0.5688  0.6654  0.2238
 2899TIP3    H130188   4.997   3.900   2.560 -1.9188 -1.0471 -3.3468
 2899TIP3    H230189   4.979   3.776   2.645  0.8196  0.7563  0.1056
 2900TIP3   OH230190   1.914   0.523   3.269 -0.2232 -0.1881 -0.0887
 2900TIP3    H130191   1.860   0.525   3.348 -0.3696  0.2339 -0.1990
 2900TIP3    H230192   1.973   0.449   3.282 -0.8667 -0.6832  0.0040
 2901TIP3   OH230193   2.409   0.259  16.576  0.3852 -0.1226  0.7369
 2901TIP3    H130194   2.316   0.246  16.560  0.5283  0.1389 -0.4348
 2901TIP3    H230195   2.414   0.342  16.623 -0.0876 -1.1123  2.6299
 2902TIP3   OH230196   6.123   4.092  12.453 -0.1635  0.2710 -0.4533
 2902TIP3    H130197   6.127   4.000  12.425 -0.1210  0.6261 -1.6920
 2902TIP3    H230198   6.029   4.110  12.459 -0.1737  0.1865 -0.3492
 2903TIP3   OH230199   3.575   3.673   4.280  0.1366  0.4686 -0.4580
 2903TIP3    H130200   3.546   3.736   4.214  0.1451 -1.1315 -2.0804
 2903TIP3    H230201   3.668   3.691   4.291 -0.3879  2.5709  1.2901
 2904TIP3   OH230202   4.695   6.162   2.740  0.3827  0.2089 -0.0050
 2904TIP3    H130203   4.702   6.135   2.832 -0.0387 -1.4820 -0.4357
 2904TIP3    H230204   4.620   6.221   2.738  1.0470  1.1272  0.9037
 2905TIP3   OH230205   0.324   3.760  11.901 -0.4509  0.5918  0.0618
 2905TIP3    H130206   0.339   3.851  11.872 -0.6646  0.0670 -1.8471
 2905TIP3    H230207   0.409   3.718  11.889 -0.7743  0.1409 -0.7070
 2906TIP3   OH230208   1.428   6.396  16.378 -0.5679  0.4336  0.2646
 2906TIP3    H130209   1.366   6.447  16.326 -0.1827 -0.0601 -0.7005
 2906TIP3    H230210   1.513   6.435  16.361 -0.5436  0.8802  1.3071
 2907TIP3   OH230211   2.226   0.613  13.118  0.6438 -0.1070 -0.6892
 2907TIP3    H130212   2.182   0.638  13.199  1.1525 -1.9195  0.1863
 2907TIP3    H230213   2.172   0.652  13.049 -0.7689  0.0462  0.4533
 2908TIP3   OH230214   4.615   4.387  15.424 -0.7454  0.5228  0.3663
 2908TIP3    H130215   4.704   4.401  15.393 -0.5722 -2.0060 -0.4654
 2908TIP3    H230216   4.561   4.439  15.364  0.0028  0.2199 -0.5843
 2909TIP3   OH230217   4.306   0.223   0.080 -0.0930  0.0899  0.1357
 2909TIP3    H130218   4.266   0.167   0.146 -0.1050  1.4270  1.2999
 2909TIP3    H230219   4.343   0.162   0.016  1.9032 -1.3471  2.5012
 2910TIP3   OH230220   1.053   1.379  14.693  0.7384 -0.1043 -0.3696
 2910TIP3    H130221   1.121   1.377  14.761  0.9405 -0.1995 -0.5738
 2910TIP3    H230222   0.986   1.319  14.726  0.4928  0.4128  0.0978
 2911TIP3   OH230223   3.133   4.343   3.256  0.0817 -0.1812  0.3916
 2911TIP3    H130224   3.128   4.249   3.239  0.4490  0.0095 -0.8766
 2911TIP3    H230225   3.065   4.359   3.322 -0.6168 -1.1850 -0.0601
 2912TIP3   OH230226   0.489   0.475   3.310  0.4696 -0.2001 -0.6001
 2912TIP3    H130227   0.409   0.519   3.340  0.4209  0.3544 -1.5188
 2912TIP3    H230228   0.476   0.383   3.334 -1.2753 -0.4816 -2.3426
 2913TIP3   OH230229   0.920   3.037  11.230 -0.0562  0.2158  0.3055
 2913TIP3    H130230   0.978   2.961  11.220 -1.3428 -0.5998 -1.8273
 2913TIP3    H230231   0.959   3.104  11.174  0.9547  1.1000  2.0121
 2914TIP3   OH230232   1.747   4.129   6.208 -0.1474 -0.0313  0.7750
 2914TIP3    H130233   1.778   4.099   6.293 -0.3636  0.0902  0.8983
 2914TIP3    H230234   1.821   4.178   6.171 -0.4578  0.9501  1.4114
 2915TIP3   OH230235   0.742   0.698   0.448  0.0062  0.1968 -0.2125
 2915TIP3    H130236   0.758   0.617   0.496 -0.7163 -0.2949 -0.7777
 2915TIP3    H230237   0.822   0.712   0.397 -0.6316 -1.3277 -1.7304
 2916TIP3   OH230238   3.268   4.515  13.282  0.5536  0.4461 -0.5234
 2916TIP3    H130239   3.315   4.480  13.357 -0.8280 -1.3709 -0.4318
 2916TIP3    H230240   3.220   4.440  13.247 -0.8375  1.8116 -1.6747
 2917TIP3   OH230241   2.583   1.143  16.223 -0.1511  0.9495 -0.4598
 2917TIP3    H130242   2.567   1.208  16.154 -0.5093  0.1784 -1.1314
 2917TIP3    H230243   2.592   1.060  16.175 -0.5136  0.3826  0.4307
 2918TIP3   OH230244   1.480   3.004  15.570 -0.6873 -0.2405 -0.5464
 2918TIP3    H130245   1.564   2.960  15.588 -0.3664 -0.0804 -1.5726
 2918TIP3    H230246   1.461   2.982  15.478 -0.3173  2.0375 -1.2405
 2919TIP3   OH230247   4.270   2.269   2.656 -0.5987 -0.1527 -0.3361
 2919TIP3    H130248   4.217   2.315   2.721 -0.2909 -0.5322  0.1958
 2919TIP3    H230249   4.218   2.191   2.634 -0.2798 -0.5101  0.1645
 2920TIP3   OH230250   2.212   5.315  12.068 -0.5402  0.4211  0.4011
 2920TIP3    H130251   2.274   5.352  12.005 -1.5075  1.6634  0.1564
 2920TIP3    H230252   2.241   5.348  12.153  1.2326 -1.8714  0.7924
 2921TIP3   OH230253   4.536   2.538   3.604  0.1142 -0.4300  0.1100
 2921TIP3    H130254   4.601   2.527   3.673  0.6323  0.4040 -0.2344
 2921TIP3    H230255   4.471   2.597   3.643 -0.1834 -0.8553  0.2714
 2922TIP3   OH230256   1.689   4.440  16.651 -0.4915 -0.1019 -0.6891
 2922TIP3    H130257   1.625   4.511  16.637  0.4143  0.6488 -1.1713
 2922TIP3    H230258   1.642   4.375  16.703 -1.1159  1.2093  0.4579
 2923TIP3   OH230259   4.945   3.232  13.337 -0.3171 -0.1012 -0.3303
 2923TIP3    H130260   4.912   3.319  13.359 -0.6078 -0.4592  0.7222
 2923TIP3    H230261   4.901   3.210  13.255 -1.1227  0.2780 -0.0134
 2924TIP3   OH230262   2.453   0.254   5.327  0.2963  0.4145 -0.3538
 2924TIP3    H130263   2.368   0.297   5.330  0.6767  1.1954 -0.5649
 2924TIP3    H230264   2.467   0.234   5.235 -0.6045 -1.6897 -0.1030
 2925TIP3   OH230265   2.778   2.088  16.715 -0.6460  0.1286  0.4994
 2925TIP3    H130266   2.763   2.001  16.677  0.5900 -0.2045  0.7505
 2925TIP3    H230267   2.804   2.072  16.805 -1.2684  0.8197  0.8226
 2926TIP3   OH230268   4.878   0.442   2.765  0.1024  0.3766  0.0647
 2926TIP3    H130269   4.872   0.491   2.683 -1.4414 -0.8402 -0.6046
 2926TIP3    H230270   4.966   0.404   2.764  0.1139  0.4049 -1.0067
 2927TIP3   OH230271   0.640   0.801   3.818 -0.2958  0.1969 -0.4075
 2927TIP3    H130272   0.614   0.880   3.771 -0.3345 -0.4915 -1.6028
 2927TIP3    H230273   0.641   0.827   3.910 -2.3036  1.0431 -0.5635
 2928TIP3   OH230274   2.550   3.869  17.089  0.2278 -0.5077 -0.2016
 2928TIP3    H130275   2.628   3.834  17.046  2.1556 -1.2664  3.4165
 2928TIP3    H230276   2.575   3.958  17.115  0.3479 -1.0597  1.7561
 2929TIP3   OH230277   5.875   2.463   0.575  0.2330 -0.1635 -0.1696
 2929TIP3    H130278   5.909   2.451   0.664 -0.3258 -0.0544  0.0644
 2929TIP3    H230279   5.953   2.462   0.519  0.6107 -0.0145  0.3434
 2930TIP3   OH230280   5.642   0.931  13.927 -0.6313 -1.0989  0.4782
 2930TIP3    H130281   5.711   0.958  13.988 -1.2109 -0.0464  0.6961
 2930TIP3    H230282   5.682   0.862  13.874  0.3087 -1.0997  1.1611
 2931TIP3   OH230283   6.115   2.822  13.014 -0.7564  0.1829 -0.0016
 2931TIP3    H130284   6.200   2.851  12.980 -1.6439  1.7211 -1.0197
 2931TIP3    H230285   6.055   2.829  12.940 -1.6562 -1.5991  0.4998
 2932TIP3   OH230286   6.209   3.010   6.869 -0.4294 -0.2820 -0.5461
 2932TIP3    H130287   6.263   2.938   6.837  1.0699  0.4391  0.2606
 2932TIP3    H230288   6.223   3.080   6.806 -0.8160 -0.2308 -0.5818
 2933TIP3   OH230289   2.352   0.366  12.890 -0.4983  0.2126  0.5769
 2933TIP3    H130290   2.309   0.285  12.918  0.2024 -0.5582 -0.5173
 2933TIP3    H230291   2.442   0.358  12.921  0.2184 -0.5285 -1.5252
 2934TIP3   OH230292   6.265   1.455   5.888  0.1646  0.1805 -0.0469
 2934TIP3    H130293   6.222   1.522   5.942  1.7194  0.5770  0.7579
 2934TIP3    H230294   6.194   1.413   5.840 -1.2178  0.1754  1.9124
 2935TIP3   OH230295   5.251   2.813   2.363  0.0012 -0.3080 -0.0039
 2935TIP3    H130296   5.159   2.836   2.376  0.2390  0.3290  0.6505
 2935TIP3    H230297   5.285   2.882   2.305  0.4729  0.4408  1.1396
 2936TIP3   OH230298   6.071   1.337  14.408 -0.7170 -0.2674 -0.0565
 2936TIP3    H130299   6.035   1.420  14.375 -0.9495 -0.3021  0.1052
 2936TIP3    H230300   6.146   1.364  14.461 -0.3079 -0.2177 -0.6608
 2937TIP3   OH230301   0.506   1.905  15.751 -0.2362  0.3501 -0.1673
 2937TIP3    H130302   0.428   1.850  15.757 -0.0246 -0.0913 -1.1759
 2937TIP3    H230303   0.515   1.944  15.838 -0.2294 -1.4348  0.6837
 2938TIP3   OH230304   6.179   4.157   5.886 -0.0219  0.0377 -0.2194
 2938TIP3    H130305   6.199   4.189   5.974  0.6354 -0.0749 -0.3173
 2938TIP3    H230306   6.229   4.076   5.879 -0.7045 -0.3736 -0.4130
 2939TIP3   OH230307   2.985   4.019   0.781  0.2015  0.0003  0.6377
 2939TIP3    H130308   2.890   4.029   0.767  0.2150 -0.3794  0.2473
 2939TIP3    H230309   3.003   3.929   0.755  0.3492 -0.5614  2.5799
 2940TIP3   OH230310   6.011   6.173  12.135 -0.2272 -0.5499  0.5454
 2940TIP3    H130311   6.017   6.255  12.087 -3.4099 -0.1045  0.6737
 2940TIP3    H230312   6.094   6.166  12.182  1.7171  0.5722 -2.4650
 2941TIP3   OH230313   6.609   5.157  16.725  0.6400 -0.4077  0.7435
 2941TIP3    H130314   6.551   5.229  16.750 -2.0703 -2.3092  0.3827
 2941TIP3    H230315   6.634   5.177  16.635 -1.1152 -0.4886  0.2016
 2942TIP3   OH230316   1.195   2.978  11.443  0.3456  0.3263  0.0077
 2942TIP3    H130317   1.286   3.007  11.441  0.0494  1.3135 -0.2655
 2942TIP3    H230318   1.176   2.954  11.352 -0.1820  1.9270 -0.3450
 2943TIP3   OH230319   1.930   2.916   6.224 -0.2549  0.0996  0.5216
 2943TIP3    H130320   1.865   2.925   6.294 -0.5049  2.3137  0.0683
 2943TIP3    H230321   1.895   2.967   6.151  1.0542 -0.3330 -0.4526
 2944TIP3   OH230322   0.595   6.299   3.074 -0.0535  0.0130  0.1216
 2944TIP3    H130323   0.556   6.385   3.055 -1.0066 -0.6084 -0.9277
 2944TIP3    H230324   0.663   6.289   3.008  1.0707  0.5557  1.1613
 2945TIP3   OH230325   3.154   1.945   3.662  0.2867  0.4940 -0.2011
 2945TIP3    H130326   3.129   1.856   3.637  0.5736  0.3859 -0.1104
 2945TIP3    H230327   3.144   1.947   3.758 -1.4966  1.1207 -0.3609
 2946TIP3   OH230328   0.898   5.890   2.759 -0.4981 -0.3171  0.4400
 2946TIP3    H130329   0.904   5.795   2.770 -0.3045 -0.5346 -1.2455
 2946TIP3    H230330   0.899   5.903   2.664  1.5490  1.4803  0.6209
 2947TIP3   OH230331   2.876   0.669   1.202  0.1619  0.2504  0.3923
 2947TIP3    H130332   2.931   0.596   1.228 -0.9076 -0.6809  0.1389
 2947TIP3    H230333   2.865   0.658   1.107 -1.8020 -0.5959  0.6612
 2948TIP3   OH230334   4.046   4.531   2.546 -0.0484 -0.1219  0.7615
 2948TIP3    H130335   4.059   4.552   2.454  1.3662 -0.7005  0.8011
 2948TIP3    H230336   3.996   4.605   2.581  1.1292  1.0793 -0.0207
 2949TIP3   OH230337   4.867   0.546  12.506  0.3859  0.5979  0.1459
 2949TIP3    H130338   4.919   0.564  12.427 -0.9482  0.6437 -0.7524
 2949TIP3    H230339   4.918   0.480  12.553  1.5017  0.9993 -0.4461
 2950TIP3   OH230340   2.042   4.234   2.407 -0.0274  0.0696  0.2149
 2950TIP3    H130341   2.011   4.177   2.336  0.5033 -1.1856  0.9582
 2950TIP3    H230342   2.011   4.191   2.487 -1.7390  2.1161  0.7633
 2951TIP3   OH230343   3.757   2.818  15.573  0.0028  0.0391 -0.3743
 2951TIP3    H130344   3.851   2.807  15.556  0.1659 -0.9338  1.0429
 2951TIP3    H230345   3.733   2.743  15.627 -1.8415 -0.3004 -1.5583
 2952TIP3   OH230346   1.571   2.404   6.131  0.1170  0.2885  0.0095
 2952TIP3    H130347   1.614   2.394   6.046 -0.3411  1.2953 -0.3608
 2952TIP3    H230348   1.589   2.322   6.178 -0.3993 -0.6644 -1.4044
 2953TIP3   OH230349   1.237   2.837   1.364  0.3288  0.1306  0.1048
 2953TIP3    H130350   1.269   2.925   1.387  1.4455 -0.1657 -0.2636
 2953TIP3    H230351   1.143   2.849   1.350  0.4764  1.2906 -0.0019
 2954TIP3   OH230352   3.323   1.376   2.280  0.0100 -0.3507 -0.1537
 2954TIP3    H130353   3.361   1.292   2.254 -1.1948 -1.3231  1.0895
 2954TIP3    H230354   3.371   1.401   2.359 -1.8423 -1.6129  1.4561
 2955TIP3   OH230355   5.757   3.597  13.978  0.1563  0.7015 -0.0728
 2955TIP3    H130356   5.840   3.556  13.954  0.0364  0.1593  0.4032
 2955TIP3    H230357   5.723   3.542  14.049 -0.9290  0.5239 -0.7133
 2956TIP3   OH230358   5.875   0.809   1.813 -1.1307 -0.0154 -0.3462
 2956TIP3    H130359   5.930   0.882   1.786 -0.1340  0.0152  1.5987
 2956TIP3    H230360   5.927   0.731   1.793 -1.1429 -0.0736 -0.1533
 2957TIP3   OH230361   0.166   1.476  11.796 -0.7253  0.3660 -0.2472
 2957TIP3    H130362   0.079   1.514  11.779 -0.5137 -0.1622 -2.7929
 2957TIP3    H230363   0.211   1.480  11.712  1.4358 -0.1938  0.8170
 2958TIP3   OH230364   6.594   4.474   4.302 -0.1853 -0.2472  0.3874
 2958TIP3    H130365   6.514   4.441   4.344 -0.2967 -0.8571 -0.2812
 2958TIP3    H230366   6.657   4.403   4.312 -0.2462 -0.4446 -0.5499
 2959TIP3   OH230367   6.553   0.574  14.738 -0.2662 -0.0747 -0.2523
 2959TIP3    H130368   6.628   0.616  14.781 -1.7646  1.8700  0.6402
 2959TIP3    H230369   6.589   0.494  14.699  1.9699  0.0808  1.2927
 2960TIP3   OH230370   5.830   5.005  13.888  0.5841 -0.6290  0.0143
 2960TIP3    H130371   5.879   4.953  13.823  0.6071 -0.7344  0.1167
 2960TIP3    H230372   5.869   5.093  13.881  0.5833 -0.6386 -0.1185
 2961TIP3   OH230373   1.800   3.747   6.128  0.5281 -0.6405  0.1750
 2961TIP3    H130374   1.763   3.687   6.063 -0.8792 -1.3671  1.5754
 2961TIP3    H230375   1.756   3.724   6.210  2.6483 -0.1627  1.5418
 2962TIP3   OH230376   4.561   5.968   5.312  0.6420  0.1118 -0.0904
 2962TIP3    H130377   4.626   5.900   5.290  0.2270 -0.6193  0.8714
 2962TIP3    H230378   4.515   5.933   5.387  0.6412  1.6386  0.6523
 2963TIP3   OH230379   1.438   2.080   0.041 -0.6338 -0.6611 -0.0555
 2963TIP3    H130380   1.362   2.114  -0.006 -0.1119 -1.3540 -1.4453
 2963TIP3    H230381   1.408   2.069   0.131 -1.7555  0.3892 -0.2808
 2964TIP3   OH230382   0.747   5.231   1.306 -0.3209 -0.0438  0.3064
 2964TIP3    H130383   0.681   5.297   1.329 -0.8754 -0.0234 -1.1932
 2964TIP3    H230384   0.718   5.151   1.349 -2.3498 -0.4767 -1.6628
 2965TIP3   OH230385   4.890   4.229   1.283  0.4245  0.0313  0.2341
 2965TIP3    H130386   4.817   4.262   1.231  1.4103  0.4117 -0.9578
 2965TIP3    H230387   4.949   4.304   1.292  0.6599 -0.2602  1.1935
 2966TIP3   OH230388   2.181   6.394   4.862 -0.4559 -0.0202  0.4393
 2966TIP3    H130389   2.089   6.371   4.854 -0.1887 -0.9562 -0.0744
 2966TIP3    H230390   2.207   6.419   4.773 -0.2383  0.3635  0.6080
 2967TIP3   OH230391   5.888   1.551  14.243  0.2456  0.3700 -0.2115
 2967TIP3    H130392   5.924   1.640  14.238  0.5729  0.3245  1.0071
 2967TIP3    H230393   5.956   1.496  14.205  0.5978  0.5049  0.2202
 2968TIP3   OH230394   2.293   5.992   6.244  0.7606  0.1189 -0.1765
 2968TIP3    H130395   2.216   5.981   6.300  1.0086  1.6645  0.5254
 2968TIP3    H230396   2.359   5.934   6.283  0.7250  0.6862  0.7791
 2969TIP3   OH230397   3.482   2.495   5.940  0.0445  0.0496  0.6836
 2969TIP3    H130398   3.536   2.562   5.897 -2.3983  0.1514 -2.6095
 2969TIP3    H230399   3.516   2.412   5.906 -0.2012 -0.0334  0.6366
 2970TIP3   OH230400   0.041   5.746   1.025  0.1965 -0.2321 -0.2591
 2970TIP3    H130401  -0.007   5.827   1.041  0.9116  0.5519 -1.9334
 2970TIP3    H230402   0.084   5.759   0.941  2.7801 -1.1616  0.7975
 2971TIP3   OH230403   1.268   5.708   4.481  0.0407 -0.0045  0.2583
 2971TIP3    H130404   1.236   5.680   4.567  0.3095 -0.0364  0.3470
 2971TIP3    H230405   1.202   5.770   4.450 -0.0110  0.0740  0.5258
 2972TIP3   OH230406   6.116   1.647  11.600  0.2352 -0.2634  0.4125
 2972TIP3    H130407   6.121   1.718  11.537 -0.0919  0.4769  1.2051
 2972TIP3    H230408   6.100   1.690  11.684  1.4736 -1.1602  1.1420
 2973TIP3   OH230409   1.900   4.088   3.546 -0.5590  0.6371  0.0918
 2973TIP3    H130410   1.873   4.126   3.630 -0.1747 -0.6304  0.8296
 2973TIP3    H230411   1.993   4.110   3.539 -0.7693  1.3960 -0.3857
 2974TIP3   OH230412   2.960   1.254  14.016  0.4738 -0.0150  0.5165
 2974TIP3    H130413   2.986   1.332  13.968 -0.8899  1.0380  1.3809
 2974TIP3    H230414   2.929   1.193  13.949 -1.0868  1.2957 -0.0264
 2975TIP3   OH230415   5.459   2.407  10.621 -0.2316 -0.0480 -0.4646
 2975TIP3    H130416   5.454   2.501  10.604 -0.4971 -0.3489 -2.2768
 2975TIP3    H230417   5.551   2.392  10.645 -0.5002  0.8480  1.2898
 2976TIP3   OH230418   3.485   5.535   2.192  0.3511 -0.6573 -0.3265
 2976TIP3    H130419   3.512   5.472   2.260  0.6905  0.1280  0.2915
 2976TIP3    H230420   3.478   5.618   2.239  1.3092  0.0507 -1.3977
 2977TIP3   OH230421   0.453   1.431  12.293 -0.0657 -0.1982 -0.3388
 2977TIP3    H130422   0.517   1.441  12.364 -1.6540 -1.2957  1.3740
 2977TIP3    H230423   0.477   1.348  12.251 -0.5814 -0.8505  0.6041
 2978TIP3   OH230424   1.199   1.454  12.984 -0.0272  0.7937 -0.0194
 2978TIP3    H130425   1.210   1.369  12.941 -2.5839  0.4404 -0.1096
 2978TIP3    H230426   1.287   1.477  13.014  1.0170 -1.1009 -1.4140
 2979TIP3   OH230427   2.141   1.531  13.147 -0.1090  0.4155  0.2652
 2979TIP3    H130428   2.223   1.574  13.122 -0.0388  2.2965  3.2030
 2979TIP3    H230429   2.083   1.604  13.170 -1.6480 -0.9741  0.9454
 2980TIP3   OH230430   4.021   5.054   3.245  0.6715 -0.4910 -0.1416
 2980TIP3    H130431   3.945   5.111   3.229  0.7610 -0.2312  0.3464
 2980TIP3    H230432   4.095   5.106   3.215  0.5755 -1.1557 -1.6193
 2981TIP3   OH230433   3.087   4.895   3.961  0.0727 -0.0394  0.1406
 2981TIP3    H130434   3.091   4.894   3.865 -0.3091  1.6159  0.0792
 2981TIP3    H230435   3.029   4.968   3.982  2.3976  1.5472  1.6414
 2982TIP3   OH230436   3.501   3.188   5.577 -0.4926  0.6916  0.4423
 2982TIP3    H130437   3.460   3.182   5.491  0.4995  1.2854 -0.0844
 2982TIP3    H230438   3.502   3.098   5.609 -0.4816  0.4008 -0.3550
 2983TIP3   OH230439   4.575   2.886  13.673  0.5318  0.2544 -0.1477
 2983TIP3    H130440   4.651   2.855  13.625 -0.1737  0.2495 -1.3083
 2983TIP3    H230441   4.605   2.897  13.763  1.5625 -0.9481 -0.3288
 2984TIP3   OH230442   4.564   0.475   1.645  0.5245  0.9489 -0.2691
 2984TIP3    H130443   4.501   0.409   1.677  1.7040  0.7098  1.7521
 2984TIP3    H230444   4.563   0.542   1.713  3.3018  0.3588  0.4474
 2985TIP3   OH230445   1.463   0.060   6.700  0.3154  0.1702 -0.0766
 2985TIP3    H130446   1.531  -0.001   6.727  0.4594 -0.7109 -2.2532
 2985TIP3    H230447   1.381   0.017   6.725  0.3912 -1.2403 -2.0305
 2986TIP3   OH230448   0.457   4.315   3.911 -0.6788 -0.1318  0.2178
 2986TIP3    H130449   0.398   4.328   3.837 -1.7774 -1.2962  0.8552
 2986TIP3    H230450   0.540   4.287   3.871 -1.0941 -0.2270 -0.5936
 2987TIP3   OH230451   3.420   6.480   4.778  0.1860  0.4027  0.1471
 2987TIP3    H130452   3.444   6.394   4.745 -1.6155 -0.0049 -0.1955
 2987TIP3    H230453   3.455   6.483   4.867 -2.3674 -1.9554  1.3530
 2988TIP3   OH230454   4.298   3.339   1.248  0.1037  0.9728 -0.4460
 2988TIP3    H130455   4.283   3.245   1.251 -2.0013  1.2414 -0.6676
 2988TIP3    H230456   4.357   3.352   1.174 -0.0004 -0.1323 -0.7406
 2989TIP3   OH230457   6.642   5.753   2.951 -0.3639  0.6555 -0.4324
 2989TIP3    H130458   6.693   5.689   3.002  1.0287  0.2181 -2.2484
 2989TIP3    H230459   6.652   5.835   2.998  1.3372  0.3847 -0.2612
 2990TIP3   OH230460   0.405   3.058   2.255  0.4888  0.1333 -0.2994
 2990TIP3    H130461   0.348   2.986   2.226 -1.7953  1.9642 -0.6303
 2990TIP3    H230462   0.477   3.058   2.192 -0.9101 -0.1618 -1.9683
 2991TIP3   OH230463   6.728   3.709   1.678  0.6541 -0.5496 -0.0716
 2991TIP3    H130464   6.771   3.687   1.761  1.0954 -3.8946 -1.0398
 2991TIP3    H230465   6.797   3.699   1.613  0.4146  2.4203 -0.9345
 2992TIP3   OH230466   2.798   4.281  11.360  0.5258  0.5994 -0.7726
 2992TIP3    H130467   2.786   4.241  11.274 -0.5104 -0.7961 -0.0178
 2992TIP3    H230468   2.728   4.346  11.367 -0.0190 -0.0041 -0.5857
 2993TIP3   OH230469   3.036   4.894   3.195 -0.4894 -0.6511 -0.8761
 2993TIP3    H130470   3.129   4.888   3.177 -0.3081  1.6260 -1.0619
 2993TIP3    H230471   2.999   4.931   3.114 -1.6601 -2.0334 -1.0081
 2994TIP3   OH230472   0.055   2.070  15.731  0.2307  0.0441 -0.1930
 2994TIP3    H130473   0.092   2.158  15.735  0.4757  0.0722 -2.2142
 2994TIP3    H230474   0.085   2.028  15.812  2.8329  0.7815 -0.6747
 2995TIP3   OH230475   6.818   5.189  13.175  0.5024 -0.0621  0.2563
 2995TIP3    H130476   6.822   5.100  13.211  1.0842 -0.1112  0.0883
 2995TIP3    H230477   6.793   5.244  13.248 -1.4468 -0.5630  0.0011
 2996TIP3   OH230478   1.867   0.108  11.120  0.1257 -0.5049 -0.2127
 2996TIP3    H130479   1.822   0.102  11.035 -0.4914  0.1942  0.0631
 2996TIP3    H230480   1.948   0.154  11.100  0.8333 -1.9197 -0.7430
 2997TIP3   OH230481   3.323   3.445  15.690 -0.6519  0.3186  0.0339
 2997TIP3    H130482   3.351   3.453  15.598  0.5806 -2.6219  0.0422
 2997TIP3    H230483   3.379   3.506  15.737  1.2205 -0.6485 -0.8105
 2998TIP3   OH230484   3.255   1.908  12.444  0.3604  0.1576 -0.1321
 2998TIP3    H130485   3.256   1.842  12.513  1.8435  1.1151  0.8182
 2998TIP3    H230486   3.283   1.861  12.365 -1.9873 -1.0929 -0.2981
 2999TIP3   OH230487   4.764   3.943   1.029 -0.2874 -0.0827 -0.0692
 2999TIP3    H130488   4.845   3.934   0.979  0.4515  3.7400  0.1184
 2999TIP3    H230489   4.694   3.944   0.963  0.0950 -0.6048 -0.4860
 3000TIP3   OH230490   0.515   0.937   1.673  0.9774  0.1255 -0.6961
 3000TIP3    H130491   0.496   0.844   1.668 -1.0203  0.4610 -0.3591
 3000TIP3    H230492   0.586   0.951   1.610 -0.4791 -1.2200 -2.7770
 3001TIP3   OH230493   6.372   6.195   4.064  0.3110  0.2045  0.0931
 3001TIP3    H130494   6.413   6.178   3.980 -0.9166 -1.3033 -0.2405
 3001TIP3    H230495   6.338   6.284   4.057 -0.0384 -0.0096 -1.1288
 3002TIP3   OH230496   3.430   2.221  16.061  0.3827  0.0225  0.7845
 3002TIP3    H130497   3.437   2.315  16.045  0.9975 -0.0376  0.7056
 3002TIP3    H230498   3.434   2.182  15.973  1.2268 -0.1420  0.8877
 3003TIP3   OH230499   6.367   4.361   2.702  0.1688  0.3621  0.3558
 3003TIP3    H130500   6.395   4.451   2.687 -0.2346  0.4407  0.0733
 3003TIP3    H230501   6.274   4.360   2.681 -0.1651  0.2063  1.7171
 3004TIP3   OH230502   2.041   4.697   3.338  0.1593  0.0706  0.0078
 3004TIP3    H130503   1.989   4.763   3.384 -1.8226 -2.0222  0.9671
 3004TIP3    H230504   2.104   4.668   3.404 -2.1294 -2.3199  1.3290
 3005TIP3   OH230505   1.265   6.111   0.255 -0.1228 -0.1214 -1.1269
 3005TIP3    H130506   1.246   6.196   0.295  1.6904  0.1557 -0.7771
 3005TIP3    H230507   1.271   6.129   0.162 -0.7302 -0.0729 -1.1628
 3006TIP3   OH230508   2.717   5.959  15.013  0.0780 -0.0425 -0.7637
 3006TIP3    H130509   2.622   5.956  15.007 -0.1809 -2.3125  2.3151
 3006TIP3    H230510   2.747   5.885  14.959  0.0114 -0.0278 -0.8204
 3007TIP3   OH230511   4.429   2.723   1.451 -0.4048  0.3726  0.6609
 3007TIP3    H130512   4.456   2.811   1.427 -0.8100  0.7164  1.4201
 3007TIP3    H230513   4.373   2.695   1.379 -1.1365  1.1596  0.9068
 3008TIP3   OH230514   2.943   6.262  14.180 -0.3196  0.4945  0.0171
 3008TIP3    H130515   2.976   6.345  14.213  0.2848 -0.0202  0.7450
 3008TIP3    H230516   2.889   6.285  14.104  1.8610  1.3494 -1.3452
 3009TIP3   OH230517   2.658   6.627   1.887  0.3467  0.0320 -0.4795
 3009TIP3    H130518   2.621   6.629   1.976  0.2546 -0.4099 -0.5078
 3009TIP3    H230519   2.620   6.704   1.844  0.5207  0.3445 -0.0860
 3010TIP3   OH230520   6.280   2.132  15.651  0.9652 -0.1272 -0.2003
 3010TIP3    H130521   6.370   2.104  15.639  0.5977 -0.7253 -1.8878
 3010TIP3    H230522   6.234   2.099  15.574 -0.6839  0.2282  0.5809
 3011TIP3   OH230523   6.809   0.229  13.832 -0.3376  0.2560  0.7135
 3011TIP3    H130524   6.765   0.234  13.748  2.3368 -0.5372 -0.8382
 3011TIP3    H230525   6.864   0.308  13.835 -0.4613  0.3249  1.7822
 3012TIP3   OH230526   1.941   6.412  12.696 -0.1565  0.7184  0.2153
 3012TIP3    H130527   1.969   6.339  12.640 -0.3707  1.0363 -0.3179
 3012TIP3    H230528   1.874   6.374  12.752 -1.8061  0.9534 -1.4808
 3013TIP3   OH230529   1.229   0.249   0.740 -0.4766  0.1147 -0.0135
 3013TIP3    H130530   1.196   0.250   0.650  0.0819 -0.9467 -0.2548
 3013TIP3    H230531   1.312   0.297   0.735 -0.7303  0.5629  0.0595
 3014TIP3   OH230532   5.980   6.793   5.397  0.2968 -0.0272 -0.1675
 3014TIP3    H130533   5.912   6.852   5.430 -0.2347 -0.7953  0.1531
 3014TIP3    H230534   6.033   6.772   5.474 -0.0491 -0.6531 -0.0941
 3015TIP3   OH230535   2.052   5.335   3.584  0.3061 -0.1957 -0.3550
 3015TIP3    H130536   2.091   5.265   3.637  0.5387 -0.9024 -1.4229
 3015TIP3    H230537   2.125   5.393   3.563  0.1029  0.4158  0.5768
 3016TIP3   OH230538   5.672   3.933   4.893  0.4079  0.5482  0.0773
 3016TIP3    H130539   5.580   3.959   4.886 -0.0676 -1.3885 -2.3142
 3016TIP3    H230540   5.685   3.914   4.986 -1.9775 -0.2579  0.3040
 3017TIP3   OH230541   4.153   2.275   4.338  0.7882  0.4108  0.2577
 3017TIP3    H130542   4.085   2.269   4.270  1.9692  0.1127 -0.9300
 3017TIP3    H230543   4.120   2.342   4.398 -0.7559 -0.0275 -0.0520
 3018TIP3   OH230544   2.725   5.101  17.263 -0.0162  0.0145 -0.2295
 3018TIP3    H130545   2.656   5.126  17.202  0.5369 -1.6898 -1.6530
 3018TIP3    H230546   2.678   5.069  17.341 -0.7769  0.5352 -0.4651
 3019TIP3   OH230547   2.797   0.285  11.354 -0.0537 -0.2011 -0.5102
 3019TIP3    H130548   2.855   0.326  11.419 -0.2452  0.7253 -0.9068
 3019TIP3    H230549   2.831   0.196  11.345  1.4950  0.4028 -0.9322
 3020TIP3   OH230550   5.635   4.086  16.681 -0.4525  0.5752  0.0263
 3020TIP3    H130551   5.624   4.147  16.754 -0.1028  1.1775 -0.4144
 3020TIP3    H230552   5.728   4.090  16.660 -0.2325 -0.8384  0.6050
 3021TIP3   OH230553   3.453   4.175  10.551 -0.5750  0.0691  0.0912
 3021TIP3    H130554   3.459   4.104  10.488  0.8794 -2.4360  2.8030
 3021TIP3    H230555   3.367   4.164  10.592 -0.1867 -0.4506  0.7948
 3022TIP3   OH230556   2.243   0.633  14.690 -0.2546  0.5928  0.0900
 3022TIP3    H130557   2.165   0.667  14.645 -1.9969 -2.0612  0.9110
 3022TIP3    H230558   2.293   0.591  14.620 -1.1434 -0.3658 -0.0020
 3023TIP3   OH230559   3.619   1.404  16.878 -0.0578  0.6369 -0.0816
 3023TIP3    H130560   3.535   1.358  16.870 -1.0520  2.4565 -0.5900
 3023TIP3    H230561   3.617   1.471  16.810  2.1403  0.2872 -0.5829
 3024TIP3   OH230562   4.140   1.417  16.970 -0.3981  0.4225  0.6018
 3024TIP3    H130563   4.174   1.399  17.057  1.0921  0.2333  0.0240
 3024TIP3    H230564   4.210   1.388  16.911 -1.4692  0.3163 -0.6610
 3025TIP3   OH230565   5.178   3.786  10.440 -0.0379 -0.0833 -0.1295
 3025TIP3    H130566   5.245   3.854  10.438 -0.7378  0.6022 -1.1121
 3025TIP3    H230567   5.204   3.724  10.371 -0.4564  0.2513 -0.6024
 3026TIP3   OH230568   3.505   5.909   3.932  0.6637 -0.1518  0.2344
 3026TIP3    H130569   3.578   5.919   3.994  0.7107  1.4443 -0.0441
 3026TIP3    H230570   3.544   5.924   3.846 -0.1578  1.8117  0.1615
 3027TIP3   OH230571   4.524   1.448  11.051 -0.2129 -0.6548 -0.1355
 3027TIP3    H130572   4.555   1.362  11.023 -0.0076 -0.1165 -1.7045
 3027TIP3    H230573   4.569   1.509  10.992  0.8843  0.6744  1.9582
 3028TIP3   OH230574   0.259   3.902  13.311  0.4535  0.2096  0.0808
 3028TIP3    H130575   0.176   3.860  13.330  0.5543 -0.3804 -0.7587
 3028TIP3    H230576   0.235   3.986  13.272  0.2472  0.0647 -0.1058
 3029TIP3   OH230577   0.624   4.458   0.834 -0.0095  0.2303  0.0217
 3029TIP3    H130578   0.542   4.492   0.799 -0.0174  0.3072  0.1134
 3029TIP3    H230579   0.600   4.374   0.873 -0.3157  0.8597  1.2482
 3030TIP3   OH230580   3.399   1.292  11.370 -0.5338  0.0526 -0.0125
 3030TIP3    H130581   3.360   1.347  11.302  0.2658  1.1461  0.3753
 3030TIP3    H230582   3.362   1.205  11.356  0.0608  0.1053 -2.2168
 3031TIP3   OH230583   1.876   0.853  13.191 -0.1617 -0.5963 -0.0398
 3031TIP3    H130584   1.895   0.770  13.146  0.5454 -0.9659  0.9014
 3031TIP3    H230585   1.798   0.833  13.244 -0.0515 -0.6348  0.1088
 3032TIP3   OH230586   0.939   5.119   3.902 -0.3144  0.5592 -0.0839
 3032TIP3    H130587   0.870   5.184   3.893 -1.1072 -0.3958 -1.1003
 3032TIP3    H230588   0.914   5.068   3.980 -0.0698  0.9985  0.2900
 3033TIP3   OH230589   1.719   6.124  17.273  0.7158  0.7850  0.0623
 3033TIP3    H130590   1.674   6.057  17.324  1.0478 -0.8273 -1.6478
 3033TIP3    H230591   1.806   6.129  17.313  1.2208 -0.9776 -0.6810
 3034TIP3   OH230592   6.595   4.024   2.515 -0.1473  0.9520 -0.1714
 3034TIP3    H130593   6.531   3.954   2.518  0.8219  0.0800  1.4462
 3034TIP3    H230594   6.559   4.087   2.452 -2.5101  0.4549  0.5936
 3035TIP3   OH230595   2.604   0.459   5.002  0.2846 -0.3309 -0.4593
 3035TIP3    H130596   2.694   0.491   4.995  0.4238 -0.8060 -0.9210
 3035TIP3    H230597   2.609   0.367   4.976 -0.1436 -0.6790  0.6589
 3036TIP3   OH230598   3.461   5.884  14.902 -0.2087 -0.3862 -0.3800
 3036TIP3    H130599   3.448   5.831  14.824 -1.5337 -0.8261  0.1108
 3036TIP3    H230600   3.479   5.972  14.869  0.5493 -0.8362 -1.1822
 3037TIP3   OH230601   3.092   3.901   6.152 -0.0960  0.1046 -0.9337
 3037TIP3    H130602   3.028   3.971   6.146  0.4870  0.5995 -1.4597
 3037TIP3    H230603   3.147   3.925   6.227 -1.4395 -1.1108  0.5143
 3038TIP3   OH230604   1.383   5.450   4.959  0.2916  0.8199 -0.5874
 3038TIP3    H130605   1.293   5.418   4.956  1.3507 -2.4532 -1.5645
 3038TIP3    H230606   1.414   5.429   5.047  0.9844 -1.0050 -1.2245
 3039TIP3   OH230607   2.106   4.548   0.821  0.5305  0.1315 -0.0206
 3039TIP3    H130608   2.074   4.593   0.900 -0.1109 -1.5934  0.7462
 3039TIP3    H230609   2.197   4.576   0.814  0.9046 -0.4323  1.9427
 3040TIP3   OH230610   6.284   5.268  11.580  0.0456  0.1443 -0.0444
 3040TIP3    H130611   6.319   5.333  11.640  0.1569  0.1329 -0.0949
 3040TIP3    H230612   6.360   5.214  11.557 -0.0948 -0.1585  0.1954
 3041TIP3   OH230613   0.690   2.003  12.910  0.3497 -0.2092 -0.6111
 3041TIP3    H130614   0.619   1.947  12.881 -0.7528  0.4284  0.7282
 3041TIP3    H230615   0.735   2.029  12.830 -0.4384 -1.2520 -1.4112
 3042TIP3   OH230616   0.846   5.608   2.345  1.1471 -0.3160 -0.4641
 3042TIP3    H130617   0.844   5.642   2.255  0.9875 -1.0567 -0.7433
 3042TIP3    H230618   0.755   5.584   2.363  1.3120 -0.8649 -0.3685
 3043TIP3   OH230619   3.566   4.214  16.581 -0.1181 -0.0956  0.2914
 3043TIP3    H130620   3.524   4.249  16.503 -0.8246 -0.1553  0.6401
 3043TIP3    H230621   3.591   4.291  16.632  1.3244 -0.0181 -0.4806
 3044TIP3   OH230622   6.513   6.818  12.494 -0.2398 -0.4347 -0.4363
 3044TIP3    H130623   6.521   6.778  12.407 -1.4618 -0.7961 -0.3982
 3044TIP3    H230624   6.502   6.744  12.554  1.7327 -0.2627  0.2009
 3045TIP3   OH230625   3.929   2.919  15.144  0.2719  0.6408  0.0822
 3045TIP3    H130626   3.854   2.917  15.204 -0.0045 -0.4635 -0.2813
 3045TIP3    H230627   3.902   2.864  15.071  0.3276  2.5397 -1.4209
 3046TIP3   OH230628   5.425   4.847  16.360 -0.6321  0.2320 -0.3614
 3046TIP3    H130629   5.346   4.901  16.346 -1.2926 -0.8647 -1.0931
 3046TIP3    H230630   5.433   4.797  16.279  1.2933  0.8686 -0.6168
 3047TIP3   OH230631   6.460   4.300  12.236  0.0621 -0.2420  0.2924
 3047TIP3    H130632   6.506   4.217  12.253  0.1658  0.0218  1.3639
 3047TIP3    H230633   6.412   4.284  12.155  0.3963 -1.2242  0.2700
 3048TIP3   OH230634   2.524   3.515  13.493 -0.3076 -0.1688 -0.7971
 3048TIP3    H130635   2.489   3.541  13.408 -1.9401  0.0391 -0.0949
 3048TIP3    H230636   2.521   3.419  13.492 -0.4378 -0.1633 -0.9322
 3049TIP3   OH230637   0.907   4.894   6.584 -0.0949 -0.1885  0.1197
 3049TIP3    H130638   0.895   4.799   6.586  0.1246 -0.2277 -0.2946
 3049TIP3    H230639   0.831   4.929   6.631  0.0222 -0.5828  0.6092
 3050TIP3   OH230640   6.634   6.399  12.596 -0.0400 -0.0591 -0.4012
 3050TIP3    H130641   6.677   6.373  12.515  0.0323 -1.6202  0.1125
 3050TIP3    H230642   6.540   6.385  12.579  0.0549 -1.5837  0.1533
 3051TIP3   OH230643   5.178   2.147  12.740 -0.0406 -0.0876 -0.5838
 3051TIP3    H130644   5.249   2.204  12.768 -0.1377 -0.2859  0.0822
 3051TIP3    H230645   5.155   2.178  12.653 -0.3248  1.1195 -0.0993
 3052TIP3   OH230646   5.249   5.867  16.947  0.1293 -0.2107  0.7341
 3052TIP3    H130647   5.258   5.961  16.931  1.7891  0.0856  2.8955
 3052TIP3    H230648   5.328   5.829  16.909 -1.2662 -1.0247 -1.5365
 3053TIP3   OH230649   3.327   6.321   1.872 -0.2271  0.1965 -0.4499
 3053TIP3    H130650   3.259   6.331   1.939 -0.6033  0.2972 -0.8409
 3053TIP3    H230651   3.401   6.373   1.904 -0.0783 -0.4802  0.3163
 3054TIP3   OH230652   2.271   1.301  15.221 -0.5425 -0.3220 -0.1692
 3054TIP3    H130653   2.252   1.293  15.315 -0.5884 -2.6019 -0.2964
 3054TIP3    H230654   2.341   1.237  15.206 -0.6316 -0.0852 -1.7085
 3055TIP3   OH230655   3.267   3.820  12.993 -0.2137 -0.3066 -0.2876
 3055TIP3    H130656   3.273   3.875  12.915 -0.1226  1.8600  1.1484
 3055TIP3    H230657   3.337   3.756  12.983  2.3259  2.2532 -0.3361
 3056TIP3   OH230658   2.267   0.878  12.113  0.8507  0.0205  0.1182
 3056TIP3    H130659   2.360   0.892  12.094  0.8789 -0.1551  0.1297
 3056TIP3    H230660   2.266   0.809  12.180  0.7931  1.0727  1.2443
 3057TIP3   OH230661   3.325   4.928  14.862  0.0927 -0.4122  0.5104
 3057TIP3    H130662   3.287   4.903  14.778  0.8859 -1.8175  0.5252
 3057TIP3    H230663   3.397   4.866  14.875  1.7172  1.4357  0.9741
 3058TIP3   OH230664   4.486   5.159  13.811  0.2501 -0.2919 -0.6051
 3058TIP3    H130665   4.521   5.222  13.873 -0.4850 -0.6650  0.2186
 3058TIP3    H230666   4.426   5.209  13.755  2.3845  0.4516 -2.3515
 3059TIP3   OH230667   2.671   5.525  13.347 -0.1479  0.3560 -0.2545
 3059TIP3    H130668   2.610   5.593  13.318 -0.5570 -0.4959 -1.4563
 3059TIP3    H230669   2.620   5.472  13.408 -0.1777  0.4397 -0.2053
 3060TIP3   OH230670   5.922   1.316  15.083  0.1365  0.4116 -0.0306
 3060TIP3    H130671   5.886   1.393  15.039 -0.1397  0.3339  0.0528
 3060TIP3    H230672   6.014   1.315  15.059  0.2658  1.0827  0.4117
 3061TIP3   OH230673   6.234   2.060  15.386 -0.5543  0.0959  0.3657
 3061TIP3    H130674   6.184   1.981  15.365  0.8520 -0.5159 -0.8713
 3061TIP3    H230675   6.195   2.129  15.332 -0.7187 -0.1288  0.1967
 3062TIP3   OH230676   4.423   1.879   3.098 -0.2182  0.1815 -0.0934
 3062TIP3    H130677   4.508   1.853   3.132  1.5312  1.3795 -3.1969
 3062TIP3    H230678   4.421   1.974   3.107 -1.9209  0.0682  1.2663
 3063TIP3   OH230679   2.372   6.248   4.041  0.3168 -0.3611 -0.0957
 3063TIP3    H130680   2.427   6.199   3.980  1.7294  1.6865 -0.5740
 3063TIP3    H230681   2.429   6.264   4.117 -0.6421 -0.8217  0.7394
 3064TIP3   OH230682   0.926   0.539   0.871  0.0869 -0.1967  0.1052
 3064TIP3    H130683   0.905   0.511   0.960  0.3521  1.1848  0.6283
 3064TIP3    H230684   1.021   0.548   0.871  0.3476 -2.3519 -1.0114
 3065TIP3   OH230685   6.788   3.732  13.632 -0.2779  0.6193  0.8669
 3065TIP3    H130686   6.753   3.644  13.629 -0.4470  0.6822  1.0098
 3065TIP3    H230687   6.805   3.749  13.724  2.3592 -0.2861  0.6308
 3066TIP3   OH230688   1.525   0.052   5.483 -0.1646 -0.4248 -0.4468
 3066TIP3    H130689   1.567   0.097   5.556  0.1115 -0.3239 -0.6612
 3066TIP3    H230690   1.587   0.062   5.410 -1.9837  2.6193 -1.7510
 3067TIP3   OH230691   1.538   3.513   1.390 -0.2508 -0.3383 -0.3276
 3067TIP3    H130692   1.545   3.596   1.438 -2.5559 -0.5116  0.4484
 3067TIP3    H230693   1.485   3.534   1.313 -1.0512 -1.1075 -0.0056
 3068TIP3   OH230694   0.047   0.097   3.352  0.0112  0.1616 -1.1315
 3068TIP3    H130695  -0.016   0.057   3.293 -0.5767  1.5146 -1.4501
 3068TIP3    H230696  -0.003   0.160   3.403  0.4350 -1.1712  1.0814
 3069TIP3   OH230697   4.689   0.886  12.030 -0.1617  0.0729  0.1191
 3069TIP3    H130698   4.688   0.847  11.942 -1.2415  2.3450 -0.9459
 3069TIP3    H230699   4.601   0.870  12.064  0.8396 -2.6713  1.7800
 3070TIP3   OH230700   1.476   6.714   2.268  0.2222 -0.4026  0.3618
 3070TIP3    H130701   1.527   6.764   2.204 -0.1616 -0.5170 -0.0360
 3070TIP3    H230702   1.509   6.625   2.259  0.5852 -0.3097  0.7472
 3071TIP3   OH230703   3.542   6.753   6.450 -0.2940  0.1997 -0.6824
 3071TIP3    H130704   3.496   6.817   6.504  1.0502  3.8768 -3.4755
 3071TIP3    H230705   3.607   6.714   6.508 -1.2224  1.2865  1.1717
 3072TIP3   OH230706   0.696   3.945   4.633  0.1186 -0.8112  0.7591
 3072TIP3    H130707   0.692   4.040   4.638  1.2264 -0.7130  0.1646
 3072TIP3    H230708   0.719   3.917   4.721  0.7410 -0.4504  0.7182
 3073TIP3   OH230709   5.691   1.552   0.910  0.1017 -0.2668  0.0919
 3073TIP3    H130710   5.597   1.560   0.929 -0.3993  2.4655 -2.6579
 3073TIP3    H230711   5.734   1.598   0.981 -0.7838 -0.0442  0.4947
 3074TIP3   OH230712   0.169   3.463  15.802  0.4059 -0.2340 -0.8398
 3074TIP3    H130713   0.143   3.474  15.711 -0.7679  0.2033 -0.4625
 3074TIP3    H230714   0.125   3.383  15.831 -2.2056  1.5176  0.3532
 3075TIP3   OH230715   3.632   4.842  13.113 -0.1026  0.1206  0.4220
 3075TIP3    H130716   3.590   4.774  13.166  0.5374  0.7770  1.8246
 3075TIP3    H230717   3.726   4.828  13.127  0.0359  1.3005  0.7416
 3076TIP3   OH230718   1.556   3.420   6.224  0.1660 -0.4556 -0.0139
 3076TIP3    H130719   1.476   3.367   6.221  0.4780 -0.9360 -2.7892
 3076TIP3    H230720   1.526   3.507   6.249 -1.5904 -0.2350 -2.4532
 3077TIP3   OH230721   4.618   3.993  13.184  0.2313  0.2265  0.1356
 3077TIP3    H130722   4.573   4.013  13.102  0.3328  2.3811  0.5535
 3077TIP3    H230723   4.650   4.077  13.215  1.3876 -0.7440  1.7137
 3078TIP3   OH230724   3.556   0.970   5.969 -0.0139  0.2591  0.4537
 3078TIP3    H130725   3.478   0.995   6.020 -0.3379 -0.7161  0.4572
 3078TIP3    H230726   3.580   1.050   5.922 -1.0906  0.5548  0.3701
 3079TIP3   OH230727   3.431   1.653   1.598  0.1407 -0.5960  0.4499
 3079TIP3    H130728   3.416   1.699   1.516  2.2238  0.9367  0.8670
 3079TIP3    H230729   3.441   1.561   1.572  2.1697  0.0344 -1.2449
 3080TIP3   OH230730   1.823   6.308  13.095 -0.0165  0.3778 -0.8169
 3080TIP3    H130731   1.862   6.381  13.143  0.2559 -0.4669  0.2812
 3080TIP3    H230732   1.737   6.295  13.136  0.4810 -0.7677 -0.1118
 3081TIP3   OH230733   5.550   6.409   1.550  0.4182  0.1501  0.3186
 3081TIP3    H130734   5.601   6.378   1.625 -1.8459 -0.2293  1.7843
 3081TIP3    H230735   5.564   6.504   1.550  1.7510 -0.0182  0.1588
 3082TIP3   OH230736   3.935   6.338   6.255  0.0262 -0.1258 -0.2532
 3082TIP3    H130737   3.930   6.263   6.314 -2.2066 -1.6478 -2.1838
 3082TIP3    H230738   3.968   6.301   6.173  0.7190  1.4298 -0.7138
 3083TIP3   OH230739   0.066   3.022  16.163 -0.4531 -0.7298  0.7871
 3083TIP3    H130740   0.141   3.055  16.214 -0.5821  0.2855  0.3392
 3083TIP3    H230741   0.099   3.015  16.074 -1.0084  0.1445  0.5040
 3084TIP3   OH230742   5.924   4.710  17.027  0.5181 -0.0454  0.2548
 3084TIP3    H130743   5.868   4.787  17.029  1.5670  0.7913 -1.0827
 3084TIP3    H230744   5.967   4.710  17.113 -0.1153  0.3637  0.5812
 3085TIP3   OH230745   6.548   0.743  17.217  0.0354 -0.5734  0.3652
 3085TIP3    H130746   6.515   0.698  17.295 -2.4637 -0.0484 -0.3040
 3085TIP3    H230747   6.470   0.766  17.167  1.5516 -1.9311 -2.9506
 3086TIP3   OH230748   0.504   0.921   0.175 -0.1659  0.3947 -0.4724
 3086TIP3    H130749   0.524   0.867   0.098 -0.1956 -0.0986 -0.1343
 3086TIP3    H230750   0.434   0.873   0.220  0.6852  0.0616  0.5140
 3087TIP3   OH230751   4.980   3.352  11.743  0.0976 -0.2965  0.0984
 3087TIP3    H130752   5.071   3.337  11.767  0.0578  2.0491  2.1895
 3087TIP3    H230753   4.985   3.411  11.667  0.3670  0.5561  0.7623
 3088TIP3   OH230754   4.320   0.832   2.584  0.8302  0.2790 -0.1714
 3088TIP3    H130755   4.362   0.916   2.564  2.2453  0.3429  2.6449
 3088TIP3    H230756   4.361   0.803   2.665 -0.6173 -2.5007 -0.3141
 3089TIP3   OH230757   1.769   0.723   4.917  0.3448 -0.2395  0.1117
 3089TIP3    H130758   1.751   0.813   4.887 -1.7254 -0.7767 -0.4316
 3089TIP3    H230759   1.824   0.686   4.849  2.5980  1.0561  1.1142
 3090TIP3   OH230760   4.028   0.574  15.590  0.0517  0.1663  0.3857
 3090TIP3    H130761   4.038   0.663  15.558 -0.2380 -0.0952 -0.4664
 3090TIP3    H230762   4.095   0.564  15.657  1.0890  0.5450 -0.5627
 3091TIP3   OH230763   5.724   0.899   3.589 -0.0070 -0.4797  0.5490
 3091TIP3    H130764   5.706   0.828   3.527 -1.0784  0.5670 -0.4136
 3091TIP3    H230765   5.692   0.978   3.544 -1.3147  0.2652  2.6362
 3092TIP3   OH230766   0.640   2.070  16.769  0.3049 -0.1950 -0.0711
 3092TIP3    H130767   0.671   1.989  16.809  0.9103 -0.9290 -1.9328
 3092TIP3    H230768   0.719   2.109  16.729 -0.4569 -0.1791 -1.6453
 3093TIP3   OH230769   4.459   6.405  11.890 -0.1769 -0.3394  0.0977
 3093TIP3    H130770   4.488   6.469  11.825 -0.7720  1.0126  1.1056
 3093TIP3    H230771   4.435   6.458  11.966 -2.4221 -1.6136  0.3512
 3094TIP3   OH230772   1.712   4.494   1.306  0.2292  0.2032 -0.1226
 3094TIP3    H130773   1.701   4.575   1.356  1.0381  1.4781 -1.9053
 3094TIP3    H230774   1.805   4.493   1.281 -0.5008  0.6597 -3.2052
 3095TIP3   OH230775   1.977   6.782  14.799  0.5211  0.2855  0.3956
 3095TIP3    H130776   2.029   6.806  14.722 -1.1869 -0.3621 -1.0262
 3095TIP3    H230777   2.040   6.738  14.857  1.8570  0.7812 -0.6074
 3096TIP3   OH230778   3.324   0.133   0.710  0.9172  0.3386  0.2679
 3096TIP3    H130779   3.364   0.056   0.670  0.7560  0.8472 -0.9117
 3096TIP3    H230780   3.230   0.114   0.710  0.7725  0.9566 -1.0157
 3097TIP3   OH230781   4.846   3.571   0.911 -0.0026  0.2623 -0.0158
 3097TIP3    H130782   4.798   3.522   0.844  1.1763 -1.3864  0.2801
 3097TIP3    H230783   4.937   3.543   0.900  0.4478  1.1750  1.2427
 3098TIP3   OH230784   6.031   6.518  15.681 -0.3558 -0.4727  0.1340
 3098TIP3    H130785   5.949   6.539  15.637  0.3179 -1.9515 -1.9545
 3098TIP3    H230786   6.062   6.438  15.638  3.0280  0.9272 -0.3515
 3099TIP3   OH230787   1.259   5.448   3.052 -0.2917  0.3880 -0.8558
 3099TIP3    H130788   1.354   5.437   3.061 -0.0202  1.5766 -2.0911
 3099TIP3    H230789   1.238   5.520   3.111 -0.7906 -1.1177  0.9313
 3100TIP3   OH230790   1.956   4.655   0.486 -0.0192 -0.3803  0.2834
 3100TIP3    H130791   1.915   4.581   0.531 -1.5727 -0.2962 -0.9374
 3100TIP3    H230792   1.931   4.732   0.537 -0.6696 -0.4234  0.0325
 3101TIP3   OH230793   4.011   2.815   2.470 -0.0926  0.2246  0.2540
 3101TIP3    H130794   4.058   2.732   2.458 -3.3218 -1.7911  0.2311
 3101TIP3    H230795   3.986   2.815   2.563 -3.4267 -0.9435 -0.5015
 3102TIP3   OH230796   0.788   2.725   5.156 -0.2860 -0.2342  0.0569
 3102TIP3    H130797   0.854   2.666   5.191  0.8236  0.5049 -0.7377
 3102TIP3    H230798   0.808   2.731   5.063 -1.4938 -0.0066 -0.2087
 3103TIP3   OH230799   5.446   0.175   3.146 -0.1234 -0.0325 -0.1978
 3103TIP3    H130800   5.411   0.260   3.120  0.8662  1.1397  2.0237
 3103TIP3    H230801   5.370   0.126   3.177 -0.4029  0.9835  0.7910
 3104TIP3   OH230802   6.598   3.486   3.562  0.0856 -0.2002 -0.0720
 3104TIP3    H130803   6.670   3.423   3.561 -0.1018 -0.4149  0.0020
 3104TIP3    H230804   6.641   3.572   3.561  0.3316 -0.3294 -0.5954
 3105TIP3   OH230805   3.119   2.855   4.152  0.2622  0.0866 -0.3313
 3105TIP3    H130806   3.066   2.908   4.211 -1.4019 -1.5204 -0.2990
 3105TIP3    H230807   3.071   2.856   4.069  0.3636 -1.0841 -0.4196
 3106TIP3   OH230808   2.816   1.029  12.044 -0.4317  0.7944  0.3501
 3106TIP3    H130809   2.896   1.074  12.070 -0.7937  1.2327  0.7179
 3106TIP3    H230810   2.846   0.956  11.990  0.2486  0.6551  0.8984
 3107TIP3   OH230811   6.512   1.974  16.730  0.0709  0.1369  0.0579
 3107TIP3    H130812   6.548   2.018  16.653 -0.2320  1.2178  0.5071
 3107TIP3    H230813   6.447   1.913  16.696 -0.2224  0.7674 -0.5247
 3108TIP3   OH230814   3.584   5.820  13.556 -0.6606 -0.6070  0.4116
 3108TIP3    H130815   3.527   5.891  13.583 -1.3533 -1.0605  0.1698
 3108TIP3    H230816   3.642   5.806  13.632  0.4258  1.1155 -0.0584
 3109TIP3   OH230817   4.035   2.762  13.369  0.2544 -0.1545 -0.3646
 3109TIP3    H130818   3.950   2.759  13.324  0.0517 -0.6072  0.0313
 3109TIP3    H230819   4.024   2.703  13.443  0.0681  1.7747  1.2126
 3110TIP3   OH230820   5.227   5.783   5.396 -0.0548 -0.0821 -0.1696
 3110TIP3    H130821   5.297   5.827   5.445  0.1753  0.3790 -0.9094
 3110TIP3    H230822   5.213   5.838   5.320 -0.6868 -0.5964 -0.4282
 3111TIP3   OH230823   6.470   2.804  14.910 -0.0661 -0.1672  0.3864
 3111TIP3    H130824   6.397   2.751  14.943 -0.9308  1.0541  0.5358
 3111TIP3    H230825   6.523   2.822  14.988 -1.2546  1.4047  0.8929
 3112TIP3   OH230826   0.235   5.589  11.288 -0.0894  0.3390  0.2250
 3112TIP3    H130827   0.196   5.518  11.340 -1.4221  0.8853  0.0258
 3112TIP3    H230828   0.233   5.556  11.198 -0.4055  0.4850  0.1752
 3113TIP3   OH230829   0.414   0.232   1.263 -0.0758  0.1380 -0.0656
 3113TIP3    H130830   0.418   0.306   1.202  0.5450  0.8757  0.8542
 3113TIP3    H230831   0.504   0.220   1.292 -0.3964 -0.0971  0.8482
 3114TIP3   OH230832   5.266   0.876   5.880  0.1294  0.9913 -0.0507
 3114TIP3    H130833   5.305   0.847   5.797 -1.6531 -0.2113 -0.5365
 3114TIP3    H230834   5.318   0.834   5.948 -1.4949 -2.3961 -0.7146
 3115TIP3   OH230835   3.901   2.740  12.432  0.1545 -0.3126 -0.4510
 3115TIP3    H130836   3.952   2.702  12.361 -1.3236 -3.4964  0.0383
 3115TIP3    H230837   3.864   2.665  12.479 -2.2365  1.7340  1.2405
 3116TIP3   OH230838   0.546   5.223  14.059 -0.3492  0.0998  0.4502
 3116TIP3    H130839   0.547   5.194  14.150 -2.0208  0.7617  0.7211
 3116TIP3    H230840   0.533   5.317  14.064 -3.1128 -0.1404 -0.4284
 3117TIP3   OH230841   1.646   6.663   0.716 -0.0636  0.4570  0.4970
 3117TIP3    H130842   1.738   6.689   0.719 -0.5955  2.4565  2.5944
 3117TIP3    H230843   1.600   6.740   0.683 -0.9371 -0.9060 -1.6439
 3118TIP3   OH230844   3.864   5.746   2.823 -0.0074  0.4358  0.6003
 3118TIP3    H130845   3.852   5.802   2.746  3.1550  0.2937 -0.1349
 3118TIP3    H230846   3.781   5.699   2.832 -0.8985  1.3513 -1.9691
 3119TIP3   OH230847   3.517   6.777   2.675  0.0270  0.0452  0.6070
 3119TIP3    H130848   3.531   6.838   2.748  1.5052  1.0908 -0.4982
 3119TIP3    H230849   3.602   6.772   2.631 -0.8100 -0.6076 -1.0125
 3120TIP3   OH230850   3.609   2.661   0.878 -0.7021 -0.0131 -0.1985
 3120TIP3    H130851   3.691   2.616   0.861 -1.8448 -2.3098 -0.0102
 3120TIP3    H230852   3.551   2.633   0.807 -1.4731  1.1932 -0.0740
 3121TIP3   OH230853   5.958   1.194  11.371 -0.6267  0.3746 -0.1522
 3121TIP3    H130854   5.866   1.179  11.348 -0.9793 -0.0253  1.4553
 3121TIP3    H230855   6.007   1.158  11.297 -1.7555  2.0395 -1.8375
 3122TIP3   OH230856   4.938   2.823  15.263 -0.5685  0.5182  0.1210
 3122TIP3    H130857   4.871   2.843  15.196  0.0839  0.5970 -0.5195
 3122TIP3    H230858   4.992   2.756  15.222  0.3803  1.2134  0.2236
 3123TIP3   OH230859   4.834   6.072  14.396 -0.4312  0.2752 -0.0061
 3123TIP3    H130860   4.852   6.115  14.313  2.3128 -3.6014 -1.6910
 3123TIP3    H230861   4.899   6.108  14.456 -0.5726  1.0520 -0.3057
 3124TIP3   OH230862   5.778   5.762  15.833  0.1512 -0.4078 -0.1660
 3124TIP3    H130863   5.862   5.756  15.788 -0.6503 -1.6924 -1.6250
 3124TIP3    H230864   5.741   5.674  15.826 -0.7116 -0.2428  1.7053
 3125TIP3   OH230865   1.988   5.597   4.503 -0.5114  0.4845  0.1291
 3125TIP3    H130866   1.935   5.551   4.437  0.6039  0.0753 -0.5011
 3125TIP3    H230867   1.987   5.688   4.474  1.9263 -0.0204 -1.8995
 3126TIP3   OH230868   4.707   6.685   2.614 -0.4174  0.0171  0.0504
 3126TIP3    H130869   4.728   6.593   2.629  0.1180  0.1159 -0.0725
 3126TIP3    H230870   4.627   6.700   2.664  0.0919 -0.2389  0.9575
 3127TIP3   OH230871   0.203   1.001  15.493 -0.4687 -0.7350  0.4204
 3127TIP3    H130872   0.295   1.018  15.515  0.3756 -0.4131 -2.7687
 3127TIP3    H230873   0.154   1.025  15.571  2.0708  0.0996  1.8713
 3128TIP3   OH230874   2.430   4.297   2.105  0.1833  0.5190 -0.0928
 3128TIP3    H130875   2.463   4.298   2.195 -1.6996  0.9228  0.6241
 3128TIP3    H230876   2.340   4.264   2.112 -0.3318  1.4567 -1.7159
 3129TIP3   OH230877   6.667   4.148   6.518 -0.5174  0.1441  0.1303
 3129TIP3    H130878   6.624   4.233   6.508 -1.4828 -0.5065 -1.7468
 3129TIP3    H230879   6.602   4.085   6.488  1.0774 -1.0444 -0.9604
 3130TIP3   OH230880   6.540   3.888   1.895 -0.3216  0.0390  0.2556
 3130TIP3    H130881   6.603   3.819   1.877  0.3410  0.7669 -0.2796
 3130TIP3    H230882   6.469   3.844   1.943 -0.1921 -1.1190 -0.5687
 3131TIP3   OH230883   5.992   1.019   4.092 -0.0165  0.0592  0.1242
 3131TIP3    H130884   6.052   0.964   4.043  0.6403  1.8276 -1.1417
 3131TIP3    H230885   6.048   1.080   4.140 -0.7486  0.1918  0.8429
 3132TIP3   OH230886   4.238   1.564   2.659 -0.3664 -0.8358  0.5021
 3132TIP3    H130887   4.227   1.547   2.753 -1.9994 -2.6494  0.0468
 3132TIP3    H230888   4.155   1.604   2.633 -0.1746 -0.9396 -0.2901
 3133TIP3   OH230889   0.751   1.417   0.931  0.2474  0.2162 -0.4186
 3133TIP3    H130890   0.720   1.401   1.021 -0.0867 -1.1813 -0.7511
 3133TIP3    H230891   0.794   1.502   0.935  0.2477  0.1740  1.0794
 3134TIP3   OH230892   3.540   1.917   0.242 -0.2358 -0.5754  0.2995
 3134TIP3    H130893   3.592   1.838   0.248 -0.9820 -1.1524 -0.6071
 3134TIP3    H230894   3.449   1.887   0.236 -0.7826  0.4098  2.3230
 3135TIP3   OH230895   4.286   4.463  11.359 -0.1443  0.3975  0.1894
 3135TIP3    H130896   4.202   4.417  11.350  1.1152 -2.2888  1.0370
 3135TIP3    H230897   4.342   4.423  11.292  0.6621  1.6993  0.0614
 3136TIP3   OH230898   2.693   4.973   3.408  0.0097 -0.6903 -0.3653
 3136TIP3    H130899   2.610   5.017   3.386 -0.3612 -0.4622  1.3986
 3136TIP3    H230900   2.678   4.935   3.494  2.2397  0.6429  0.6857
 3137TIP3   OH230901   4.305   5.538   6.362 -0.0849 -0.6448 -0.2585
 3137TIP3    H130902   4.395   5.534   6.397  0.4200 -2.4104 -1.6483
 3137TIP3    H230903   4.261   5.603   6.418  1.7861 -0.4084  1.0400
 3138TIP3   OH230904   4.772   1.043   1.629  0.7425  0.5699  0.2206
 3138TIP3    H130905   4.798   0.967   1.680 -0.0600 -0.8233 -1.3682
 3138TIP3    H230906   4.685   1.021   1.594  1.2089  1.4893 -1.6683
 3139TIP3   OH230907   0.254   0.263  14.408 -0.2116 -0.7046  0.1615
 3139TIP3    H130908   0.187   0.332  14.419  0.1398 -0.2082 -0.7417
 3139TIP3    H230909   0.318   0.282  14.477 -1.0810 -1.3067  1.1701
 3140TIP3   OH230910   4.769   2.175  15.198 -0.0044 -0.5264  0.3065
 3140TIP3    H130911   4.710   2.250  15.210  1.4471  0.4527  1.7480
 3140TIP3    H230912   4.711   2.102  15.179 -1.4398  1.0700 -1.8968
 3141TIP3   OH230913   2.543   0.146   4.154  0.0130 -0.6624 -0.4500
 3141TIP3    H130914   2.544   0.107   4.241  3.0758  0.1053 -0.0233
 3141TIP3    H230915   2.548   0.071   4.094 -0.9320 -1.1419  0.0422
 3142TIP3   OH230916   2.176   0.003   0.766 -0.0868  0.1428 -0.6060
 3142TIP3    H130917   2.232   0.005   0.844 -0.3170 -0.1296 -0.4340
 3142TIP3    H230918   2.188   0.089   0.726 -1.4898  1.0680  0.8203
 3143TIP3   OH230919   2.249   5.098   0.039  0.4080 -0.3643  0.1466
 3143TIP3    H130920   2.177   5.148   0.077 -0.4442  0.3026 -2.1455
 3143TIP3    H230921   2.220   5.080  -0.051  2.4894 -1.3677 -0.3769
 3144TIP3   OH230922   3.868   1.616   3.850 -0.1877  0.4223 -0.0683
 3144TIP3    H130923   3.935   1.556   3.881  0.0045  1.2889  1.2499
 3144TIP3    H230924   3.788   1.588   3.894 -0.6652 -0.4316 -1.4175
 3145TIP3   OH230925   4.431   0.815   0.192  0.2997  0.3922  0.4019
 3145TIP3    H130926   4.337   0.809   0.204  0.3210  1.1634  0.9890
 3145TIP3    H230927   4.464   0.850   0.275  0.9219  1.6384 -0.3492
 3146TIP3   OH230928   1.903   2.250   2.146 -0.0822  0.3617  0.2174
 3146TIP3    H130929   1.933   2.217   2.062  0.9166 -0.0404  0.7114
 3146TIP3    H230930   1.938   2.339   2.151  2.4481 -0.5905  1.4165
 3147TIP3   OH230931   5.138   6.077  16.457  0.2215 -0.2986 -0.1326
 3147TIP3    H130932   5.213   6.022  16.434 -1.0326 -1.1147 -2.5765
 3147TIP3    H230933   5.108   6.114  16.374 -1.3672  0.9817  0.9373
 3148TIP3   OH230934   2.959   5.844  17.096  0.8551 -0.3559  0.2278
 3148TIP3    H130935   2.873   5.831  17.055  0.9305 -3.2146  0.7739
 3148TIP3    H230936   3.011   5.889  17.029 -0.7940  0.6638 -0.4189
 3149TIP3   OH230937   3.570   1.738  14.691  0.0086 -0.5656 -0.7515
 3149TIP3    H130938   3.655   1.705  14.660 -1.2496 -3.0229 -1.8201
 3149TIP3    H230939   3.565   1.827  14.655  2.6737  0.2256  0.5401
 3150TIP3   OH230940   5.738   3.053  13.488 -0.5175  0.2638  0.4468
 3150TIP3    H130941   5.815   3.075  13.436 -2.3186  2.3966 -1.5622
 3150TIP3    H230942   5.718   2.962  13.466  0.7141  0.0604  0.1090
 3151TIP3   OH230943   6.265   2.432  12.341 -0.4814 -0.1590  0.6705
 3151TIP3    H130944   6.195   2.437  12.276  0.0719 -0.7319  0.0061
 3151TIP3    H230945   6.328   2.499  12.314  0.3342 -1.2062 -0.1328
 3152TIP3   OH230946   6.441   3.336  17.187  0.5767 -0.5130  0.2018
 3152TIP3    H130947   6.392   3.413  17.215 -0.5773 -1.0993 -0.1690
 3152TIP3    H230948   6.385   3.262  17.209  0.7388 -1.1341 -1.3525
 3153TIP3   OH230949   2.579   4.634   2.199  0.0945  0.2833  0.2753
 3153TIP3    H130950   2.559   4.557   2.252 -0.1103  1.4396  1.9868
 3153TIP3    H230951   2.674   4.642   2.203 -0.0376  1.6732  2.5596
 3154TIP3   OH230952   4.456   5.132   3.675  0.0016 -0.4236  0.2540
 3154TIP3    H130953   4.497   5.089   3.599  0.1151 -1.3495  0.8219
 3154TIP3    H230954   4.368   5.154   3.644 -0.6671 -2.6002  0.4247
 3155TIP3   OH230955   1.508   3.850   3.695 -0.4686  0.0878  0.1835
 3155TIP3    H130956   1.493   3.944   3.693  2.7952  0.7007 -0.3274
 3155TIP3    H230957   1.513   3.828   3.788 -1.5169  0.3180  0.3089
 3156TIP3   OH230958   5.035   4.742   3.197 -0.0113  0.1600  0.4967
 3156TIP3    H130959   4.941   4.725   3.190 -0.2156  1.6131 -0.8409
 3156TIP3    H230960   5.069   4.669   3.248 -1.5186 -1.5964 -0.8961
 3157TIP3   OH230961   3.290   3.076  17.082 -0.0081  0.1831 -0.8915
 3157TIP3    H130962   3.280   3.048  17.173 -0.2439  1.5815 -0.4649
 3157TIP3    H230963   3.201   3.078  17.047  0.0255  0.2022 -0.9773
 3158TIP3   OH230964   0.187   2.128   1.796 -0.0616  0.2135  0.1227
 3158TIP3    H130965   0.160   2.205   1.746 -1.1929 -1.1588 -1.4893
 3158TIP3    H230966   0.187   2.157   1.887 -0.5954  2.0685 -0.4284
 3159TIP3   OH230967   2.235   2.985  15.465  0.4076  0.5413 -0.6111
 3159TIP3    H130968   2.278   2.900  15.454  0.5192  0.5954 -0.5944
 3159TIP3    H230969   2.307   3.047  15.471  0.3709  0.4581  0.9502
 3160TIP3   OH230970   6.667   0.682   3.623  0.2748 -0.2099  0.1439
 3160TIP3    H130971   6.661   0.587   3.608  0.6169 -0.1126 -0.6650
 3160TIP3    H230972   6.759   0.703   3.607  0.1157  0.3219 -0.1062
 3161TIP3   OH230973   2.149   2.952   3.670  0.7088 -0.7698  0.2917
 3161TIP3    H130974   2.148   3.035   3.718  0.1514 -1.1616  0.9790
 3161TIP3    H230975   2.077   2.959   3.608  0.6135 -0.7662  0.4021
 3162TIP3   OH230976   2.118   0.722  11.879 -0.0940 -0.0107 -0.8021
 3162TIP3    H130977   2.188   0.762  11.932  0.7760 -1.1726 -1.0394
 3162TIP3    H230978   2.163   0.656  11.826 -1.1197  0.4056 -2.2387
 3163TIP3   OH230979   0.639   4.684   2.963  0.0643  0.3544  0.1210
 3163TIP3    H130980   0.684   4.608   2.925 -1.1696 -0.4041  0.0986
 3163TIP3    H230981   0.625   4.660   3.054  0.7378  1.0796  0.4181
 3164TIP3   OH230982   0.975   2.568   5.278  0.2798  0.4348  0.2279
 3164TIP3    H130983   1.035   2.510   5.232  0.5030  0.2453  0.7575
 3164TIP3    H230984   0.964   2.529   5.364 -0.1022  0.8121  0.3555
 3165TIP3   OH230985   4.637   1.377  15.913 -0.6335 -0.1505  0.3846
 3165TIP3    H130986   4.615   1.406  16.002 -1.4926 -0.4671  0.2941
 3165TIP3    H230987   4.669   1.288  15.925  0.3378  0.2030  0.4836
 3166TIP3   OH230988   6.366   2.870   5.383 -0.0990 -0.1852 -0.3473
 3166TIP3    H130989   6.360   2.792   5.328 -1.0007  1.5189 -2.8125
 3166TIP3    H230990   6.287   2.920   5.363 -0.1485  0.8517  2.0801
 3167TIP3   OH230991   6.494   5.652  11.664 -0.1031 -0.4806 -0.0318
 3167TIP3    H130992   6.440   5.644  11.586  0.2413 -0.0840 -0.3186
 3167TIP3    H230993   6.481   5.743  11.693  0.8296 -0.1996 -0.4331
 3168TIP3   OH230994   4.301   6.029  13.634  0.0532  0.2146  1.1282
 3168TIP3    H130995   4.261   6.030  13.547 -1.8890 -0.6155  1.9586
 3168TIP3    H230996   4.284   6.117  13.669  0.3737  0.3771  0.8835
 3169TIP3   OH230997   4.575   3.056   0.257 -0.4355 -0.0449 -0.7110
 3169TIP3    H130998   4.549   3.104   0.178  0.5247  0.3642 -0.7961
 3169TIP3    H230999   4.663   3.088   0.276 -1.1728  0.8890  1.3431
 3170TIP3   OH231000   5.425   2.487   2.676 -0.5848  0.7765 -0.0456
 3170TIP3    H131001   5.388   2.437   2.749  0.4861  1.3580  0.9310
 3170TIP3    H231002   5.350   2.506   2.620 -1.5012  0.6139  1.0793
 3171TIP3   OH231003   4.073   1.781   4.177 -0.1352 -0.5534  0.7590
 3171TIP3    H131004   4.152   1.828   4.152  0.4918 -1.9150  0.0552
 3171TIP3    H231005   4.030   1.760   4.094 -0.7765 -0.5766  1.0900
 3172TIP3   OH231006   3.069   2.603  12.571 -0.5543  0.1809  0.2431
 3172TIP3    H131007   3.057   2.686  12.617 -0.5381  0.5314 -0.3674
 3172TIP3    H231008   2.984   2.586  12.530 -0.5765 -0.1388  0.4216
 3173TIP3   OH231009   4.989   1.127   0.618  0.1110 -0.0668 -0.4483
 3173TIP3    H131010   5.051   1.188   0.657  1.8475 -0.4653 -2.3640
 3173TIP3    H231011   5.043   1.053   0.590 -1.2701 -0.5675 -1.9442
 3174TIP3   OH231012   3.942   3.559  15.142 -0.1405  0.2160  0.0639
 3174TIP3    H131013   4.025   3.549  15.097 -0.9881 -0.1487 -1.4834
 3174TIP3    H231014   3.933   3.478  15.194  0.1638 -0.0312 -0.2676
 3175TIP3   OH231015   3.894   0.804   0.297  0.4268  0.0626  0.2159
 3175TIP3    H131016   3.851   0.744   0.238  1.2957 -0.3992  0.0326
 3175TIP3    H231017   3.847   0.887   0.287 -0.2382 -0.3571 -0.1535
 3176TIP3   OH231018   2.893   5.675   1.245  0.3589 -0.2930  0.3562
 3176TIP3    H131019   2.810   5.628   1.243 -0.2317  0.6403  1.8505
 3176TIP3    H231020   2.906   5.698   1.337  1.6436  0.6920 -0.0433
 3177TIP3   OH231021   1.984   3.222  13.496  0.2381  0.4079 -0.2294
 3177TIP3    H131022   1.925   3.152  13.523 -0.4515 -0.4266 -3.4666
 3177TIP3    H231023   1.932   3.302  13.500  0.4958  0.5255  1.7571
 3178TIP3   OH231024   2.342   1.375  11.784 -0.1685  0.1447 -0.0389
 3178TIP3    H131025   2.330   1.286  11.753 -1.5929  0.5551 -0.7734
 3178TIP3    H231026   2.435   1.381  11.806  0.3954 -0.9323 -1.8708
 3179TIP3   OH231027   2.051   6.271   2.444 -0.1510 -0.0577  0.2924
 3179TIP3    H131028   2.059   6.355   2.489 -0.7046 -1.6052  3.5699
 3179TIP3    H231029   1.992   6.220   2.498  0.8663 -2.8960 -1.0802
 3180TIP3   OH231030   4.440   2.146  17.068  0.4890 -0.7455  0.8471
 3180TIP3    H131031   4.456   2.229  17.022 -1.1936 -0.1924  1.1785
 3180TIP3    H231032   4.527   2.109  17.081  1.9441  3.0699  4.6045
 3181TIP3   OH231033   5.710   1.687   6.458  0.3985  0.1294  0.6029
 3181TIP3    H131034   5.643   1.702   6.525  2.3049  0.2806  2.5880
 3181TIP3    H231035   5.752   1.772   6.446 -0.2789  0.2491 -1.2986
 3182TIP3   OH231036   1.431   1.884   2.324 -0.5124 -0.4363 -0.3420
 3182TIP3    H131037   1.455   1.826   2.253 -1.2454 -0.7112 -0.3812
 3182TIP3    H231038   1.395   1.826   2.391 -0.1663 -0.1439  0.1006
 3183TIP3   OH231039   5.034   0.673  12.776  0.5495  0.4717 -0.5150
 3183TIP3    H131040   5.081   0.734  12.832  0.8571 -0.8861  0.7890
 3183TIP3    H231041   5.083   0.672  12.694  1.3941  0.8762 -0.0277
 3184TIP3   OH231042   6.746   4.881  14.405  1.4447 -0.2301  0.4153
 3184TIP3    H131043   6.805   4.885  14.481  2.1461 -2.3362  0.0488
 3184TIP3    H231044   6.689   4.806  14.424 -0.5192  1.1788  0.3079
 3185TIP3   OH231045   2.582   6.351   5.234  0.0302 -0.0989  0.1815
 3185TIP3    H131046   2.521   6.277   5.240  0.6954 -0.6451  0.2984
 3185TIP3    H231047   2.664   6.317   5.268  0.8011  0.1907 -1.3023
 3186TIP3   OH231048   3.993   3.913   4.830  0.2433 -0.1790  0.1298
 3186TIP3    H131049   4.040   3.932   4.911 -1.6821 -0.4304  1.3889
 3186TIP3    H231050   3.905   3.949   4.844  0.2977  1.2776 -2.5390
 3187TIP3   OH231051   6.693   6.011  16.405  0.3658 -0.0912 -0.3653
 3187TIP3    H131052   6.747   5.947  16.358 -0.5828 -0.6107 -0.7706
 3187TIP3    H231053   6.610   6.013  16.357  0.2716  1.2440 -0.1913
 3188TIP3   OH231054   2.936   2.890  13.073  0.0715 -0.4389 -0.8325
 3188TIP3    H131055   2.854   2.842  13.062  0.0812 -0.3130 -1.4810
 3188TIP3    H231056   2.926   2.968  13.018 -0.1590  0.5905  0.5938
 3189TIP3   OH231057   3.960   1.431   5.748  0.0302 -0.2791  0.3471
 3189TIP3    H131058   3.942   1.415   5.655  3.8282  0.8346 -0.7467
 3189TIP3    H231059   3.966   1.343   5.786 -2.7595 -0.7480 -0.0532
 3190TIP3   OH231060   3.637   0.658  12.613 -0.6669 -0.3022 -0.3146
 3190TIP3    H131061   3.696   0.723  12.576 -1.8189  1.8673  1.4089
 3190TIP3    H231062   3.680   0.629  12.693 -0.9673 -0.3325 -0.1631
 3191TIP3   OH231063   2.608   2.775  12.607  0.1362 -0.1057  0.0166
 3191TIP3    H131064   2.646   2.689  12.586  0.5222  0.3605 -1.3049
 3191TIP3    H231065   2.514   2.763  12.598  0.1758 -0.4447  0.0388
 3192TIP3   OH231066   0.626   5.252  12.960 -0.9268 -0.0791 -0.5438
 3192TIP3    H131067   0.654   5.210  13.042 -0.1008  1.0591 -0.2276
 3192TIP3    H231068   0.577   5.183  12.914  0.0199 -1.2566  0.1528
 3193TIP3   OH231069   2.264   2.210  15.451  0.1911  0.1451  0.2057
 3193TIP3    H131070   2.200   2.156  15.404 -0.0190 -0.7458  1.4597
 3193TIP3    H231071   2.279   2.284  15.393 -1.8489  0.2917 -0.2202
 3194TIP3   OH231072   1.304   0.991   0.204 -0.0808  0.0180 -0.5316
 3194TIP3    H131073   1.379   1.044   0.179 -0.3627  0.6140 -0.1199
 3194TIP3    H231074   1.232   1.023   0.149 -0.1118 -0.3345 -0.6985
 3195TIP3   OH231075   0.156   2.459   4.413  0.1577 -0.5741  0.6552
 3195TIP3    H131076   0.210   2.465   4.334 -1.8381 -3.4321 -1.1360
 3195TIP3    H231077   0.141   2.550   4.438 -0.8292  0.6782 -3.6187
 3196TIP3   OH231078   1.187   1.925  16.226 -0.1706 -0.3616  0.2919
 3196TIP3    H131079   1.181   1.909  16.321 -2.8712  0.3162  0.3294
 3196TIP3    H231080   1.199   2.020  16.219  1.8531 -0.6050 -0.0772
 3197TIP3   OH231081   4.417   0.283   2.588 -0.0745  0.2467  0.0810
 3197TIP3    H131082   4.449   0.284   2.678  0.7234  2.1017 -0.1650
 3197TIP3    H231083   4.420   0.191   2.562 -1.1387 -0.4575  2.1928
 3198TIP3   OH231084   4.295   0.534  15.700  0.4240 -0.2533  0.6303
 3198TIP3    H131085   4.286   0.570  15.789  1.1386  0.4698  0.4277
 3198TIP3    H231086   4.322   0.444  15.713  2.4690  0.3837  1.1754
 3199TIP3   OH231087   4.733   6.194   3.286 -0.5049 -0.0518  0.0611
 3199TIP3    H131088   4.701   6.109   3.316 -0.3069 -0.3348 -0.5011
 3199TIP3    H231089   4.777   6.232   3.362  0.6105 -1.0630 -0.0500
 3200TIP3   OH231090   6.719   0.231   2.190  0.5965  0.6076  0.4252
 3200TIP3    H131091   6.779   0.221   2.116 -0.6364  0.8940 -0.6299
 3200TIP3    H231092   6.632   0.230   2.151 -0.0310  3.0018  1.6190
 3201TIP3   OH231093   3.558   3.949   1.937 -0.0717 -0.0376 -0.0164
 3201TIP3    H131094   3.502   3.960   2.014  3.0729  1.2184  2.3062
 3201TIP3    H231095   3.630   3.894   1.967  1.4140  0.7098 -1.9803
 3202TIP3   OH231096   4.401   4.405  10.838  0.9308  0.2166 -0.6220
 3202TIP3    H131097   4.398   4.501  10.840 -0.7396  0.1828  0.2676
 3202TIP3    H231098   4.398   4.383  10.745 -1.8775  1.0551 -0.8455
 3203TIP3   OH231099   2.570   0.431   4.019  0.1631 -0.7049  0.5399
 3203TIP3    H131100   2.551   0.353   4.071  1.3204 -0.8076  0.8332
 3203TIP3    H231101   2.630   0.400   3.951 -0.3494 -0.3137 -0.1045
 3204TIP3   OH231102   1.801   5.175   0.774  0.4743 -0.1778  0.2662
 3204TIP3    H131103   1.830   5.162   0.864 -1.2108  1.5003  1.1100
 3204TIP3    H231104   1.779   5.268   0.768 -0.2314 -0.4128 -1.6539
 3205TIP3   OH231105   0.459   0.374  13.248 -0.2086 -0.3651 -0.4027
 3205TIP3    H131106   0.433   0.406  13.334  0.7824  0.8903 -0.5444
 3205TIP3    H231107   0.443   0.447  13.189  2.0157 -0.0945 -0.7560
 3206TIP3   OH231108   0.543   0.575  17.093  0.2891 -0.6806 -0.4876
 3206TIP3    H131109   0.488   0.498  17.108 -0.8487  0.2471  0.3105
 3206TIP3    H231110   0.599   0.551  17.019 -0.9173 -1.8098 -1.0690
 3207TIP3   OH231111   1.556   5.366   2.950 -0.6337  0.2142 -0.3098
 3207TIP3    H131112   1.559   5.457   2.978  0.6408  0.1257 -0.0752
 3207TIP3    H231113   1.550   5.370   2.854 -3.2182  0.5143 -0.2029
 3208TIP3   OH231114   2.466   5.081  16.575  0.4202 -0.0279  0.7766
 3208TIP3    H131115   2.556   5.103  16.601  0.3395  1.0630  0.1854
 3208TIP3    H231116   2.439   5.154  16.520  0.1404 -1.6641 -1.3596
 3209TIP3   OH231117   3.950   4.800   0.398 -0.8005 -0.0016  0.0756
 3209TIP3    H131118   3.925   4.754   0.318 -4.3312  0.3872  0.7787
 3209TIP3    H231119   3.887   4.871   0.405  0.4696  1.0085  2.3551
 3210TIP3   OH231120   0.173   3.124  14.342  0.2906 -1.3203  0.0234
 3210TIP3    H131121   0.149   3.051  14.285  0.0663 -1.2156 -0.0159
 3210TIP3    H231122   0.144   3.097  14.429 -0.9076 -0.7539 -0.1924
 3211TIP3   OH231123   1.050   3.138  13.086  0.3957  0.3707  0.0155
 3211TIP3    H131124   1.062   3.190  13.006 -2.7212  1.3820  0.0780
 3211TIP3    H231125   1.069   3.200  13.157  1.6314 -0.0826  0.0995
 3212TIP3   OH231126   3.406   6.567  12.957 -0.6088 -0.1264  0.9086
 3212TIP3    H131127   3.430   6.549  12.866  0.1567  1.5660  0.7414
 3212TIP3    H231128   3.326   6.618  12.951 -0.1874  0.5721  1.1503
 3213TIP3   OH231129   0.544   2.497  15.951  0.7994  0.4996 -0.0433
 3213TIP3    H131130   0.507   2.520  15.865  1.2657  0.0624 -0.3672
 3213TIP3    H231131   0.632   2.465  15.931  0.4735 -0.7807  0.4719
 3214TIP3   OH231132   5.986   5.304  15.683  0.2207  0.2756  0.5329
 3214TIP3    H131133   5.985   5.219  15.727  0.7155  0.8296  1.6519
 3214TIP3    H231134   6.054   5.354  15.728 -1.5814  2.0763  1.4707
 3215TIP3   OH231135   3.916   5.712  16.330 -0.1537  0.0186  0.2251
 3215TIP3    H131136   3.903   5.632  16.382 -1.0773  0.4201  0.6227
 3215TIP3    H231137   3.860   5.777  16.372 -1.0783  0.3115 -1.3865
 3216TIP3   OH231138   5.506   2.225  17.143 -0.3508 -0.4889 -0.2289
 3216TIP3    H131139   5.491   2.146  17.196 -1.6318 -1.8370 -2.4497
 3216TIP3    H231140   5.568   2.276  17.194 -0.8193 -2.1058  2.1292
 3217TIP3   OH231141   1.544   5.312   4.767 -0.7993  0.3289 -0.1395
 3217TIP3    H131142   1.546   5.345   4.677  0.8085  2.8505  0.7138
 3217TIP3    H231143   1.458   5.338   4.800 -1.0287  0.2392 -0.6627
 3218TIP3   OH231144   2.646   4.937  15.263  0.9021 -0.1786 -0.2282
 3218TIP3    H131145   2.617   4.986  15.186  0.7214  1.2356  0.6954
 3218TIP3    H231146   2.566   4.899  15.299  0.6672  0.8543  0.3807
 3219TIP3   OH231147   0.973   0.807   4.859  0.2952 -0.1034  0.8146
 3219TIP3    H131148   1.008   0.896   4.866  0.3488  0.0604 -0.9746
 3219TIP3    H231149   1.014   0.759   4.931  1.4744  0.9443  0.8735
 3220TIP3   OH231150   2.120   5.785   4.277  0.0983 -0.2077 -0.6858
 3220TIP3    H131151   2.094   5.859   4.222 -0.0572  0.3883  0.1764
 3220TIP3    H231152   2.038   5.738   4.293 -0.2498  0.8036  0.7471
 3221TIP3   OH231153   4.015   4.201   4.693 -0.4675  0.4211 -0.1063
 3221TIP3    H131154   3.932   4.154   4.693 -0.2483  0.0104  0.6674
 3221TIP3    H231155   4.027   4.230   4.783 -0.5706  1.9477 -0.5514
 3222TIP3   OH231156   5.084   6.200   5.309 -0.0748  0.2884 -0.6053
 3222TIP3    H131157   5.038   6.265   5.256 -1.4012 -0.2889 -0.1997
 3222TIP3    H231158   5.016   6.162   5.365  0.9739 -0.3197  0.3030
 3223TIP3   OH231159   1.949   1.752   3.352 -0.7294  0.7228 -0.0871
 3223TIP3    H131160   1.995   1.669   3.343 -2.1266 -0.1782  0.6484
 3223TIP3    H231161   1.978   1.786   3.437 -0.8449  0.5068  0.0433
 3224TIP3   OH231162   5.049   2.888   0.707  0.5252  0.2570  0.5616
 3224TIP3    H131163   5.130   2.849   0.673  0.7456 -0.3542  1.7477
 3224TIP3    H231164   5.034   2.843   0.790 -1.1947  0.1713  0.2258
 3225TIP3   OH231165   6.434   4.068  13.652  0.0088 -0.5067 -0.2775
 3225TIP3    H131166   6.406   4.034  13.737 -2.0177  1.0323 -0.2510
 3225TIP3    H231167   6.528   4.082  13.661 -0.2959  0.3921  2.0086
 3226TIP3   OH231168   4.597   3.992  16.504  0.0240 -0.0177  0.0907
 3226TIP3    H131169   4.643   4.025  16.427 -0.5216 -1.3762 -0.8522
 3226TIP3    H231170   4.594   3.897  16.491  0.6290 -0.3684  2.1968
 3227TIP3   OH231171   1.769   2.365  11.948 -0.2769 -0.1297 -0.1318
 3227TIP3    H131172   1.768   2.417  11.868 -3.6435 -0.2904 -0.3020
 3227TIP3    H231173   1.833   2.296  11.931 -0.8971 -0.1589 -2.6866
 3228TIP3   OH231174   4.986   2.515  14.063  0.2818 -0.2229 -0.0744
 3228TIP3    H131175   4.909   2.562  14.029 -0.0985  0.8263  2.0543
 3228TIP3    H231176   5.061   2.562  14.025 -0.1140  1.1068  0.7067
 3229TIP3   OH231177   1.313   1.520  15.841  0.5068  0.4202 -0.1585
 3229TIP3    H131178   1.238   1.578  15.831  1.2276  1.0962 -2.3397
 3229TIP3    H231179   1.275   1.433  15.850 -0.5679  1.0532  1.9159
 3230TIP3   OH231180   1.376   6.291  13.950  0.2465 -0.1023  0.0331
 3230TIP3    H131181   1.373   6.371  13.898 -0.4195 -0.0784  0.1080
 3230TIP3    H231182   1.351   6.221  13.889  1.8189 -0.4122 -0.3097
 3231TIP3   OH231183   5.040   5.724  10.934  0.1233 -0.1267 -0.2163
 3231TIP3    H131184   5.081   5.684  10.856 -1.0364 -0.6162 -0.5888
 3231TIP3    H231185   4.975   5.784  10.898 -0.6194 -0.5705  0.3794
 3232TIP3   OH231186   2.345   2.141   4.962 -0.5615  0.2411 -0.2475
 3232TIP3    H131187   2.271   2.081   4.962 -1.7815  1.6229  1.8423
 3232TIP3    H231188   2.388   2.126   5.046  0.0629  1.1829 -0.3866
 3233TIP3   OH231189   4.089   2.891  13.821 -0.4095  0.3830  0.0511
 3233TIP3    H131190   4.054   2.974  13.788  0.7488  0.7170 -0.3631
 3233TIP3    H231191   4.174   2.882  13.778  0.0845 -0.3382  1.1520
 3234TIP3   OH231192   6.054   3.592  11.371 -0.2116 -0.0362 -0.4955
 3234TIP3    H131193   6.111   3.617  11.298  0.0396  0.0152 -0.2822
 3234TIP3    H231194   6.061   3.665  11.432 -0.5118 -0.0286 -0.4726
 3235TIP3   OH231195   2.026   2.788   1.417  0.2017 -0.0940 -0.5817
 3235TIP3    H131196   1.991   2.757   1.334  0.1043 -2.0365  0.1398
 3235TIP3    H231197   2.016   2.714   1.477  3.9277 -0.2361  0.1260
 3236TIP3   OH231198   4.741   1.738   6.193  0.2119  0.7577  0.2940
 3236TIP3    H131199   4.818   1.751   6.250  0.3652  1.4759 -0.0600
 3236TIP3    H231200   4.674   1.795   6.231  0.1205  0.7690  0.1136
 3237TIP3   OH231201   3.805   4.303  14.684 -0.5547 -0.4715  0.1267
 3237TIP3    H131202   3.783   4.359  14.610  1.0435 -0.4704 -0.3991
 3237TIP3    H231203   3.814   4.215  14.647  2.0082 -0.1909 -0.1028
 3238TIP3   OH231204   4.833   6.413   2.727 -0.4412 -0.1932  0.4387
 3238TIP3    H131205   4.781   6.333   2.740  1.6484 -1.8649 -0.7389
 3238TIP3    H231206   4.899   6.387   2.663  1.7979  1.8065  1.8093
 3239TIP3   OH231207   5.617   0.184  11.892  0.0971  0.4103 -0.6916
 3239TIP3    H131208   5.686   0.247  11.912  0.5074  0.4406 -2.0797
 3239TIP3    H231209   5.538   0.238  11.881  0.6616  0.8866 -2.9794
 3240TIP3   OH231210   6.130   5.071   1.815  0.1773  0.0723 -0.1971
 3240TIP3    H131211   6.114   5.121   1.895 -1.3536 -1.4259  0.4993
 3240TIP3    H231212   6.166   4.988   1.845 -1.5349 -0.9888 -0.9138
 3241TIP3   OH231213   1.932   1.313   1.836  0.2459  0.0162  0.3754
 3241TIP3    H131214   2.025   1.320   1.856  0.5108  2.3526 -1.2210
 3241TIP3    H231215   1.894   1.395   1.866 -0.8267  0.1158 -1.1210
 3242TIP3   OH231216   5.027   0.312   5.714 -0.2972  0.4834  0.6367
 3242TIP3    H131217   5.003   0.221   5.733 -0.9818  0.4745 -0.1959
 3242TIP3    H231218   4.946   0.351   5.680  0.0175  1.3825  0.8962
 3243TIP3   OH231219   4.480   4.030  11.404  0.1478 -0.2495  0.5090
 3243TIP3    H131220   4.542   4.003  11.471  1.0333 -0.6444 -0.4455
 3243TIP3    H231221   4.532   4.081  11.342 -0.6678  0.1796  0.1551
 3244TIP3   OH231222   4.700   0.978   6.185  0.0360  0.1770  0.5066
 3244TIP3    H131223   4.662   0.968   6.272  1.7817 -2.4252  1.0977
 3244TIP3    H231224   4.787   0.938   6.192  0.5501  0.5956 -2.2384
 3245TIP3   OH231225   1.686   2.034   4.986 -0.6987  0.0433 -0.2083
 3245TIP3    H131226   1.651   2.112   4.944 -1.0235  0.5040  0.8761
 3245TIP3    H231227   1.612   1.997   5.035 -0.7727 -1.4228 -1.3483
 3246TIP3   OH231228   4.653   2.669  16.802  0.9836  0.3148 -0.1430
 3246TIP3    H131229   4.631   2.615  16.726  2.3817  1.1070 -1.1582
 3246TIP3    H231230   4.706   2.612  16.856 -0.5329 -0.4600  0.5992
 3247TIP3   OH231231   6.154   5.635   2.506  0.5946 -0.5365  0.0643
 3247TIP3    H131232   6.215   5.583   2.559 -0.0654  1.0103  2.5285
 3247TIP3    H231233   6.084   5.575   2.483 -0.6750 -0.7328  3.7039
 3248TIP3   OH231234   1.162   5.427   2.792 -0.1666  0.4173  0.6417
 3248TIP3    H131235   1.109   5.347   2.792  0.1219  0.2199  0.2326
 3248TIP3    H231236   1.206   5.427   2.876  2.8265 -1.8852 -0.7528
 3249TIP3   OH231237   4.027   3.501  14.869 -0.2862 -0.3444  0.0100
 3249TIP3    H131238   3.946   3.451  14.877  0.1148 -1.1407 -0.8669
 3249TIP3    H231239   4.084   3.465  14.936 -0.9306  0.8084  1.2317
 3250TIP3   OH231240   6.557   6.488   4.047 -0.2619  0.2901  0.0738
 3250TIP3    H131241   6.612   6.412   4.063  0.8050  0.7638 -1.2169
 3250TIP3    H231242   6.560   6.501   3.953 -2.9780  0.0649 -0.1288
 3251TIP3   OH231243   4.265   0.871   4.281  0.5821 -0.5251 -0.1285
 3251TIP3    H131244   4.224   0.950   4.245  1.6690 -0.0408 -0.3352
 3251TIP3    H231245   4.307   0.900   4.362 -1.3131 -1.4768  1.2978
 3252TIP3   OH231246   5.795   3.339  11.213 -0.4534 -0.0925 -0.2998
 3252TIP3    H131247   5.853   3.291  11.271 -0.5876 -0.6706 -0.6437
 3252TIP3    H231248   5.853   3.375  11.145 -0.2097  1.0728  0.4899
 3253TIP3   OH231249   1.979   6.354  10.725  0.4353 -0.2566  0.2738
 3253TIP3    H131250   1.982   6.449  10.740 -0.0468 -0.3987  1.3606
 3253TIP3    H231251   1.900   6.326  10.771  0.1282 -1.0741 -0.7340
 3254TIP3   OH231252   6.464   0.040   5.243 -0.0165 -0.3648  0.3281
 3254TIP3    H131253   6.387   0.063   5.295  0.4087 -1.2480  1.4093
 3254TIP3    H231254   6.456   0.092   5.163 -0.3875  1.5279  1.5272
 3255TIP3   OH231255   4.822   6.195  11.220 -0.7402 -0.6353  0.2556
 3255TIP3    H131256   4.778   6.163  11.299 -0.8849 -0.4013  0.2714
 3255TIP3    H231257   4.752   6.201  11.155 -1.1470  1.4965  0.7835
 3256TIP3   OH231258   3.670   1.515   1.898 -0.2330 -0.2815 -0.4989
 3256TIP3    H131259   3.683   1.420   1.892  0.1167 -0.2567 -0.2077
 3256TIP3    H231260   3.615   1.527   1.975 -0.6786 -0.2791 -0.8167
 3257TIP3   OH231261   0.626   3.845  11.587  0.2378 -0.5230 -0.0187
 3257TIP3    H131262   0.691   3.854  11.658  0.8862 -1.5346 -0.4578
 3257TIP3    H231263   0.546   3.883  11.623  1.1586  1.1403  0.3923
 3258TIP3   OH231264   1.285   0.953  13.336  0.3896 -0.4295  0.4036
 3258TIP3    H131265   1.256   0.927  13.249 -0.1073 -0.6163  0.6222
 3258TIP3    H231266   1.235   1.032  13.356 -0.9402 -1.4560  1.2988
 3259TIP3   OH231267   0.333   4.484  11.947  0.0510 -0.6360  0.5365
 3259TIP3    H131268   0.371   4.400  11.922  0.8165 -0.7284  1.9289
 3259TIP3    H231269   0.244   4.482  11.910  0.0006 -2.1204  0.6846
 3260TIP3   OH231270   1.304   6.215   4.913  0.2311  0.6124  0.3091
 3260TIP3    H131271   1.297   6.240   4.821  0.0941  0.4550  0.2771
 3260TIP3    H231272   1.267   6.289   4.961  0.8526  0.9587  0.2677
 3261TIP3   OH231273   5.983   6.716  12.472 -0.2833  0.5379  0.3844
 3261TIP3    H131274   6.009   6.752  12.557 -1.1308 -1.0709  1.3835
 3261TIP3    H231275   6.061   6.723  12.418  1.0255 -0.5121  2.0476
 3262TIP3   OH231276   1.777   4.577   1.002 -0.9516  0.0553  0.2511
 3262TIP3    H131277   1.706   4.513   1.007  0.0887 -1.0695  1.9750
 3262TIP3    H231278   1.847   4.538   1.054  0.4465  1.7385 -0.2792
 3263TIP3   OH231279   0.139   6.307  13.396 -0.4070  0.3017 -0.1223
 3263TIP3    H131280   0.087   6.236  13.434 -0.0810 -0.0733 -0.3597
 3263TIP3    H231281   0.076   6.375  13.374 -0.6680  0.2806  0.5429
 3264TIP3   OH231282   2.596   0.708   1.149  0.0130 -0.7781 -0.5069
 3264TIP3    H131283   2.686   0.678   1.162  0.0106 -0.9650 -0.8954
 3264TIP3    H231284   2.586   0.712   1.054 -0.7506 -1.8670 -0.4877
 3265TIP3   OH231285   2.700   5.999  15.501 -0.5271 -0.1038 -0.0933
 3265TIP3    H131286   2.744   6.083  15.496 -1.0977  0.3370  1.6784
 3265TIP3    H231287   2.607   6.019  15.493 -0.6415 -0.6169 -0.1097
 3266TIP3   OH231288   1.675   0.760   0.168  0.0023 -0.5039  0.0332
 3266TIP3    H131289   1.750   0.795   0.121 -0.6418  1.7463  0.5610
 3266TIP3    H231290   1.660   0.674   0.128  1.2342  0.0874 -1.8631
 3267TIP3   OH231291   0.683   2.914   4.801 -0.1708 -0.3968 -0.3818
 3267TIP3    H131292   0.661   2.957   4.719  1.1384  0.6319 -0.2163
 3267TIP3    H231293   0.618   2.844   4.809 -0.5320 -0.3061 -2.1150
 3268TIP3   OH231294   5.794   2.401   2.980  0.0785  0.3553 -0.1970
 3268TIP3    H131295   5.762   2.386   2.891  1.9014 -1.6945 -0.5934
 3268TIP3    H231296   5.807   2.313   3.016  1.4555  1.1153  1.2998
 3269TIP3   OH231297   0.126   3.999  14.113  0.1380 -0.1125  0.0763
 3269TIP3    H131298   0.039   4.039  14.123 -1.9536 -3.9044 -0.9148
 3269TIP3    H231299   0.126   3.925  14.173  1.7838 -1.4762 -1.4797
 3270TIP3   OH231300   0.918   5.246  16.560 -0.6033  0.9423 -0.3313
 3270TIP3    H131301   1.006   5.239  16.525  0.1590  1.8988  1.2846
 3270TIP3    H231302   0.862   5.258  16.483  0.7349  0.9547 -1.3279
 3271TIP3   OH231303   0.377   2.006  16.708  0.0022  0.2299  0.5070
 3271TIP3    H131304   0.327   2.083  16.683 -0.7141 -0.1323  0.7978
 3271TIP3    H231305   0.469   2.033  16.699 -0.2376  0.9483  0.1223
 3272TIP3   OH231306   3.679   2.617   3.896  0.1143  0.2100  0.0334
 3272TIP3    H131307   3.715   2.568   3.969 -0.3049  0.0594  0.1370
 3272TIP3    H231308   3.689   2.709   3.921  2.8744  0.3167 -1.0525
 3273TIP3   OH231309   5.861   4.693  12.955 -0.2148  0.3059 -0.0894
 3273TIP3    H131310   5.912   4.617  12.927  0.9370  0.5916  1.0879
 3273TIP3    H231311   5.904   4.767  12.912 -0.6103  0.3995 -0.3214
 3274TIP3   OH231312   1.724   3.634  11.164  0.0989 -0.3055  0.4314
 3274TIP3    H131313   1.738   3.547  11.202  1.3425 -0.3701 -0.1388
 3274TIP3    H231314   1.732   3.621  11.070 -3.5908 -0.2769 -0.0562
 3275TIP3   OH231315   0.422   4.737   2.687  0.1817 -0.6306  0.2610
 3275TIP3    H131316   0.514   4.728   2.661 -0.4359  0.1948 -2.5138
 3275TIP3    H231317   0.424   4.799   2.760  1.7177  0.7168 -0.8573
 3276TIP3   OH231318   6.001   0.356  13.166  0.0976 -0.0561 -0.6685
 3276TIP3    H131319   6.032   0.418  13.101 -0.3150  0.6257 -0.2169
 3276TIP3    H231320   5.923   0.396  13.204  1.8790  0.9765  2.2847
 3277TIP3   OH231321   2.059   3.721   4.751  0.2835  0.4752 -0.0617
 3277TIP3    H131322   1.994   3.716   4.821 -1.2625  2.7971 -1.1821
 3277TIP3    H231323   2.127   3.779   4.785 -0.8187  2.1877 -0.6500
 3278TIP3   OH231324   6.071   3.841   3.372 -0.4760 -0.2215 -0.5460
 3278TIP3    H131325   6.133   3.913   3.378 -1.6682  0.7777  0.2884
 3278TIP3    H231326   6.024   3.857   3.290 -0.6733 -0.0961 -0.4100
 3279TIP3   OH231327   3.485   1.704  13.894 -0.5497 -0.0580 -0.2220
 3279TIP3    H131328   3.467   1.626  13.841  0.7969 -0.7884  0.3248
 3279TIP3    H231329   3.509   1.668  13.980  0.2008  0.9505  0.0066
 3280TIP3   OH231330   6.033   4.338  11.069 -0.0035  0.1170 -0.0783
 3280TIP3    H131331   6.116   4.382  11.088  0.1463  0.4583 -1.3827
 3280TIP3    H231332   5.969   4.382  11.125  0.7046 -0.2236  1.0171
 3281TIP3   OH231333   6.728   0.075   2.811  0.1462  0.3468  0.0333
 3281TIP3    H131334   6.714   0.092   2.718 -0.2634 -0.0397  0.0233
 3281TIP3    H231335   6.713  -0.019   2.821  3.0583 -0.2118 -0.0446
 3282TIP3   OH231336   1.703   2.589   5.556 -0.5243  0.0536 -0.3338
 3282TIP3    H131337   1.665   2.584   5.643  2.1180  0.7049  0.9669
 3282TIP3    H231338   1.751   2.507   5.546 -0.4182  0.1885 -0.9833
 3283TIP3   OH231339   0.497   3.130   1.932 -0.0053 -0.3206 -0.0418
 3283TIP3    H131340   0.484   3.136   1.837  0.0520  0.5903 -0.0078
 3283TIP3    H231341   0.574   3.074   1.943 -0.2661 -0.7800 -0.5107
 3284TIP3   OH231342   4.681   4.228  17.256 -0.0799  0.1839 -0.1459
 3284TIP3    H131343   4.711   4.140  17.236  1.1949  0.1039  1.7874
 3284TIP3    H231344   4.729   4.284  17.196  1.1614 -0.2637  0.3907
 3285TIP3   OH231345   5.843   3.853  12.978  0.3656 -0.0782  0.3627
 3285TIP3    H131346   5.854   3.924  12.915  0.2722  1.0095  1.5099
 3285TIP3    H231347   5.923   3.801  12.970  0.9347  0.7920  0.2423
 3286TIP3   OH231348   2.920   3.346   5.932  0.2178 -0.0868 -0.2931
 3286TIP3    H131349   2.968   3.293   5.996  1.0832  0.6616 -0.3066
 3286TIP3    H231350   2.855   3.393   5.984 -1.8144 -2.4781 -0.5010
 3287TIP3   OH231351   6.144   6.385  11.956 -0.1461  0.4768 -0.4345
 3287TIP3    H131352   6.135   6.470  11.912 -0.4253  0.5924 -0.1604
 3287TIP3    H231353   6.100   6.323  11.898 -2.3034  0.9382  0.6018
 3288TIP3   OH231354   1.913   1.083   6.408  0.3347  0.4191  0.3614
 3288TIP3    H131355   1.999   1.089   6.449 -0.0614 -0.0789  1.3168
 3288TIP3    H231356   1.864   1.157   6.445  0.3802  0.7623 -0.2565
 3289TIP3   OH231357   6.654   1.713  14.448  0.2484 -0.2277  0.2814
 3289TIP3    H131358   6.649   1.723  14.543 -0.6643  3.1156 -0.0108
 3289TIP3    H231359   6.738   1.752  14.424  0.3158 -0.7350 -0.3356
 3290TIP3   OH231360   6.045   2.317   3.372 -0.4467 -0.2347 -0.0484
 3290TIP3    H131361   6.070   2.393   3.424 -1.1744  0.3506 -0.5226
 3290TIP3    H231362   5.949   2.319   3.371 -0.4700 -1.1561 -0.0743
 3291TIP3   OH231363   5.374   2.805   4.728 -0.0222 -1.1868 -0.8432
 3291TIP3    H131364   5.370   2.767   4.815  2.2691 -0.1460 -0.1955
 3291TIP3    H231365   5.335   2.892   4.737  1.7666 -0.3869 -0.3624
 3292TIP3   OH231366   5.054   3.263  10.709 -0.4673 -0.4593  0.0889
 3292TIP3    H131367   5.043   3.179  10.663 -0.5021 -0.1755 -0.4284
 3292TIP3    H231368   5.111   3.314  10.651  1.7244 -1.0571  1.6079
 3293TIP3   OH231369   3.127   2.230  15.569 -0.3091  0.0214  0.2122
 3293TIP3    H131370   3.062   2.250  15.637 -2.4890 -0.9548 -1.4881
 3293TIP3    H231371   3.127   2.307  15.512  0.5650  0.2921  0.5480
 3294TIP3   OH231372   4.897   6.419  15.456  0.2650  0.7709  0.2206
 3294TIP3    H131373   4.821   6.476  15.467  1.0792  1.6606  1.3956
 3294TIP3    H231374   4.965   6.477  15.422  0.3394 -0.0972 -1.1766
 3295TIP3   OH231375   6.360   6.716  16.904  0.2212 -0.0303 -0.1712
 3295TIP3    H131376   6.324   6.770  16.833 -0.0455 -1.1991 -0.9581
 3295TIP3    H231377   6.287   6.704  16.965  1.0042  2.7274  1.4537
 3296TIP3   OH231378   4.484   5.136  14.144  0.4987 -0.1582 -0.0127
 3296TIP3    H131379   4.403   5.104  14.103 -0.0504  1.1079  0.0462
 3296TIP3    H231380   4.545   5.062  14.138 -0.9924 -1.5293  0.9300
 3297TIP3   OH231381   4.292   4.573  17.157 -0.1682  0.1202  0.9245
 3297TIP3    H131382   4.279   4.483  17.129 -0.0199  0.8001 -1.5778
 3297TIP3    H231383   4.203   4.609  17.164 -0.2776 -0.4034  2.8168
 3298TIP3   OH231384   2.135   4.972  10.355 -0.0069 -0.6586  0.1508
 3298TIP3    H131385   2.117   4.892  10.307 -0.9065 -0.8140  0.7369
 3298TIP3    H231386   2.224   4.960  10.389  1.3678  0.1572 -2.8337
 3299TIP3   OH231387   2.741   2.519  11.457 -0.5045  0.0842  0.0144
 3299TIP3    H131388   2.770   2.486  11.542  1.7109  0.6500 -0.4508
 3299TIP3    H231389   2.776   2.608  11.453 -3.1584  1.1895 -0.2818
 3300TIP3   OH231390   6.451   3.493   4.447 -0.7327  0.2279 -0.6837
 3300TIP3    H131391   6.436   3.520   4.356 -0.6921  2.3512 -0.1137
 3300TIP3    H231392   6.433   3.571   4.498 -1.9091 -1.2440  1.2870
 3301TIP3   OH231393   5.751   3.772   1.468 -0.7201  0.0023 -0.7513
 3301TIP3    H131394   5.731   3.818   1.549  0.9177 -0.4647 -0.0356
 3301TIP3    H231395   5.689   3.699   1.466 -0.3958 -0.3294  0.4098
 3302TIP3   OH231396   2.583   6.521  12.508  0.8377  0.0631  0.0019
 3302TIP3    H131397   2.565   6.607  12.545  1.6630  0.7631 -1.1854
 3302TIP3    H231398   2.574   6.461  12.583 -1.3100  0.9421  0.5304
 3303TIP3   OH231399   2.400   3.215   5.146  0.0441 -0.1148 -0.0736
 3303TIP3    H131400   2.338   3.226   5.074 -0.4467 -1.2820  0.1558
 3303TIP3    H231401   2.465   3.153   5.112  1.6026  1.7132 -0.6167
 3304TIP3   OH231402   4.830   2.781  13.010 -0.2656  0.6800  0.3427
 3304TIP3    H131403   4.891   2.722  13.053  0.7234  1.2037 -0.3205
 3304TIP3    H231404   4.764   2.723  12.970 -0.9779  0.1690  2.1683
 3305TIP3   OH231405   4.208   4.683  16.574 -0.8045 -0.0750 -0.2683
 3305TIP3    H131406   4.288   4.672  16.523 -0.2935 -1.8605  0.8363
 3305TIP3    H231407   4.138   4.656  16.515 -0.3773 -0.5747 -0.5565
 3306TIP3   OH231408   3.884   1.557   5.969 -0.2407  0.4363  0.4483
 3306TIP3    H131409   3.896   1.504   5.891  0.1423  0.2175  0.6503
 3306TIP3    H231410   3.946   1.520   6.033  1.1341  2.0386  0.1357
 3307TIP3   OH231411   5.069   3.916   1.726  0.1281  0.1066 -0.1891
 3307TIP3    H131412   5.142   3.874   1.771 -0.4393 -3.0127 -1.8773
 3307TIP3    H231413   5.094   3.915   1.634 -0.7806  1.8237 -0.4882
 3308TIP3   OH231414   0.416   4.130   4.566 -0.7032  0.2962 -0.4559
 3308TIP3    H131415   0.386   4.043   4.592  3.4697 -1.0647  0.7449
 3308TIP3    H231416   0.436   4.174   4.649  1.6968  0.4678 -1.0453
 3309TIP3   OH231417   0.779   0.186  16.755  0.2907  0.4496 -0.0139
 3309TIP3    H131418   0.844   0.229  16.811 -0.9173  1.0043  1.0069
 3309TIP3    H231419   0.739   0.120  16.812  0.3248 -0.2591 -0.7999
 3310TIP3   OH231420   0.939   2.525   4.034  0.9569 -0.1419  0.2085
 3310TIP3    H131421   0.891   2.607   4.034  1.3612  0.1126 -0.8251
 3310TIP3    H231422   0.941   2.498   4.126 -2.6865 -1.1148  0.1553
 3311TIP3   OH231423   0.884   1.838   6.803  0.0321 -0.2611  0.0013
 3311TIP3    H131424   0.904   1.814   6.893 -0.5907 -0.3009  0.1310
 3311TIP3    H231425   0.904   1.760   6.752  1.5903  0.1406 -0.0802
 3312TIP3   OH231426   2.470   0.296  14.636 -0.3107 -0.6420 -0.1525
 3312TIP3    H131427   2.418   0.250  14.570 -1.7976  0.5827  0.1097
 3312TIP3    H231428   2.477   0.385  14.603  0.9543 -0.5683  0.2388
 3313TIP3   OH231429   1.388   3.280   3.446  0.3032  0.2838 -0.0857
 3313TIP3    H131430   1.446   3.271   3.371  1.6163  2.0679  0.6252
 3313TIP3    H231431   1.434   3.238   3.518 -0.1436  0.1078  0.1057
 3314TIP3   OH231432   4.607   3.593   0.489  0.0506 -0.1253 -0.3024
 3314TIP3    H131433   4.621   3.615   0.396 -0.4096 -1.4883 -0.7186
 3314TIP3    H231434   4.623   3.675   0.535  0.2096  0.6094 -1.5953
 3315TIP3   OH231435   1.814   3.567  12.379 -0.5696  0.2537  0.5184
 3315TIP3    H131436   1.908   3.547  12.381 -0.9086 -1.4931  0.6621
 3315TIP3    H231437   1.791   3.565  12.286 -0.3502  1.3541  0.4303
 3316TIP3   OH231438   0.986   6.708   0.522 -0.3192 -0.0711  0.1514
 3316TIP3    H131439   1.017   6.626   0.484 -0.3796 -0.2420  0.4698
 3316TIP3    H231440   1.056   6.771   0.502  0.1427 -0.4045  0.6739
 3317TIP3   OH231441   1.333   1.260  17.156 -0.4382  0.1964 -0.2807
 3317TIP3    H131442   1.275   1.290  17.086 -0.4425  0.2321 -0.2625
 3317TIP3    H231443   1.360   1.172  17.129 -0.2137  0.3211 -0.4679
 3318TIP3   OH231444   0.367   0.107  16.084 -0.5349 -0.7565  0.3848
 3318TIP3    H131445   0.411   0.040  16.032 -2.1060 -2.2686  0.9051
 3318TIP3    H231446   0.434   0.139  16.144  0.8722 -0.1329 -1.4348
 3319TIP3   OH231447   0.991   3.945   3.655 -0.2506 -0.0739  0.5869
 3319TIP3    H131448   0.912   3.951   3.600 -1.3542 -0.1299  2.0951
 3319TIP3    H231449   1.024   4.035   3.659 -2.3583  0.7255  2.8330
 3320TIP3   OH231450   3.753   6.350  12.284  0.6751 -0.2275  0.2391
 3320TIP3    H131451   3.696   6.412  12.331 -0.9297 -1.2679 -0.2652
 3320TIP3    H231452   3.696   6.277  12.263  1.6204 -0.2927 -2.3685
 3321TIP3   OH231453   2.712   0.725  10.603 -0.0150 -0.1442  0.0037
 3321TIP3    H131454   2.677   0.760  10.684 -0.9809 -1.3820  0.1480
 3321TIP3    H231455   2.637   0.684  10.560  0.5248  0.3064 -1.4235
 3322TIP3   OH231456   5.472   0.976   4.468 -0.2492 -0.4973 -0.1192
 3322TIP3    H131457   5.410   1.044   4.493  1.1937  0.1423  1.9583
 3322TIP3    H231458   5.438   0.943   4.384 -2.0408  1.4240 -0.2456
 3323TIP3   OH231459   1.936   5.687   5.721 -0.5908 -0.1477 -0.4815
 3323TIP3    H131460   1.879   5.727   5.787 -1.5539  0.8294 -1.8584
 3323TIP3    H231461   1.876   5.638   5.665 -0.1921  1.3520 -2.2841
 3324TIP3   OH231462   3.458   5.474  14.786 -0.1153  0.0861  0.2746
 3324TIP3    H131463   3.423   5.555  14.748  1.8030  0.2947 -1.1864
 3324TIP3    H231464   3.438   5.406  14.722 -3.3970 -1.1019  2.3255
 3325TIP3   OH231465   2.170   5.361  14.427  0.2646 -0.3420 -0.2489
 3325TIP3    H131466   2.153   5.417  14.503 -0.2581 -1.4278  0.4737
 3325TIP3    H231467   2.086   5.320  14.408  1.1033 -2.7546  0.8339
 3326TIP3   OH231468   3.086   6.677   5.456  0.2854 -0.5604  0.2781
 3326TIP3    H131469   3.114   6.753   5.506  1.1729 -1.7532  1.7037
 3326TIP3    H231470   3.146   6.674   5.381 -0.4256  0.6945 -0.3675
 3327TIP3   OH231471   5.464   1.172  12.389  0.1357 -0.0168  0.3977
 3327TIP3    H131472   5.409   1.123  12.328 -0.2192  0.1751  0.5562
 3327TIP3    H231473   5.553   1.162  12.355 -0.3214  2.7181 -2.0326
 3328TIP3   OH231474   6.221   6.454  16.373  0.5970 -0.7720  0.2711
 3328TIP3    H131475   6.144   6.401  16.357  0.7527 -0.6930 -0.8161
 3328TIP3    H231476   6.194   6.517  16.440 -0.4329 -0.4215 -0.4603
 3329TIP3   OH231477   2.187   2.478  16.824  0.4088  0.3068  0.9783
 3329TIP3    H131478   2.126   2.422  16.776  2.2991 -2.2250  1.2916
 3329TIP3    H231479   2.178   2.452  16.915  0.0572  1.8780  1.4286
 3330TIP3   OH231480   3.083   3.077   3.342 -0.1527  0.5887  0.2080
 3330TIP3    H131481   3.124   3.150   3.296  2.5429 -2.1128 -2.0915
 3330TIP3    H231482   3.007   3.054   3.288  1.0756 -0.4614 -1.1530
 3331TIP3   OH231483   2.318   0.921   4.378  0.3457 -0.0654  0.6296
 3331TIP3    H131484   2.290   0.829   4.382  1.7510 -0.5350  0.1701
 3331TIP3    H231485   2.322   0.941   4.285 -0.4748  0.6518  0.7321
 3332TIP3   OH231486   5.795   6.409  13.074 -0.2171  0.0554 -0.0641
 3332TIP3    H131487   5.770   6.329  13.028 -0.4425 -0.7257  1.3744
 3332TIP3    H231488   5.831   6.379  13.157  0.3154  1.4283  0.2268
 3333TIP3   OH231489   6.265   5.761   0.407 -0.1556  0.0021  0.3563
 3333TIP3    H131490   6.313   5.831   0.363  1.2277 -1.6503 -0.9185
 3333TIP3    H231491   6.329   5.690   0.415 -2.0873 -1.9536 -0.5557
 3334TIP3   OH231492   0.330   5.502  12.086 -0.2458  0.1052  0.7424
 3334TIP3    H131493   0.408   5.536  12.130 -0.5484  0.1829  1.2387
 3334TIP3    H231494   0.307   5.423  12.136 -0.2152 -0.1740  0.3137
 3335TIP3   OH231495   5.209   1.115  14.423 -0.6217 -0.2010 -0.0914
 3335TIP3    H131496   5.262   1.171  14.480  0.7002 -1.1146 -0.3592
 3335TIP3    H231497   5.274   1.067  14.371 -1.7533 -0.9405 -0.8581
 3336TIP3   OH231498   4.417   1.271   5.890  0.6320  0.8434  0.6141
 3336TIP3    H131499   4.360   1.333   5.844  0.9692  0.5678 -0.1883
 3336TIP3    H231500   4.360   1.232   5.957 -0.3771 -0.0394 -0.7140
 3337TIP3   OH231501   4.248   4.934  17.216  0.2700 -0.1981  0.3167
 3337TIP3    H131502   4.174   4.985  17.183  0.8326  0.7643  0.5142
 3337TIP3    H231503   4.290   4.899  17.137  0.0560 -0.1152  0.1636
 3338TIP3   OH231504   3.488   1.196   1.011  0.6527 -0.2461 -0.0396
 3338TIP3    H131505   3.454   1.109   1.030  0.7756 -0.0666  1.0435
 3338TIP3    H231506   3.431   1.255   1.060  1.9816  0.1183  1.0952
 3339TIP3   OH231507   2.078   6.642   1.252 -0.6691  0.6789 -0.3554
 3339TIP3    H131508   2.013   6.608   1.314 -0.2237  0.2570 -0.1066
 3339TIP3    H231509   2.152   6.668   1.307  1.2155 -2.9517 -0.8391
 3340TIP3   OH231510   3.657   5.366  14.526  0.2224 -0.5048 -0.2161
 3340TIP3    H131511   3.679   5.281  14.565 -0.4338 -0.3271  0.5601
 3340TIP3    H231512   3.580   5.349  14.472 -0.8892 -0.1129  1.1943
 3341TIP3   OH231513   6.138   5.490  15.225 -0.0534 -0.1109  0.3967
 3341TIP3    H131514   6.197   5.487  15.150  0.6898 -0.3847  0.9851
 3341TIP3    H231515   6.110   5.582  15.230  1.1677  0.2583  0.7475
 3342TIP3   OH231516   3.644   6.803  10.562 -0.4121 -0.0389 -0.6121
 3342TIP3    H131517   3.595   6.860  10.502 -2.5446 -0.1222  0.9493
 3342TIP3    H231518   3.625   6.714  10.531 -2.8354 -0.1678  1.0203
 3343TIP3   OH231519   1.673   2.897  12.990 -0.5282  0.3265  0.3716
 3343TIP3    H131520   1.745   2.861  13.043 -0.8073  0.6721  1.0005
 3343TIP3    H231521   1.623   2.951  13.052 -0.9918  0.5573 -0.1991
 3344TIP3   OH231522   3.095   0.585  16.368  0.2314  0.5333 -0.2113
 3344TIP3    H131523   3.025   0.649  16.355 -2.3553 -2.1780 -0.8982
 3344TIP3    H231524   3.049   0.502  16.380  3.2315 -0.9333  3.2495
 3345TIP3   OH231525   0.745   3.748  12.184 -0.8240  0.0260 -0.3288
 3345TIP3    H131526   0.829   3.794  12.171  0.4023 -2.3551 -1.4085
 3345TIP3    H231527   0.679   3.814  12.166  0.7706  2.0848  0.8209
 3346TIP3   OH231528   6.123   5.626   6.616  0.0486  0.2367  0.4221
 3346TIP3    H131529   6.139   5.541   6.576  2.2085  1.1979 -0.9681
 3346TIP3    H231530   6.055   5.666   6.562 -1.4302 -0.7992  1.4579
 3347TIP3   OH231531   5.722   5.113   3.510 -0.0399  0.1113 -0.2426
 3347TIP3    H131532   5.670   5.169   3.567 -1.2238 -0.0602 -1.1116
 3347TIP3    H231533   5.811   5.118   3.545 -0.1237  2.4419 -0.2252
 3348TIP3   OH231534   6.318   4.313   2.275  0.2458  0.1147 -0.3837
 3348TIP3    H131535   6.249   4.379   2.276  0.4320  0.3068  0.4566
 3348TIP3    H231536   6.274   4.233   2.245  0.0028  0.5849 -1.3187
 3349TIP3   OH231537   3.899   0.514  13.784 -0.4089 -0.3682  0.1031
 3349TIP3    H131538   3.818   0.467  13.803 -0.9720  1.0428  1.4481
 3349TIP3    H231539   3.894   0.534  13.691 -0.4796 -2.2835 -0.3532
 3350TIP3   OH231540   6.069   0.196  10.720  0.0133 -0.5944  0.3990
 3350TIP3    H131541   6.041   0.257  10.789 -0.3793 -0.2091 -0.0991
 3350TIP3    H231542   5.992   0.183  10.666  0.8515  0.7704 -1.2159
 3351TIP3   OH231543   3.353   1.492  15.430  0.3813 -0.3511 -0.1803
 3351TIP3    H131544   3.401   1.575  15.436 -0.9137  0.3694  0.5625
 3351TIP3    H231545   3.370   1.461  15.341 -1.3408  2.1410 -1.4942
 3352TIP3   OH231546   0.129   5.923  13.863  0.6539  0.4199 -0.4091
 3352TIP3    H131547   0.136   5.837  13.822  0.7360  0.2512 -0.0432
 3352TIP3    H231548   0.196   5.976  13.819  0.2304  0.4557 -1.0205
 3353TIP3   OH231549   0.760   2.790  15.230  0.1342  0.7253  0.1851
 3353TIP3    H131550   0.782   2.699  15.248 -0.4011  0.4316 -0.5847
 3353TIP3    H231551   0.839   2.827  15.190  0.6744  0.8704  1.3383
 3354TIP3   OH231552   0.386   3.959   2.497  0.0043 -0.0734  0.5653
 3354TIP3    H131553   0.449   3.988   2.562  2.6558 -1.4936 -1.2032
 3354TIP3    H231554   0.352   4.040   2.458  0.8440  0.7246  1.4631
 3355TIP3   OH231555   3.015   1.828  14.439 -0.2370  0.6130 -0.1593
 3355TIP3    H131556   2.987   1.760  14.378  0.1503 -0.1309  0.4792
 3355TIP3    H231557   3.064   1.781  14.506  2.5686  1.8202 -1.2053
 3356TIP3   OH231558   6.559   1.499  12.612  0.2332 -0.1480 -0.0907
 3356TIP3    H131559   6.524   1.495  12.702  1.5977 -0.4711  0.4486
 3356TIP3    H231560   6.504   1.438  12.563 -3.4136  3.1242 -0.5707
 3357TIP3   OH231561   2.430   5.866  11.674  0.0486  0.0328  0.2479
 3357TIP3    H131562   2.493   5.809  11.716  0.2325  0.3126  0.3519
 3357TIP3    H231563   2.353   5.811  11.660  0.6802 -0.6022 -0.8281
 3358TIP3   OH231564   1.758   6.026   3.674  0.8400  0.3393  0.3453
 3358TIP3    H131565   1.762   5.930   3.678  1.4967  0.3316 -0.1862
 3358TIP3    H231566   1.665   6.046   3.666  0.7131 -0.2690  0.2209
 3359TIP3   OH231567   1.017   6.631  15.049 -0.6141  0.2651  0.0498
 3359TIP3    H131568   1.047   6.585  14.970 -0.9454  3.8473 -2.3639
 3359TIP3    H231569   1.086   6.695  15.066 -1.3183  0.6025  1.7701
 3360TIP3   OH231570   4.366   1.746   5.989  0.1091 -0.1004 -0.1698
 3360TIP3    H131571   4.407   1.830   6.009  0.6307 -0.0998 -1.1941
 3360TIP3    H231572   4.347   1.750   5.895  0.1886 -1.1420 -0.2423
 3361TIP3   OH231573   0.310   3.596   0.315 -0.0066 -0.3653  0.1501
 3361TIP3    H131574   0.215   3.581   0.319 -0.0406 -0.3522 -0.5135
 3361TIP3    H231575   0.338   3.594   0.406 -0.6491 -0.3615  0.3545
 3362TIP3   OH231576   3.844   1.102   5.466  0.1617 -0.0834 -0.4699
 3362TIP3    H131577   3.875   1.012   5.475 -1.6626 -0.8074 -1.0016
 3362TIP3    H231578   3.765   1.095   5.413 -2.0747  1.3885  2.3918
 3363TIP3   OH231579   6.150   3.532   4.462  0.0018  0.8276 -0.0101
 3363TIP3    H131580   6.097   3.591   4.408  0.3743  0.6907 -0.5249
 3363TIP3    H231581   6.195   3.475   4.400 -0.6410 -0.2607  0.4874
 3364TIP3   OH231582   1.143   3.638  13.125  0.6342 -0.0826 -0.2449
 3364TIP3    H131583   1.057   3.669  13.153  0.2670 -0.0278 -1.3524
 3364TIP3    H231584   1.142   3.545  13.144  0.6286  0.0612  0.4619
 3365TIP3   OH231585   6.028   6.604  13.859  0.0387  0.1926  0.1500
 3365TIP3    H131586   6.086   6.638  13.926 -0.1190 -1.8403  1.4086
 3365TIP3    H231587   5.973   6.540  13.905  0.0236 -1.3885 -1.9086
 3366TIP3   OH231588   0.952   3.938   6.693 -0.1993 -0.0023  0.0453
 3366TIP3    H131589   0.939   4.016   6.638  0.4595  0.1498  0.0988
 3366TIP3    H231590   1.047   3.927   6.696 -0.2727 -0.5358  0.4279
 3367TIP3   OH231591   2.195   2.415  17.109 -0.1488  0.2884 -1.0249
 3367TIP3    H131592   2.119   2.423  17.168 -0.3300  2.1155 -1.4439
 3367TIP3    H231593   2.231   2.328  17.128 -0.1205  0.8375  1.8689
 3368TIP3   OH231594   2.569   5.499  11.590 -0.1004  0.3559  0.6936
 3368TIP3    H131595   2.539   5.587  11.612 -0.8794  0.1352  0.5633
 3368TIP3    H231596   2.522   5.478  11.509  1.2693  0.4290 -0.1429
 3369TIP3   OH231597   3.736   0.960   4.627  0.2232 -0.4465 -0.5355
 3369TIP3    H131598   3.736   0.873   4.667  0.1819 -0.6256 -0.9251
 3369TIP3    H231599   3.657   1.002   4.660 -0.4597 -1.0391 -1.3975
 3370TIP3   OH231600   3.236   0.569   1.908  0.0405  0.2159 -0.1941
 3370TIP3    H131601   3.174   0.551   1.979 -0.5074 -0.2761 -0.7789
 3370TIP3    H231602   3.319   0.534   1.939 -0.4013 -0.8580 -0.1666
 3371TIP3   OH231603   4.016   3.987   6.438 -0.3824  0.0333  0.1239
 3371TIP3    H131604   4.015   3.992   6.342  0.5001  1.4601  0.1561
 3371TIP3    H231605   4.096   3.938   6.459 -0.6021 -0.3229  0.1260
 3372TIP3   OH231606   6.091   3.045  17.000  0.1930 -0.0835  0.0789
 3372TIP3    H131607   6.164   3.065  17.059 -0.8362  0.4659  1.2170
 3372TIP3    H231608   6.084   2.950  17.003  1.0255 -0.1677 -0.2700
 3373TIP3   OH231609   1.143   4.036   5.656 -0.3695  0.1294 -0.1186
 3373TIP3    H131610   1.183   4.103   5.601 -1.0047  0.1732 -0.5390
 3373TIP3    H231611   1.198   4.033   5.734  0.0732  0.6398 -0.4053
 3374TIP3   OH231612   4.142   0.910  13.156  0.3167 -0.1234  0.3351
 3374TIP3    H131613   4.117   0.995  13.120 -2.2550  0.3972  2.9375
 3374TIP3    H231614   4.237   0.907  13.147  0.5364  3.1179  0.3223
 3375TIP3   OH231615   4.324   6.085  14.426  0.5993 -0.0202 -0.5627
 3375TIP3    H131616   4.247   6.131  14.460 -0.0196 -0.8644 -0.7702
 3375TIP3    H231617   4.358   6.036  14.501  0.9744  0.3952 -0.4584
 3376TIP3   OH231618   0.315   0.787   0.313 -0.6849  0.5995  0.0156
 3376TIP3    H131619   0.219   0.782   0.311 -0.6826  0.0681  0.9423
 3376TIP3    H231620   0.343   0.698   0.331 -0.0497  0.9587  0.8625
 3377TIP3   OH231621   1.187   0.303   3.382 -0.1287  0.0844  0.0731
 3377TIP3    H131622   1.261   0.362   3.396 -0.1422 -0.0475  0.7930
 3377TIP3    H231623   1.200   0.268   3.294  0.2927  0.5785 -0.0672
 3378TIP3   OH231624   1.847   5.807  11.228 -0.0296 -1.0322  0.0492
 3378TIP3    H131625   1.768   5.797  11.282  0.0493  2.6394  1.0658
 3378TIP3    H231626   1.913   5.843  11.287  2.3120 -3.2796 -0.9595
 3379TIP3   OH231627   5.472   2.365   6.024  0.1753  0.1577  0.2264
 3379TIP3    H131628   5.416   2.295   6.056 -0.0616  1.1174  2.0528
 3379TIP3    H231629   5.538   2.376   6.092  0.2563  1.6447 -0.0528
 3380TIP3   OH231630   2.868   0.111  14.546  0.0799  0.0322 -0.0988
 3380TIP3    H131631   2.902   0.079  14.629 -0.1836 -2.3397 -0.8318
 3380TIP3    H231632   2.946   0.133  14.495  0.2440  1.3973  0.6813
 3381TIP3   OH231633   1.913   4.557   5.467  0.0936  0.0894  0.0467
 3381TIP3    H131634   1.991   4.516   5.431 -0.0612  0.0985 -0.3004
 3381TIP3    H231635   1.940   4.647   5.489  0.8762 -0.6340  2.2924
 3382TIP3   OH231636   1.321   6.687   3.114  0.0408 -0.2623 -1.0930
 3382TIP3    H131637   1.340   6.646   3.198  1.5956  1.9688 -0.2459
 3382TIP3    H231638   1.228   6.673   3.100  0.1542 -2.4748 -0.0630
 3383TIP3   OH231639   5.134   3.643  15.895  0.1368 -0.3312 -0.2092
 3383TIP3    H131640   5.129   3.654  15.800  0.6225  2.1100 -0.0227
 3383TIP3    H231641   5.216   3.684  15.920  0.3185 -1.4944  1.2355
 3384TIP3   OH231642   5.012   0.798  15.685  0.1555 -0.1095  0.2609
 3384TIP3    H131643   4.930   0.788  15.637  0.6348 -0.4368 -0.5050
 3384TIP3    H231644   4.988   0.781  15.777 -1.1694  2.5254  0.4841
 3385TIP3   OH231645   2.793   1.479  11.509  0.2107 -0.6426  0.1024
 3385TIP3    H131646   2.855   1.461  11.579  0.8095  2.5015  0.5294
 3385TIP3    H231647   2.847   1.497  11.432 -0.2767 -0.4513 -0.2062
 3386TIP3   OH231648   1.795   4.708  11.147  0.3656  0.3720  0.1176
 3386TIP3    H131649   1.870   4.721  11.089  1.9351 -0.4289  1.8460
 3386TIP3    H231650   1.741   4.643  11.102 -0.3977  2.3908 -2.0799
 3387TIP3   OH231651   4.800   1.949  11.163 -0.2507  0.2171 -0.1552
 3387TIP3    H131652   4.745   1.984  11.233 -0.8526 -1.1469  0.0676
 3387TIP3    H231653   4.739   1.924  11.094  0.2173  0.1139 -0.5354
 3388TIP3   OH231654   2.731   1.969  14.472  0.0548  0.2841 -0.0049
 3388TIP3    H131655   2.744   1.877  14.453 -0.8387  0.4297 -1.4854
 3388TIP3    H231656   2.665   1.971  14.541 -0.6628 -0.1555 -0.6807
 3389TIP3   OH231657   6.553   5.578  12.335  0.3734 -0.9809  0.2853
 3389TIP3    H131658   6.562   5.589  12.429  1.8262 -1.7702  0.2736
 3389TIP3    H231659   6.536   5.484  12.323  1.9625 -1.2368 -0.2940
 3390TIP3   OH231660   4.935   2.291   4.412 -0.4463  0.5034 -0.2237
 3390TIP3    H131661   4.994   2.219   4.391 -1.2073 -0.3383  0.4216
 3390TIP3    H231662   4.992   2.366   4.430  0.4583 -0.4563  1.0714
 3391TIP3   OH231663   3.893   0.479  11.656  0.0479 -0.5959  0.0149
 3391TIP3    H131664   3.852   0.393  11.669  2.7809 -2.1313 -0.6591
 3391TIP3    H231665   3.885   0.495  11.562  1.0060 -0.9844 -0.1507
 3392TIP3   OH231666   1.113   4.814  10.890  0.2975 -0.1963  0.4545
 3392TIP3    H131667   1.112   4.876  10.963 -0.1242  1.0026 -0.5192
 3392TIP3    H231668   1.135   4.868  10.814  1.4895 -1.5499 -0.2047
 3393TIP3   OH231669   1.446   0.699  11.305 -0.0541  0.6137  0.1358
 3393TIP3    H131670   1.426   0.654  11.223 -1.6709  1.8615 -0.2085
 3393TIP3    H231671   1.537   0.727  11.295  0.3569 -0.8471 -0.4349
 3394TIP3   OH231672   3.089   1.539   6.049 -0.2766 -0.0103 -0.3826
 3394TIP3    H131673   2.997   1.517   6.033  0.2819 -1.0577 -2.5631
 3394TIP3    H231674   3.115   1.480   6.120 -1.2893  0.3914  0.3578
 3395TIP3   OH231675   1.522   2.677   4.070 -0.3681 -0.1987 -0.3776
 3395TIP3    H131676   1.554   2.748   4.015  0.7102 -0.0942  0.3536
 3395TIP3    H231677   1.428   2.692   4.077 -0.0583  1.6617  0.4286
 3396TIP3   OH231678   3.776   0.664   1.636 -0.3474 -0.3390  0.0081
 3396TIP3    H131679   3.758   0.572   1.655 -1.2607 -0.2278 -0.2640
 3396TIP3    H231680   3.778   0.706   1.722 -1.4931 -0.3463  0.0481
 3397TIP3   OH231681   4.180   0.777   3.935 -0.2404  0.3317 -0.0770
 3397TIP3    H131682   4.091   0.799   3.909  0.2029  0.5383 -1.4966
 3397TIP3    H231683   4.228   0.767   3.853  0.4915 -2.2321  0.5675
 3398TIP3   OH231684   1.099   4.953  13.390 -0.1699  0.3574  0.4547
 3398TIP3    H131685   1.013   4.930  13.425 -0.1751  1.4243  1.1846
 3398TIP3    H231686   1.118   4.884  13.326 -1.6212  0.1819  0.1774
 3399TIP3   OH231687   0.912   2.067  16.387 -0.3917  0.1974 -0.0867
 3399TIP3    H131688   1.005   2.044  16.387 -0.7927 -1.5860  0.4208
 3399TIP3    H231689   0.871   1.999  16.332 -1.4355  0.7629 -0.0253
 3400TIP3   OH231690   4.205   5.601  11.711 -0.3454 -0.1589  0.3392
 3400TIP3    H131691   4.204   5.653  11.792  1.2251  1.9117 -0.8744
 3400TIP3    H231692   4.288   5.555  11.713 -0.0784  0.2855 -0.3059
 3401TIP3   OH231693   5.259   5.965   3.784 -0.4250  0.1581 -0.0543
 3401TIP3    H131694   5.242   5.981   3.877 -0.3758 -1.6833  0.2963
 3401TIP3    H231695   5.256   6.053   3.744 -0.5406  0.9701  1.6490
 3402TIP3   OH231696   5.042   6.629   0.024  0.3476  0.1427 -0.9697
 3402TIP3    H131697   5.057   6.539   0.055  1.6265  0.3915 -0.7952
 3402TIP3    H231698   4.974   6.663   0.082  0.4907 -0.4266 -0.4508
 3403TIP3   OH231699   5.813   0.456   6.239 -0.0225  0.6428 -0.4549
 3403TIP3    H131700   5.822   0.393   6.311 -1.3984 -0.1564 -0.9394
 3403TIP3    H231701   5.883   0.433   6.178 -0.8097 -0.7844 -0.8609
 3404TIP3   OH231702   5.250   1.059   2.364 -0.1363 -0.3355  0.3668
 3404TIP3    H131703   5.273   1.152   2.364  0.4184 -0.4674 -0.0584
 3404TIP3    H231704   5.300   1.022   2.291  1.6641 -1.4715  2.0690
 3405TIP3   OH231705   6.765   3.927  12.045  0.1602 -0.1149  0.1498
 3405TIP3    H131706   6.744   3.986  11.972  1.4171 -1.7487 -1.6411
 3405TIP3    H231707   6.722   3.845  12.022  0.1471 -0.5198  1.5467
 3406TIP3   OH231708   6.134   0.756   0.934 -0.1198 -0.6128  0.1353
 3406TIP3    H131709   6.117   0.808   1.013  0.4750 -0.4964  0.1871
 3406TIP3    H231710   6.047   0.739   0.898 -0.2958  2.0216 -0.9449
 3407TIP3   OH231711   1.762   1.798  16.811 -0.5762 -0.7809  0.0734
 3407TIP3    H131712   1.681   1.835  16.848 -1.2850 -0.8758 -1.3036
 3407TIP3    H231713   1.767   1.710  16.847  0.4634  0.1529  2.4065
 3408TIP3   OH231714   5.962   2.448  16.646 -0.6696 -0.1317  0.5411
 3408TIP3    H131715   5.871   2.424  16.628 -0.3581  0.3319 -1.9872
 3408TIP3    H231716   5.964   2.543  16.633  0.6450 -0.4374 -2.0959
 3409TIP3   OH231717   4.777   0.522  13.573 -0.3430  0.0473  0.1097
 3409TIP3    H131718   4.872   0.531  13.579 -0.5867  3.0575  4.4229
 3409TIP3    H231719   4.755   0.456  13.640 -1.3361 -0.5193 -0.7389
 3410TIP3   OH231720   2.148   0.448  16.417  0.1684 -1.1143 -0.1357
 3410TIP3    H131721   2.241   0.467  16.425  0.0973 -0.8029 -0.0243
 3410TIP3    H231722   2.105   0.533  16.432 -0.1051 -1.1345 -0.7433
 3411TIP3   OH231723   3.549   6.019  14.463  0.2631 -0.3203 -0.0121
 3411TIP3    H131724   3.563   5.927  14.439  1.2850 -0.0317 -0.5523
 3411TIP3    H231725   3.617   6.039  14.527  1.6873  0.7456 -1.7577
 3412TIP3   OH231726   1.600   6.283  16.909 -0.1886  0.6395  0.4335
 3412TIP3    H131727   1.527   6.294  16.970 -1.3814 -1.9446 -0.3673
 3412TIP3    H231728   1.563   6.303  16.823  0.5891  1.1357  0.2034
 3413TIP3   OH231729   5.073   0.672  11.437  0.2383 -0.1331 -0.6303
 3413TIP3    H131730   5.081   0.710  11.524 -3.1561  0.3861 -0.4230
 3413TIP3    H231731   5.107   0.583  11.447  0.7870  0.2085  0.9413
 3414TIP3   OH231732   1.028   3.788   2.341 -0.3191  0.3556 -0.2493
 3414TIP3    H131733   1.102   3.841   2.313  1.3874 -1.2113  1.0267
 3414TIP3    H231734   1.025   3.800   2.436 -2.2037  0.9635 -0.3565
 3415TIP3   OH231735   1.575   6.066  12.458 -0.1616  1.0430 -0.2645
 3415TIP3    H131736   1.537   6.024  12.535 -1.3557  2.1378 -0.2153
 3415TIP3    H231737   1.621   5.996  12.413  0.0415  0.2419  1.1160
 3416TIP3   OH231738   0.810   4.629  11.565  0.0213  0.0762  0.2162
 3416TIP3    H131739   0.850   4.607  11.481  0.8457 -1.5817  0.9716
 3416TIP3    H231740   0.795   4.544  11.607 -1.6473  0.7973  1.1944
 3417TIP3   OH231741   6.115   1.047   6.555 -0.3096  0.1979  0.2804
 3417TIP3    H131742   6.151   1.126   6.515 -1.8290 -0.3901 -2.4414
 3417TIP3    H231743   6.152   0.975   6.504 -0.3289 -0.7756  1.5828
 3418TIP3   OH231744   1.207   6.605   1.183 -0.1492 -0.4015  0.3551
 3418TIP3    H131745   1.282   6.546   1.184 -1.4661 -2.1492  0.0389
 3418TIP3    H231746   1.155   6.580   1.259 -0.5032  0.6718  0.4849
 3419TIP3   OH231747   2.315   0.379   2.427  0.5636  0.2675 -0.5154
 3419TIP3    H131748   2.399   0.372   2.381 -0.1042  1.5285 -2.0295
 3419TIP3    H231749   2.262   0.436   2.371 -1.7145 -1.3729 -0.1971
 3420TIP3   OH231750   2.906   1.657  13.745 -0.7558  0.5638 -0.2280
 3420TIP3    H131751   2.991   1.627  13.712 -0.1518  0.5301  1.2604
 3420TIP3    H231752   2.900   1.748  13.718  0.5055  1.0402  0.9720
 3421TIP3   OH231753   0.120   1.519   3.595 -0.2703  0.4699  0.9066
 3421TIP3    H131754   0.075   1.486   3.517  0.6667  2.3005 -0.5109
 3421TIP3    H231755   0.183   1.451   3.617 -1.3372 -0.5790  0.7919
 3422TIP3   OH231756   2.962   1.718   3.181 -0.2597 -0.4586  0.8401
 3422TIP3    H131757   2.907   1.790   3.148 -0.8947 -0.9782  0.7407
 3422TIP3    H231758   3.047   1.733   3.142 -0.0070  0.9884  1.8436
 3423TIP3   OH231759   5.545   5.328   4.906 -0.0582 -0.3983  0.3137
 3423TIP3    H131760   5.551   5.289   4.819 -0.7052 -1.3255  0.6655
 3423TIP3    H231761   5.564   5.256   4.966  1.8834  0.5493  0.9390
 3424TIP3   OH231762   3.359   1.806   1.356 -0.2443 -0.1385 -0.4436
 3424TIP3    H131763   3.273   1.821   1.315 -0.1683  1.6824  0.0068
 3424TIP3    H231764   3.415   1.874   1.320 -0.0228  1.2035  2.2080
 3425TIP3   OH231765   1.032   3.582   0.746 -0.5210 -0.1436  0.3188
 3425TIP3    H131766   0.950   3.549   0.709 -0.8483  1.0243 -0.0512
 3425TIP3    H231767   1.004   3.650   0.807  0.2026  0.9986 -0.5785
 3426TIP3   OH231768   0.227   5.913  12.060  0.3907  0.0854 -0.3918
 3426TIP3    H131769   0.194   5.854  12.128  0.7694 -0.2546 -0.4956
 3426TIP3    H231770   0.153   5.970  12.040  0.0504 -0.2815 -0.2070
 3427TIP3   OH231771   2.446   3.486   4.075 -0.0019 -0.5466  0.2418
 3427TIP3    H131772   2.362   3.495   4.029  0.4706  0.7069 -0.4290
 3427TIP3    H231773   2.423   3.474   4.167 -0.9168  0.4075  0.1526
 3428TIP3   OH231774   1.069   1.824  16.005 -0.0093 -0.2909  0.1630
 3428TIP3    H131775   1.100   1.849  16.092 -1.1682 -0.1918  0.5747
 3428TIP3    H231776   1.114   1.883  15.945 -1.4536  1.7657  0.9691
 3429TIP3   OH231777   4.060   5.625   1.242 -0.0716 -0.6411 -1.1784
 3429TIP3    H131778   4.100   5.694   1.189 -0.0186  1.4714  1.3946
 3429TIP3    H231779   4.124   5.554   1.239  3.3036  1.9418  1.3377
 3430TIP3   OH231780   6.387   2.931  15.661 -0.6097 -0.2819  0.2133
 3430TIP3    H131781   6.403   2.986  15.737  1.1070  1.2299 -1.1501
 3430TIP3    H231782   6.378   2.993  15.588 -0.1586 -1.7395 -1.1392
 3431TIP3   OH231783   2.034   5.639  12.596 -0.2282 -0.2738 -0.0361
 3431TIP3    H131784   1.982   5.642  12.676 -1.7774 -0.8247 -0.9748
 3431TIP3    H231785   2.113   5.590  12.619  0.2187  1.1178  1.5836
 3432TIP3   OH231786   6.755   4.675   1.154 -0.0543  0.5616 -0.2425
 3432TIP3    H131787   6.808   4.688   1.075  0.0805  2.1482  0.0691
 3432TIP3    H231788   6.666   4.661   1.122  0.5282 -2.5012 -0.7878
 3433TIP3   OH231789   4.582   2.523   4.225  0.0793 -0.2662  0.5342
 3433TIP3    H131790   4.504   2.483   4.263 -0.6641  0.2054 -0.4399
 3433TIP3    H231791   4.607   2.464   4.154  0.2500 -0.1161  0.4690
 3434TIP3   OH231792   4.957   3.057   2.523 -0.2926 -0.0086  0.2608
 3434TIP3    H131793   4.896   3.131   2.526  1.5677  1.5889  1.3950
 3434TIP3    H231794   4.980   3.048   2.431 -0.4742  0.9050  0.1188
 3435TIP3   OH231795   2.358   0.547  14.463  0.4554  0.5832  0.5765
 3435TIP3    H131796   2.264   0.535  14.474  0.5945  1.2562  3.1393
 3435TIP3    H231797   2.370   0.555  14.369 -2.0672  0.5863  0.1832
 3436TIP3   OH231798   5.877   1.048  15.411  0.0150  0.9764 -0.3107
 3436TIP3    H131799   5.871   1.142  15.391  0.3023  0.7134 -1.7157
 3436TIP3    H231800   5.920   1.045  15.496 -0.4260  2.1354 -0.0185
 3437TIP3   OH231801   1.771   6.353  14.403 -0.5585 -0.0033  0.3371
 3437TIP3    H131802   1.837   6.384  14.465 -0.0558 -0.3915  0.0116
 3437TIP3    H231803   1.771   6.419  14.334  0.5162 -0.6933 -0.3588
 3438TIP3   OH231804   2.523   6.482  13.348  0.5256  0.3420 -0.9669
 3438TIP3    H131805   2.594   6.546  13.349  0.6713  0.1934 -1.5614
 3438TIP3    H231806   2.567   6.397  13.347  0.3360  0.1918  0.7427
 3439TIP3   OH231807   6.248   3.622   2.232 -0.3973  0.1797 -0.0466
 3439TIP3    H131808   6.174   3.621   2.292 -0.7371 -2.4406 -0.3712
 3439TIP3    H231809   6.219   3.569   2.157 -0.2398  3.7778 -2.9542
 3440TIP3   OH231810   2.988   3.688   1.859 -0.1969  0.1371  0.2085
 3440TIP3    H131811   2.961   3.760   1.802  0.4862 -0.0937 -0.4088
 3440TIP3    H231812   2.943   3.706   1.942  0.2517  1.4849  0.1842
 3441TIP3   OH231813   2.093   4.774   2.041  0.6756  0.1849  0.1197
 3441TIP3    H131814   2.020   4.738   2.091  0.7701  0.6366  0.5936
 3441TIP3    H231815   2.053   4.810   1.962  0.4910 -0.2828 -0.0054
 3442TIP3   OH231816   3.134   6.637   3.495  0.4369 -0.5452  0.1896
 3442TIP3    H131817   3.090   6.694   3.431 -1.0936 -0.8945  0.8761
 3442TIP3    H231818   3.075   6.561   3.503  1.0258 -0.8969  1.3741
 3443TIP3   OH231819   0.383   1.198   6.821 -0.0035  0.1737  0.7665
 3443TIP3    H131820   0.328   1.276   6.826  0.7676  1.0430 -2.2382
 3443TIP3    H231821   0.465   1.224   6.862  0.9299  1.7519 -1.8199
 3444TIP3   OH231822   6.447   6.291   4.640 -0.1826 -0.4096  0.1817
 3444TIP3    H131823   6.375   6.354   4.642 -0.2238 -0.4800  1.3839
 3444TIP3    H231824   6.508   6.321   4.707  0.7756 -0.5254 -0.6189
 3445TIP3   OH231825   2.661   3.781  14.342  1.1162 -0.1474  0.0587
 3445TIP3    H131826   2.727   3.791  14.274  0.6861  0.0182 -0.3338
 3445TIP3    H231827   2.635   3.870  14.364 -1.5310 -0.1951 -2.2967
 3446TIP3   OH231828   3.382   6.093   4.994  0.0614  0.9429 -0.1693
 3446TIP3    H131829   3.417   6.120   4.909 -0.6242  0.0034 -0.7758
 3446TIP3    H231830   3.310   6.155   5.012 -0.3200  0.6511 -0.6708
 3447TIP3   OH231831   3.412   2.587   0.591 -0.6151 -0.1184  0.3610
 3447TIP3    H131832   3.383   2.516   0.534 -0.3911  0.9488 -1.1731
 3447TIP3    H231833   3.336   2.644   0.601 -0.0298  0.9859 -0.9863
 3448TIP3   OH231834   3.152   1.759  13.416 -0.5041  0.3295  0.0667
 3448TIP3    H131835   3.216   1.827  13.394  1.9650 -0.4323  3.9331
 3448TIP3    H231836   3.108   1.791  13.494 -1.6830 -1.1337  0.0467
 3449TIP3   OH231837   3.697   4.319   4.221 -0.1767 -0.2291  0.1366
 3449TIP3    H131838   3.665   4.386   4.281 -0.0483 -0.0938  0.0546
 3449TIP3    H231839   3.780   4.291   4.259 -0.4655 -0.6910  0.4334
 3450TIP3   OH231840   2.851   2.706   0.071  0.3808  0.7112  0.2313
 3450TIP3    H131841   2.790   2.739   0.005 -0.1462  1.6381  1.1581
 3450TIP3    H231842   2.926   2.675   0.020 -0.8400 -0.4848 -0.9363
 3451TIP3   OH231843   5.972   0.671   3.065  0.3115  0.6999 -0.0697
 3451TIP3    H131844   6.043   0.642   3.122 -0.4056  0.9426  0.9786
 3451TIP3    H231845   6.012   0.680   2.979  1.7465  1.5847  0.6557
 3452TIP3   OH231846   0.966   5.510   0.726 -0.1324  0.4123  0.4078
 3452TIP3    H131847   0.975   5.558   0.643 -1.2100  1.4734  0.8797
 3452TIP3    H231848   1.056   5.492   0.753  0.3947  2.9091  0.6040
 3453TIP3   OH231849   5.175   2.293  11.619  0.2870  0.3688  0.3732
 3453TIP3    H131850   5.120   2.370  11.603  0.7437  1.0190  1.7946
 3453TIP3    H231851   5.181   2.250  11.534 -0.1385  1.8022 -0.4092
 3454TIP3   OH231852   4.269   2.066   2.334 -0.7282 -0.3244  0.5133
 3454TIP3    H131853   4.194   2.119   2.307 -1.5695 -1.4415  0.5594
 3454TIP3    H231854   4.246   1.977   2.307  1.1489 -0.5210 -0.6190
 3455TIP3   OH231855   4.662   5.160  12.906  0.5352  0.4982  0.3099
 3455TIP3    H131856   4.671   5.102  12.981  0.8193 -0.3829 -0.3953
 3455TIP3    H231857   4.573   5.194  12.912  0.3978  0.0605  0.7771
 3456TIP3   OH231858   1.519   3.601  17.259 -0.0906 -0.1981 -0.3699
 3456TIP3    H131859   1.569   3.637  17.332  1.3513 -0.9148 -0.9627
 3456TIP3    H231860   1.441   3.564  17.300  0.3396  0.0499  0.7214
 3457TIP3   OH231861   2.260   3.295  13.488 -0.2709 -0.1663 -0.3892
 3457TIP3    H131862   2.179   3.262  13.525  1.0458 -2.3357  0.7327
 3457TIP3    H231863   2.233   3.370  13.435 -2.8637 -0.2388  0.6874
 3458TIP3   OH231864   0.592   4.566   4.184 -0.2556 -0.1434  0.2725
 3458TIP3    H131865   0.576   4.472   4.172 -0.3577 -0.1982  0.8135
 3458TIP3    H231866   0.647   4.571   4.261  2.5072  0.0520 -1.5785
 3459TIP3   OH231867   4.967   3.469   2.945 -0.0006  0.2449  0.6262
 3459TIP3    H131868   5.037   3.422   2.900  0.8449  2.4058 -0.4469
 3459TIP3    H231869   4.971   3.437   3.035  0.9642 -1.1952  0.1178
 3460TIP3   OH231870   2.467   6.634   4.664  0.1125 -0.6505  0.3192
 3460TIP3    H131871   2.498   6.721   4.688  0.2760 -0.7522  0.4852
 3460TIP3    H231872   2.506   6.576   4.729 -0.1707 -0.8221  0.3364
 3461TIP3   OH231873   1.742   1.035   2.860 -0.1546  0.1482 -0.2502
 3461TIP3    H131874   1.753   1.125   2.891 -0.3021  0.4849 -1.1565
 3461TIP3    H231875   1.652   1.030   2.831 -0.2047 -0.3616 -0.0214
 3462TIP3   OH231876   2.361   5.177   1.389 -0.1336 -0.4752 -0.1682
 3462TIP3    H131877   2.424   5.114   1.422  1.1160  1.4540  1.3276
 3462TIP3    H231878   2.405   5.219   1.315  0.0807  0.4071  0.4517
 3463TIP3   OH231879   1.536   1.635  12.514 -0.1039  0.0801 -0.7632
 3463TIP3    H131880   1.443   1.655  12.525  0.1337  1.6615 -1.2834
 3463TIP3    H231881   1.575   1.718  12.485  1.0031 -1.2237 -3.3883
 3464TIP3   OH231882   4.219   4.612  13.743  0.1291 -0.0447 -1.0455
 3464TIP3    H131883   4.222   4.683  13.808 -1.1641  2.4947 -3.5190
 3464TIP3    H231884   4.133   4.572  13.756  0.6704 -0.9100  0.0471
 3465TIP3   OH231885   1.958   0.712   0.040 -0.4335  0.0386  0.0481
 3465TIP3    H131886   2.042   0.750   0.066  1.4846 -2.5209 -1.8764
 3465TIP3    H231887   1.939   0.752  -0.045 -0.7430 -0.0072  0.0945
 3466TIP3   OH231888   6.725   0.130   2.475 -0.3141  0.4679 -0.0463
 3466TIP3    H131889   6.820   0.120   2.488 -0.3522  0.0784 -0.0726
 3466TIP3    H231890   6.718   0.190   2.401 -0.0910  0.7995  0.1913
 3467TIP3   OH231891   6.627   1.977   3.281 -0.6717 -0.2199  0.1003
 3467TIP3    H131892   6.663   1.996   3.368  0.8574  1.3803 -0.8252
 3467TIP3    H231893   6.699   1.934   3.234 -1.0978 -0.0418 -0.7262
 3468TIP3   OH231894   0.153   1.229  15.211 -0.2976  0.0229 -0.4286
 3468TIP3    H131895   0.111   1.277  15.139 -0.2313 -0.5805 -0.8833
 3468TIP3    H231896   0.238   1.204  15.177  0.0572  0.4167  0.1551
 3469TIP3   OH231897   6.424   6.630  10.789 -0.0347  0.2660 -0.1372
 3469TIP3    H131898   6.416   6.714  10.742 -0.4799 -0.5228 -1.5437
 3469TIP3    H231899   6.338   6.589  10.778  0.4004 -0.6792 -0.0861
 3470TIP3   OH231900   4.253   3.385  15.746  0.4778  0.3557 -0.2321
 3470TIP3    H131901   4.164   3.418  15.752 -0.6614 -2.4833  0.0978
 3470TIP3    H231902   4.307   3.462  15.730 -2.3101  1.9327 -3.2460
 3471TIP3   OH231903   1.766   3.051   4.193 -0.2285 -0.4964  0.3054
 3471TIP3    H131904   1.768   2.992   4.117 -0.4445 -1.2513  0.8774
 3471TIP3    H231905   1.850   3.036   4.237 -0.2823 -0.3651  0.4521
 3472TIP3   OH231906   1.626   5.463  13.022  0.0569 -0.2831  0.2583
 3472TIP3    H131907   1.660   5.431  12.938  0.6554 -0.2884  0.4939
 3472TIP3    H231908   1.635   5.558  13.016  0.0022 -0.2774  0.2705
 3473TIP3   OH231909   3.140   6.196  14.811  0.6039  0.4951  0.9492
 3473TIP3    H131910   3.225   6.207  14.854  0.2622 -0.3784  1.8757
 3473TIP3    H231911   3.085   6.265  14.849  1.7013  3.3077 -2.0314
 3474TIP3   OH231912   5.677   4.609   2.303  0.1987  0.3173 -1.2501
 3474TIP3    H131913   5.720   4.538   2.255 -1.1010 -0.1607 -1.7498
 3474TIP3    H231914   5.584   4.592   2.292 -0.1326  1.1773  0.0304
 3475TIP3   OH231915   4.241   3.104  15.819  0.1498 -0.5816  0.2333
 3475TIP3    H131916   4.253   3.195  15.793  0.4824  0.0639  2.4113
 3475TIP3    H231917   4.268   3.053  15.743 -1.4353  1.1170 -1.5783
 3476TIP3   OH231918   4.704   4.629  11.189 -0.5102  0.6983  0.1243
 3476TIP3    H131919   4.616   4.652  11.159 -1.2213 -1.0802  0.7124
 3476TIP3    H231920   4.756   4.708  11.176 -2.1601  1.7302 -0.3908
 3477TIP3   OH231921   0.812   0.636  14.914 -0.6561  0.2524 -0.3119
 3477TIP3    H131922   0.766   0.708  14.957 -0.0813 -0.0823  0.9119
 3477TIP3    H231923   0.866   0.678  14.848 -0.9074  0.8693 -0.1300
 3478TIP3   OH231924   0.128   3.525   2.520 -0.3910  0.1723  0.0630
 3478TIP3    H131925   0.132   3.452   2.581  1.4941 -1.3414 -1.7148
 3478TIP3    H231926   0.193   3.587   2.552  0.6544 -0.6567 -0.3809
 3479TIP3   OH231927   0.348   0.913  14.266 -0.3104  0.4851  0.7402
 3479TIP3    H131928   0.295   0.925  14.345 -0.7438 -1.0293  0.7182
 3479TIP3    H231929   0.285   0.889  14.198  0.3092 -0.7253  0.5595
 3480TIP3   OH231930   2.244   2.951  11.048 -0.7817  0.3415  0.4363
 3480TIP3    H131931   2.158   2.918  11.024 -0.0543 -0.4742 -1.2980
 3480TIP3    H231932   2.246   3.041  11.014 -0.4040 -0.2039 -1.0941
 3481TIP3   OH231933   0.231   1.580  11.555 -0.2827 -0.0598  1.3741
 3481TIP3    H131934   0.137   1.591  11.538 -0.1492  1.6776  1.6263
 3481TIP3    H231935   0.266   1.668  11.555  1.7939 -0.7881 -0.8606
 3482TIP3   OH231936   6.042   4.062  13.996 -0.4811 -0.0952 -0.5852
 3482TIP3    H131937   6.056   4.077  13.902 -0.1848  0.5162 -0.4521
 3482TIP3    H231938   5.974   3.996  14.000  0.9164 -1.6412 -1.2538
 3483TIP3   OH231939   5.940   0.200   1.762  0.3267  0.7722 -0.1934
 3483TIP3    H131940   5.866   0.140   1.751  0.8384  0.3498 -1.5008
 3483TIP3    H231941   5.900   0.286   1.772 -0.3949  0.3340  1.0384
 3484TIP3   OH231942   3.301   0.669  16.510 -0.1525 -0.1626 -0.1859
 3484TIP3    H131943   3.235   0.621  16.461  0.8357 -1.5671 -0.2192
 3484TIP3    H231944   3.295   0.759  16.477 -1.4217 -0.4538 -0.8065
 3485TIP3   OH231945   0.349   3.248  12.730  0.0757 -0.9442  0.7459
 3485TIP3    H131946   0.381   3.230  12.642  2.0972  1.5204  0.8590
 3485TIP3    H231947   0.367   3.168  12.779  0.4970 -1.7540 -0.6658
 3486TIP3   OH231948   2.249   0.476  11.773 -0.1539 -0.3114 -0.3506
 3486TIP3    H131949   2.177   0.412  11.774 -0.9653  0.5564 -1.3705
 3486TIP3    H231950   2.271   0.487  11.681  0.9250 -0.1383 -0.0914
 3487TIP3   OH231951   0.708   3.058  16.170 -0.1624  0.2738 -0.5422
 3487TIP3    H131952   0.791   3.103  16.157 -0.1086  0.5440  0.6461
 3487TIP3    H231953   0.694   3.058  16.265 -0.8498 -0.9800 -0.6119
 3488TIP3   OH231954   3.964   5.519   2.600  0.1895  0.1527 -0.0003
 3488TIP3    H131955   3.934   5.530   2.510  0.2704  0.5177  0.0168
 3488TIP3    H231956   3.913   5.446   2.634  0.8587 -0.6348 -0.6546
 3489TIP3   OH231957   0.345   3.307   0.855 -0.0689  0.0155  0.1616
 3489TIP3    H131958   0.346   3.332   0.763  0.0552  1.9473  0.6550
 3489TIP3    H231959   0.282   3.366   0.897  1.6083  0.8165  1.7110
 3490TIP3   OH231960   0.820   0.296  13.078 -0.6614 -0.3486  1.4792
 3490TIP3    H131961   0.895   0.241  13.100 -0.7027 -0.2114  1.9841
 3490TIP3    H231962   0.762   0.240  13.027  0.9405  0.2589 -1.1853
 3491TIP3   OH231963   5.157   5.243   4.187 -0.0595 -0.3040  0.0256
 3491TIP3    H131964   5.244   5.222   4.154 -0.4849 -0.6436 -0.9440
 3491TIP3    H231965   5.108   5.161   4.178  0.3723 -1.1473  3.7148
 3492TIP3   OH231966   0.371   4.200   1.647 -0.5585  0.2734  0.0806
 3492TIP3    H131967   0.452   4.155   1.623 -0.6486  0.0708  0.1501
 3492TIP3    H231968   0.303   4.153   1.598 -0.4695  1.3551 -1.1133
 3493TIP3   OH231969   6.692   5.573  13.066 -0.1272 -0.1398 -0.0924
 3493TIP3    H131970   6.705   5.517  12.990 -1.6678 -0.3733 -0.2213
 3493TIP3    H231971   6.687   5.512  13.140 -0.0158 -0.0314  0.0042
 3494TIP3   OH231972   6.199   1.070   4.261 -0.7372  0.3927 -0.0009
 3494TIP3    H131973   6.271   1.018   4.297 -2.5539 -1.6974  0.8807
 3494TIP3    H231974   6.225   1.086   4.170  0.0759 -1.9157 -0.2594
 3495TIP3   OH231975   1.314   5.004   3.049 -0.3006 -0.1554 -0.5087
 3495TIP3    H131976   1.400   5.035   3.076  0.1590  0.2563 -2.3035
 3495TIP3    H231977   1.316   5.006   2.953 -2.6543  0.8410 -0.6260
 3496TIP3   OH231978   5.462   3.300   0.199 -0.4575 -0.1569 -0.2008
 3496TIP3    H131979   5.512   3.356   0.140  1.1776 -0.8077  0.5232
 3496TIP3    H231980   5.386   3.273   0.147 -0.3387  1.2510 -1.1544
 3497TIP3   OH231981   2.945   6.068   1.244 -0.2619 -0.5401 -0.0585
 3497TIP3    H131982   2.868   6.080   1.189  0.4125 -3.5339 -1.8894
 3497TIP3    H231983   3.002   6.141   1.221 -1.1659 -0.1690 -1.2442
 3498TIP3   OH231984   3.411   3.757   9.970  0.9439 -0.2861 -0.0940
 3498TIP3    H131985   3.355   3.684   9.997  2.4497 -1.2763  0.4927
 3498TIP3    H231986   3.381   3.832  10.023  1.4178 -1.2887  1.7002
 3499TIP3   OH231987   4.462   4.062  13.771  0.2303 -0.3579  0.1847
 3499TIP3    H131988   4.407   4.030  13.842  0.1726 -0.1723  0.2242
 3499TIP3    H231989   4.523   3.990  13.754 -0.2172 -0.6775 -0.0628
 3500TIP3   OH231990   4.176   2.344  16.025  0.9925  0.1593 -0.2963
 3500TIP3    H131991   4.083   2.327  16.012  0.5387 -0.5208  2.9124
 3500TIP3    H231992   4.218   2.260  16.004  0.5507 -0.3300  0.7127
 3501TIP3   OH231993   4.704   5.399   0.440 -0.1867 -0.2272  0.1390
 3501TIP3    H131994   4.663   5.391   0.354  1.0121  0.0692 -0.4738
 3501TIP3    H231995   4.695   5.492   0.462 -0.5918 -0.3227  0.4003
 3502TIP3   OH231996   6.397   5.576   4.042 -0.0700 -0.1044 -0.4249
 3502TIP3    H131997   6.314   5.613   4.012 -1.3613 -1.7592  0.8673
 3502TIP3    H231998   6.422   5.515   3.974 -0.4896 -0.3617 -0.3567
 3503TIP3   OH231999   6.356   4.820   5.819 -0.0374  0.1877  0.0173
 3503TIP3    H132000   6.370   4.913   5.835 -1.9208  0.7003 -1.0876
 3503TIP3    H232001   6.401   4.776   5.892  1.4091  1.8971  0.2104
 3504TIP3   OH232002   2.530   6.769   5.086 -0.4253 -0.2065  0.1973
 3504TIP3    H132003   2.604   6.809   5.133 -0.2949 -0.8804  0.5761
 3504TIP3    H232004   2.483   6.843   5.047  1.0716  0.1737 -0.9875
 3505TIP3   OH232005   1.469   1.523   0.245  0.3519  0.1396  0.3639
 3505TIP3    H132006   1.402   1.457   0.263 -2.1876  2.8613  1.8008
 3505TIP3    H232007   1.518   1.530   0.327  2.7795 -2.0616 -0.7796
 3506TIP3   OH232008   3.989   1.095  16.634  0.3004  0.4216 -0.4413
 3506TIP3    H132009   4.052   1.059  16.698 -0.6535  1.5106  1.1750
 3506TIP3    H232010   4.030   1.175  16.603  0.2623  0.4882 -0.3214
 3507TIP3   OH232011   5.991   2.333   4.084  0.2863 -0.6602 -0.4243
 3507TIP3    H132012   6.051   2.376   4.022  2.7816 -1.5902  1.2146
 3507TIP3    H232013   6.028   2.246   4.097 -1.7923 -1.5017  0.2703
 3508TIP3   OH232014   6.735   4.980   0.824  0.5807  0.3974  0.7129
 3508TIP3    H132015   6.659   4.923   0.817 -0.6799  2.0054  0.7162
 3508TIP3    H232016   6.800   4.928   0.873  0.1480 -1.6152 -0.7085
 3509TIP3   OH232017   6.361   4.342   4.387  0.8778 -0.3248 -0.0859
 3509TIP3    H132018   6.320   4.277   4.444  0.2728 -1.2756 -1.5408
 3509TIP3    H232019   6.291   4.369   4.328  1.8177 -0.4485 -1.2987
 3510TIP3   OH232020   2.662   6.167  11.157 -0.1422  0.0812 -0.0705
 3510TIP3    H132021   2.721   6.238  11.132  0.0075 -0.4881 -1.4091
 3510TIP3    H232022   2.581   6.211  11.183  0.3890  0.7950  0.4282
 3511TIP3   OH232023   0.233   2.489  15.507 -0.2140  0.0169 -0.5021
 3511TIP3    H132024   0.262   2.578  15.529 -0.9815 -0.2404  1.8295
 3511TIP3    H232025   0.145   2.501  15.472 -1.9195  0.0460  3.3222
 3512TIP3   OH232026   5.101   5.553  10.712  0.4674 -0.4512 -0.1711
 3512TIP3    H132027   5.034   5.485  10.708 -1.0942  1.0356 -0.5055
 3512TIP3    H232028   5.077   5.614  10.642  1.3748  0.8162  0.5874
 3513TIP3   OH232029   0.916   3.728   5.918 -0.1672 -0.2535 -0.0394
 3513TIP3    H132030   0.839   3.759   5.966  1.6239  3.4670  0.7891
 3513TIP3    H232031   0.962   3.670   5.980 -0.7989 -0.1238  0.5566
 3514TIP3   OH232032   0.789   4.001   2.527 -0.0152  0.0713 -0.2754
 3514TIP3    H132033   0.822   4.071   2.584  1.4061 -0.2450 -0.6788
 3514TIP3    H232034   0.755   4.047   2.450 -0.2600  0.3818  0.0132
 3515TIP3   OH232035   3.920   4.883   4.933 -0.1916  0.0308  0.3163
 3515TIP3    H132036   3.902   4.902   4.841 -0.2802  0.4755  0.4214
 3515TIP3    H232037   3.833   4.878   4.974 -0.1266  1.3919  0.6713
 3516TIP3   OH232038   4.726   4.342   5.783  0.8514  0.0916  0.9049
 3516TIP3    H132039   4.744   4.260   5.829  0.4393  0.7319  2.2665
 3516TIP3    H232040   4.634   4.337   5.760  1.1065 -0.3158 -0.0560
 3517TIP3   OH232041   6.408   2.868   6.265 -0.7232  0.6396 -0.1957
 3517TIP3    H132042   6.345   2.937   6.241 -0.4766  0.9938  0.1769
 3517TIP3    H232043   6.410   2.869   6.360 -1.1259 -0.2579 -0.1662
 3518TIP3   OH232044   5.911   6.688   6.163 -0.6052 -0.0592  0.5038
 3518TIP3    H132045   5.963   6.751   6.212 -1.4529  0.1692  1.1444
 3518TIP3    H232046   5.967   6.610   6.155 -0.1899  0.1675  1.1938
 3519TIP3   OH232047   3.854   6.027  12.870  0.2813  0.4129  0.0258
 3519TIP3    H132048   3.906   6.017  12.791 -0.8056  0.2866 -0.6925
 3519TIP3    H232049   3.822   5.938  12.889 -2.3654  0.9473 -1.4679
 3520TIP3   OH232050   5.997   5.345   4.785  0.1832 -0.3717  0.3083
 3520TIP3    H132051   5.923   5.334   4.845  0.2686  0.1928  0.5204
 3520TIP3    H232052   5.999   5.439   4.767  2.8176  0.1581  2.8224
 3521TIP3   OH232053   5.982   1.320   4.502  0.1693  0.2400  0.0333
 3521TIP3    H132054   5.940   1.385   4.445 -0.3999 -0.8538 -0.8553
 3521TIP3    H232055   5.910   1.271   4.540  0.5396  1.0461  1.8812
 3522TIP3   OH232056   1.781   1.514  11.796 -0.3325 -0.2729  0.0581
 3522TIP3    H132057   1.812   1.507  11.886 -1.0572  2.7629  0.6237
 3522TIP3    H232058   1.844   1.462  11.746  1.2244 -0.4431  2.0679
 3523TIP3   OH232059   4.730   2.322   0.822 -0.3381 -0.2497  0.6317
 3523TIP3    H132060   4.763   2.234   0.802 -0.4461  0.5228 -4.0323
 3523TIP3    H232061   4.809   2.375   0.834 -0.0232 -0.1189 -1.6122
 3524TIP3   OH232062   6.488   2.639  12.912 -0.1460  0.0500 -0.4231
 3524TIP3    H132063   6.562   2.687  12.949 -0.2168 -0.7885  0.8699
 3524TIP3    H232064   6.526   2.580  12.847  0.4901 -1.1486  0.9906
 3525TIP3   OH232065   5.577   4.408  15.321  0.0204 -0.3324  0.2989
 3525TIP3    H132066   5.623   4.482  15.280  1.2023 -1.2142 -0.0348
 3525TIP3    H232067   5.647   4.350  15.349 -0.8982 -2.0656 -0.8445
 3526TIP3   OH232068   5.961   2.646   4.827 -0.3751 -0.5120 -0.7011
 3526TIP3    H132069   6.005   2.562   4.837  0.9000  0.0335 -1.4422
 3526TIP3    H232070   5.975   2.671   4.736 -0.4523  0.6452 -0.4222
 3527TIP3   OH232071   0.636   4.646  14.105 -0.2317  0.2875  0.4893
 3527TIP3    H132072   0.561   4.587  14.098 -0.4904  0.3847  2.0781
 3527TIP3    H232073   0.598   4.733  14.114  0.1167  0.4816  0.1732
 3528TIP3   OH232074   4.124   4.320  13.849 -0.4656  0.3380 -0.3894
 3528TIP3    H132075   4.188   4.386  13.822 -0.4360  0.6814  0.4878
 3528TIP3    H232076   4.060   4.369  13.902 -1.4850  0.0077 -1.2778
 3529TIP3   OH232077   1.035   6.601  11.469  0.5470  0.5103 -0.1114
 3529TIP3    H132078   1.107   6.649  11.428 -0.1993  1.9248  0.1801
 3529TIP3    H232079   0.979   6.574  11.396 -0.1365  1.9595 -0.1591
 3530TIP3   OH232080   3.677   0.242   2.814 -0.3028  0.6775  0.4612
 3530TIP3    H132081   3.633   0.208   2.892 -0.3834  0.2358  0.2304
 3530TIP3    H232082   3.735   0.311   2.847 -0.1549  0.3324  0.9448
 3531TIP3   OH232083   5.447   5.777   3.672  0.0209  0.4946 -0.0264
 3531TIP3    H132084   5.400   5.834   3.733 -0.5513 -0.4740  0.4798
 3531TIP3    H232085   5.536   5.773   3.705 -0.3168 -0.1226  0.8405
 3532TIP3   OH232086   4.486   3.257  16.659 -0.4670 -0.4563 -0.2068
 3532TIP3    H132087   4.397   3.238  16.690 -0.3163 -0.6859  0.0890
 3532TIP3    H232088   4.486   3.227  16.568 -1.7511  2.7211 -1.3824
 3533TIP3   OH232089   6.028   5.384  13.196 -0.2818  0.1774 -0.0465
 3533TIP3    H132090   5.963   5.314  13.204  0.4291 -0.6095 -0.8417
 3533TIP3    H232091   6.022   5.413  13.105  0.6088 -0.0634 -0.1998
 3534TIP3   OH232092   4.235   3.468  14.725  0.2463 -0.2695 -0.1992
 3534TIP3    H132093   4.219   3.471  14.631  0.0090  0.3991 -0.1408
 3534TIP3    H232094   4.156   3.505  14.765  0.0779 -1.1423  0.2941
 3535TIP3   OH232095   2.745   1.993  11.355 -0.1377  0.2235 -0.5380
 3535TIP3    H132096   2.805   1.962  11.288  0.2511  1.3882 -0.7571
 3535TIP3    H232097   2.658   1.975  11.320  0.0639 -0.8075 -0.5416
 3536TIP3   OH232098   3.651   2.227  11.953 -0.1943 -0.4753 -0.5669
 3536TIP3    H132099   3.603   2.156  11.910 -0.1982 -0.1871 -1.0508
 3536TIP3    H232100   3.584   2.290  11.979 -0.0665  0.1346 -1.6327
 3537TIP3   OH232101   2.843   1.044  12.570  0.0302 -0.3062 -0.2459
 3537TIP3    H132102   2.813   0.957  12.597 -1.5851  0.4035  0.3655
 3537TIP3    H232103   2.850   1.038  12.475 -1.3902 -0.7406 -0.3497
 3538TIP3   OH232104   2.916   4.497  11.088  0.5383  0.3106  0.6416
 3538TIP3    H132105   2.919   4.498  10.993  1.5611  1.4612  0.6601
 3538TIP3    H232106   2.827   4.521  11.111  0.3695  0.3114 -0.0190
 3539TIP3   OH232107   0.370   2.849  13.587  0.0599 -0.3564 -0.4206
 3539TIP3    H132108   0.456   2.808  13.591 -0.1669 -0.9630 -1.5371
 3539TIP3    H232109   0.328   2.812  13.510  0.4461  3.1313 -2.5322
 3540TIP3   OH232110   6.315   2.832   1.394 -0.1325 -0.7297 -0.0104
 3540TIP3    H132111   6.335   2.833   1.487  0.2774 -1.1095 -0.0945
 3540TIP3    H232112   6.353   2.914   1.361 -0.9432 -0.2233  0.2883
 3541TIP3   OH232113   0.690   4.599   1.950 -0.3355 -0.3443  0.4594
 3541TIP3    H132114   0.640   4.650   2.013 -0.4865 -0.3521  0.3467
 3541TIP3    H232115   0.626   4.571   1.885  0.1302  1.2440 -0.7336
 3542TIP3   OH232116   2.245   4.558  10.470 -0.5727  0.5746 -0.0577
 3542TIP3    H132117   2.187   4.484  10.485  1.8145 -1.2726  0.7821
 3542TIP3    H232118   2.255   4.599  10.556 -0.6660  0.9021 -0.2026
 3543TIP3   OH232119   4.145   5.521   2.212 -0.0382  0.2962 -0.2181
 3543TIP3    H132120   4.114   5.464   2.141  0.9696  0.5471 -0.8808
 3543TIP3    H232121   4.195   5.464   2.269  0.1610  0.3221 -0.3644
 3544TIP3   OH232122   6.282   0.418   6.670 -0.3597 -0.3573 -0.2592
 3544TIP3    H132123   6.276   0.376   6.584  2.8496  0.0964 -0.8067
 3544TIP3    H232124   6.247   0.506   6.656  0.5273 -0.1385 -1.2680
 3545TIP3   OH232125   5.394   5.607  14.785  0.5176 -0.3643  0.4853
 3545TIP3    H132126   5.438   5.548  14.724  0.6378  0.9546 -0.7424
 3545TIP3    H232127   5.466   5.648  14.834  0.5489  0.1697  0.0011
 3546TIP3   OH232128   4.465   1.845  12.760  0.0092  0.4995 -0.1636
 3546TIP3    H132129   4.489   1.755  12.736 -1.8213 -0.2467  0.6005
 3546TIP3    H232130   4.469   1.846  12.855  2.1219  1.9060 -0.2108
 3547TIP3   OH232131   0.633   5.292  15.963  0.2460 -0.0517 -0.4017
 3547TIP3    H132132   0.585   5.241  15.897 -0.1563  0.8402 -0.8125
 3547TIP3    H232133   0.725   5.278  15.941  0.1087  0.6704 -1.5068
 3548TIP3   OH232134   5.296   3.467  12.119 -0.0330 -0.3472 -0.7450
 3548TIP3    H132135   5.368   3.451  12.180 -0.6860  1.6121  0.6232
 3548TIP3    H232136   5.291   3.386  12.068  1.1813 -1.7088  1.1220
 3549TIP3   OH232137   0.208   4.055   1.495  0.5667  0.4033 -0.0667
 3549TIP3    H132138   0.114   4.071   1.491 -0.3503 -3.1702  2.0873
 3549TIP3    H232139   0.217   3.960   1.490  4.1803  0.6193 -0.8627
 3550TIP3   OH232140   2.716   6.070   1.858 -0.1806 -0.4555 -0.6118
 3550TIP3    H132141   2.629   6.057   1.895  0.9518  0.8628  2.9628
 3550TIP3    H232142   2.721   6.164   1.842  1.5465  0.1650  2.5717
 3551TIP3   OH232143   1.952   1.321   5.476  0.4474 -0.3140 -0.2580
 3551TIP3    H132144   1.932   1.322   5.383 -0.5978  1.9577 -0.0657
 3551TIP3    H232145   1.950   1.228   5.500 -3.3970 -0.7923 -1.6853
 3552TIP3   OH232146   2.189   2.396   6.236  0.1692  0.3973  0.2492
 3552TIP3    H132147   2.096   2.373   6.227  0.7541 -1.7768 -1.1040
 3552TIP3    H232148   2.192   2.490   6.222 -1.8390  0.5566  0.5350
 3553TIP3   OH232149   1.909   1.822   1.342  0.1337 -0.6795  0.1885
 3553TIP3    H132150   1.855   1.772   1.281  0.3799  2.4397 -2.9463
 3553TIP3    H232151   1.996   1.820   1.303  0.7095  0.0339  1.3990
 3554TIP3   OH232152   4.691   1.305   0.398 -0.0888  0.0312 -0.2269
 3554TIP3    H132153   4.600   1.311   0.427 -0.0740 -0.4577 -0.0684
 3554TIP3    H232154   4.699   1.216   0.363  0.5844 -0.2805  0.6748
 3555TIP3   OH232155   4.163   4.382   3.004  0.3273 -0.4428 -0.1425
 3555TIP3    H132156   4.237   4.355   2.949  1.0883  0.5206  0.3629
 3555TIP3    H232157   4.116   4.446   2.951  0.4898 -0.2536 -0.0618
 3556TIP3   OH232158   6.338   2.115   5.039  0.3734  0.1256  0.2688
 3556TIP3    H132159   6.342   2.025   5.071 -4.0413 -1.1684 -1.9861
 3556TIP3    H232160   6.316   2.167   5.117 -1.6427 -1.5676  0.9449
 3557TIP3   OH232161   4.788   2.770  13.576 -0.2758  0.7152  0.2391
 3557TIP3    H132162   4.838   2.702  13.531 -3.2619 -2.1689  0.8213
 3557TIP3    H232163   4.807   2.756  13.669 -0.1120  1.4089  0.3158
 3558TIP3   OH232164   4.633   5.984  14.604  0.1286  0.3216 -0.3729
 3558TIP3    H132165   4.690   6.016  14.533 -2.3774  2.5560 -1.5583
 3558TIP3    H232166   4.597   5.902  14.570  2.3080 -0.9941  0.2935
 3559TIP3   OH232167   5.626   2.520  14.796  0.3627 -0.2743  0.2041
 3559TIP3    H132168   5.617   2.448  14.733  0.5643 -0.3392  0.2484
 3559TIP3    H232169   5.606   2.598  14.745  2.0559 -0.1674 -0.3605
 3560TIP3   OH232170   3.069   5.750  14.484 -0.1010 -0.9046 -0.0432
 3560TIP3    H132171   3.096   5.827  14.434 -0.0233 -1.3439 -0.6927
 3560TIP3    H232172   2.975   5.743  14.467  0.0215 -1.3604 -0.5697
 3561TIP3   OH232173   2.238   3.204   3.185  0.9218  0.1340  0.6863
 3561TIP3    H132174   2.164   3.257   3.156  1.7045 -0.1398 -2.0771
 3561TIP3    H232175   2.312   3.265   3.187  0.9960  0.0263  1.7068
 3562TIP3   OH232176   2.667   5.290  13.960 -0.4299  0.0663  0.5720
 3562TIP3    H132177   2.698   5.303  14.050 -0.9915  1.0716  0.6416
 3562TIP3    H232178   2.604   5.218  13.966 -1.7066  1.1841  1.3067
 3563TIP3   OH232179   3.261   1.033   1.701 -0.3236  0.2111  0.2264
 3563TIP3    H132180   3.302   1.064   1.782  2.2127 -2.2598  0.0476
 3563TIP3    H232181   3.208   0.959   1.729 -2.6675  1.7294  0.0579
 3564TIP3   OH232182   4.344   2.382   6.664 -0.3946 -0.7693  0.2467
 3564TIP3    H132183   4.300   2.464   6.640  1.0003 -0.2364 -0.6011
 3564TIP3    H232184   4.274   2.327   6.699 -1.9223 -0.2667 -1.8337
 3565TIP3   OH232185   3.954   0.250   1.178  0.2243  0.1282  0.3580
 3565TIP3    H132186   3.922   0.287   1.260 -0.0456 -0.8681  0.7202
 3565TIP3    H232187   3.882   0.195   1.147  0.8436 -0.5959  0.1700
 3566TIP3   OH232188   6.050   2.419  12.193  0.2305  0.4045 -0.2806
 3566TIP3    H132189   6.017   2.485  12.133 -1.3024  0.3627  0.4733
 3566TIP3    H232190   5.973   2.389  12.242  0.9274 -1.6304 -0.2957
 3567TIP3   OH232191   6.188   4.338  12.725  0.3303  0.3449  0.1803
 3567TIP3    H132192   6.155   4.301  12.806 -0.3895  1.0173  0.2059
 3567TIP3    H232193   6.277   4.303  12.717 -0.7636 -2.5410 -0.5345
 3568TIP3   OH232194   3.395   6.561  16.668  0.4608  0.1460 -0.0411
 3568TIP3    H132195   3.349   6.520  16.595  2.1894 -0.9490 -0.5583
 3568TIP3    H232196   3.452   6.493  16.702  0.9605  1.1614  1.2450
 3569TIP3   OH232197   4.124   4.531  13.422  0.5142  0.0909  0.2428
 3569TIP3    H132198   4.105   4.611  13.471 -0.1012 -0.5057  1.0193
 3569TIP3    H232199   4.062   4.467  13.457 -1.1478  0.0608 -2.5391
 3570TIP3   OH232200   4.144   4.326  12.142 -0.0867 -0.1867  0.4840
 3570TIP3    H132201   4.198   4.263  12.095 -2.9267 -2.0286 -0.5608
 3570TIP3    H232202   4.183   4.330  12.229  3.2088  0.6330 -0.8352
 3571TIP3   OH232203   5.280   1.629  12.949 -0.6103 -0.0618  0.0190
 3571TIP3    H132204   5.367   1.628  12.988 -1.2707 -0.2783  1.5710
 3571TIP3    H232205   5.292   1.595  12.861  1.2698  2.2529 -0.7195
 3572TIP3   OH232206   1.676   5.523   5.451 -0.2218 -0.0325  0.1573
 3572TIP3    H132207   1.696   5.617   5.451 -3.1473  0.7289 -1.8977
 3572TIP3    H232208   1.743   5.484   5.395 -1.7419  1.7516 -3.2456
 3573TIP3   OH232209   5.385   2.107   0.649 -0.6530  0.0428  0.2838
 3573TIP3    H132210   5.463   2.054   0.669 -0.4117 -1.0333 -2.9236
 3573TIP3    H232211   5.419   2.183   0.603 -1.4137 -0.1560 -0.6461
 3574TIP3   OH232212   2.701   5.739  11.434  0.0380 -0.1964 -0.4843
 3574TIP3    H132213   2.708   5.735  11.339 -0.2920  0.3388 -0.5338
 3574TIP3    H232214   2.733   5.654  11.464  0.0300 -0.4124 -1.0807
 3575TIP3   OH232215   3.116   2.390  17.020  0.2252 -0.0050 -0.2021
 3575TIP3    H132216   3.179   2.328  16.981  0.6485  1.3219 -1.7291
 3575TIP3    H232217   3.056   2.412  16.949 -1.0280 -0.0303  0.8154
 3576TIP3   OH232218   5.343   4.409  17.163 -0.2171  0.2709 -0.4510
 3576TIP3    H132219   5.268   4.371  17.209  0.2753 -0.2857 -0.0905
 3576TIP3    H232220   5.350   4.498  17.196  0.2471 -0.1756  0.7168
 3577TIP3   OH232221   2.123   4.188   5.063 -0.0162  0.4528  0.1581
 3577TIP3    H132222   2.183   4.249   5.107  0.6648 -0.3402  0.3593
 3577TIP3    H232223   2.167   4.103   5.070 -1.4668 -0.2597  0.8791
 3578TIP3   OH232224   0.381   0.105  13.171 -0.3187  0.1747 -0.7788
 3578TIP3    H132225   0.410   0.194  13.191  0.8445 -0.1065 -1.1521
 3578TIP3    H232226   0.333   0.113  13.089 -2.0888  0.7737  0.2500
 3579TIP3   OH232227   6.570   5.957  13.328 -0.0702 -0.6879  0.4521
 3579TIP3    H132228   6.524   5.982  13.407 -1.4765  0.9261 -0.7936
 3579TIP3    H232229   6.516   5.991  13.256  1.3236 -1.7435 -1.1963
 3580TIP3   OH232230   3.438   1.093  13.945  0.2194 -0.0292  0.5998
 3580TIP3    H132231   3.406   1.043  13.870 -1.2957  2.1924 -0.3312
 3580TIP3    H232232   3.437   1.031  14.018  0.3105 -1.8467 -0.8938
 3581TIP3   OH232233   1.779   5.848   5.875 -0.2553  0.4119  0.7441
 3581TIP3    H132234   1.824   5.917   5.923  0.3879  0.5433 -0.0315
 3581TIP3    H232235   1.706   5.893   5.832 -0.0105  0.5516  0.4754
 3582TIP3   OH232236   2.648   4.992  16.925  0.2091 -0.2175  0.1435
 3582TIP3    H132237   2.685   4.938  16.995  2.6062  0.2689 -0.6534
 3582TIP3    H232238   2.678   4.949  16.844  0.7868  1.3552 -0.5185
 3583TIP3   OH232239   2.214   5.855  11.891  0.3758 -0.2318  0.0845
 3583TIP3    H132240   2.247   5.784  11.946 -0.2869 -0.5968  0.0256
 3583TIP3    H232241   2.203   5.815  11.805  0.1490 -0.0198  0.0148
 3584TIP3   OH232242   2.326   2.427  13.819  0.5954  0.0275 -0.4770
 3584TIP3    H132243   2.282   2.505  13.786  0.4740 -1.0464 -3.0995
 3584TIP3    H232244   2.257   2.379  13.866 -0.8352 -0.9093 -3.2707
 3585TIP3   OH232245   2.174   1.144   1.091 -0.0101 -0.2130  0.9804
 3585TIP3    H132246   2.152   1.174   1.003 -0.4770 -1.7520  0.5391
 3585TIP3    H232247   2.100   1.088   1.115  1.1939 -1.6481  1.4222
 3586TIP3   OH232248   1.943   3.684  13.101  0.2691  0.5234  0.0695
 3586TIP3    H132249   1.901   3.600  13.086  2.2360 -0.4390 -0.3778
 3586TIP3    H232250   1.950   3.723  13.013 -1.2315  1.5106  0.3435
 3587TIP3   OH232251   0.370   0.309  15.713  0.3173  0.0622 -0.0927
 3587TIP3    H132252   0.297   0.360  15.680 -1.0453 -1.1783  0.8502
 3587TIP3    H232253   0.399   0.257  15.638  1.3808  1.7571 -0.9182
 3588TIP3   OH232254   4.999   0.719  12.069 -0.0280  0.2659  0.5314
 3588TIP3    H132255   5.068   0.689  12.010 -1.5161  0.6208 -1.5148
 3588TIP3    H232256   4.921   0.671  12.040 -0.5419 -0.7464  3.2955
 3589TIP3   OH232257   2.694   6.339   1.739 -0.0529 -0.1717  0.0394
 3589TIP3    H132258   2.700   6.415   1.797 -0.9850  2.0357 -2.5585
 3589TIP3    H232259   2.600   6.323   1.730  0.0958 -0.7865 -0.4704
 3590TIP3   OH232260   6.688   2.831   1.280  0.1185 -0.2426 -0.9024
 3590TIP3    H132261   6.671   2.860   1.190  0.0407 -1.2265 -1.2118
 3590TIP3    H232262   6.658   2.904   1.335 -1.1167 -0.1951 -1.6179
 3591TIP3   OH232263   6.710   2.085   6.424 -0.1463  0.3319 -0.0287
 3591TIP3    H132264   6.770   2.046   6.488  0.4024  0.2867 -0.5727
 3591TIP3    H232265   6.623   2.067   6.460 -0.0351 -3.0738 -1.1561
 3592TIP3   OH232266   3.284   4.409   0.376 -0.5188  0.2126 -0.1476
 3592TIP3    H132267   3.353   4.347   0.398 -0.3384  0.3310 -0.3805
 3592TIP3    H232268   3.203   4.358   0.383 -0.3652 -0.0715 -0.4027
 3593TIP3   OH232269   0.209   1.363  13.222 -0.2621  0.1536  0.4656
 3593TIP3    H132270   0.227   1.279  13.180 -1.0622 -0.4577  1.3059
 3593TIP3    H232271   0.193   1.424  13.150 -1.0660 -0.7420 -0.1252
 3594TIP3   OH232272   2.141   4.469  12.797 -0.0618  0.1184 -0.4351
 3594TIP3    H132273   2.221   4.444  12.751 -0.3311 -0.9277 -0.3772
 3594TIP3    H232274   2.071   4.424  12.750 -0.5779  0.7175 -0.2562
 3595TIP3   OH232275   6.512   1.689   4.107 -0.2316 -0.5945 -0.5171
 3595TIP3    H132276   6.488   1.688   4.200 -1.9168  1.5372 -0.8625
 3595TIP3    H232277   6.520   1.781   4.086  0.7487 -1.0659 -2.3844
 3596TIP3   OH232278   1.298   1.003  14.011  0.3637  0.6507  0.3515
 3596TIP3    H132279   1.272   0.912  13.995  1.4894  0.6515 -1.8429
 3596TIP3    H232280   1.305   1.009  14.107 -0.6741 -1.2826  0.6043
 3597TIP3   OH232281   5.069   1.029  15.438  0.0121  0.4394  0.1816
 3597TIP3    H132282   5.148   0.988  15.474 -0.6738 -0.1186  1.0754
 3597TIP3    H232283   5.031   0.962  15.381 -0.3957  0.3132  0.6012
 3598TIP3   OH232284   0.813   5.345   2.453 -0.5872 -0.1679 -0.0119
 3598TIP3    H132285   0.858   5.426   2.430  0.2358 -0.4151  0.6788
 3598TIP3    H232286   0.790   5.306   2.369  1.8620 -0.7882 -0.4792
 3599TIP3   OH232287   6.203   2.105   3.575  0.2772 -0.3375 -0.6036
 3599TIP3    H132288   6.118   2.112   3.533  1.1447  0.2030 -2.3632
 3599TIP3    H232289   6.185   2.113   3.669 -1.4443  1.2680 -1.0281
 3600TIP3   OH232290   4.720   4.006  11.049 -0.2392 -0.3631 -0.3198
 3600TIP3    H132291   4.814   4.003  11.033 -0.1089 -0.5754  0.4296
 3600TIP3    H232292   4.684   4.053  10.974  0.9913  3.9420  1.4346
 3601TIP3   OH232293   4.427   2.676  13.100  0.4983 -0.1759 -0.0192
 3601TIP3    H132294   4.519   2.655  13.082  0.6655  1.0190 -0.6663
 3601TIP3    H232295   4.422   2.771  13.091 -0.6672 -0.1579  0.6761
 3602TIP3   OH232296   3.602   2.103   0.917 -0.5261 -0.9891 -0.5456
 3602TIP3    H132297   3.563   2.026   0.959 -1.3825 -0.4203 -0.2810
 3602TIP3    H232298   3.692   2.076   0.899 -1.0410 -2.3598 -1.2482
 3603TIP3   OH232299   0.840   5.293   5.557  0.0374 -0.0330 -0.0590
 3603TIP3    H132300   0.876   5.204   5.550 -0.2770 -0.1473 -0.2420
 3603TIP3    H232301   0.873   5.338   5.479 -2.0474 -0.8030 -1.4685
 3604TIP3   OH232302   6.007   2.893   6.663  0.3746  0.5498  0.8707
 3604TIP3    H132303   5.917   2.864   6.671  0.0425  1.2184 -0.3099
 3604TIP3    H232304   6.003   2.972   6.609  1.6728  0.5492  0.7355
 3605TIP3   OH232305   2.691   1.921  12.723  0.7093  0.1407  0.4636
 3605TIP3    H132306   2.745   1.917  12.802  2.6945 -0.2455 -0.8572
 3605TIP3    H232307   2.737   1.982  12.666 -0.4674  0.0888 -0.5803
 3606TIP3   OH232308   4.907   3.776   3.597 -0.2120  0.3548  0.3422
 3606TIP3    H132309   4.851   3.701   3.578  0.8486 -0.3377 -0.2041
 3606TIP3    H232310   4.931   3.811   3.511 -0.0246  0.7921  0.5691
 3607TIP3   OH232311   0.365   3.312  12.033  0.2057 -0.6926  0.4425
 3607TIP3    H132312   0.287   3.347  11.991 -0.4437 -2.2351  0.3070
 3607TIP3    H232313   0.438   3.348  11.983 -0.4964 -1.1105 -0.9241
 3608TIP3   OH232314   4.229   4.397  11.846  0.2246 -0.1921 -0.1703
 3608TIP3    H132315   4.229   4.322  11.906  1.2438  1.5400  2.1538
 3608TIP3    H232316   4.318   4.401  11.812 -0.3911 -1.2646 -2.0352
 3609TIP3   OH232317   4.341   5.045  12.613  0.3655  0.4483 -0.4540
 3609TIP3    H132318   4.353   5.131  12.654 -2.7620  0.5025  0.5861
 3609TIP3    H232319   4.246   5.031  12.613  0.7796 -3.7004  0.8826
 3610TIP3   OH232320   4.199   5.234   4.349 -0.2928  0.2422  0.1086
 3610TIP3    H132321   4.293   5.217   4.353 -0.3240  0.2367  1.1085
 3610TIP3    H232322   4.169   5.221   4.439 -1.0321  1.4720  0.0548
 3611TIP3   OH232323   4.430   1.669  16.846  0.0256 -0.8899  0.3793
 3611TIP3    H132324   4.522   1.678  16.871  0.0601  0.5701 -0.1940
 3611TIP3    H232325   4.422   1.717  16.764 -1.8605  1.8018  1.9700
 3612TIP3   OH232326   1.942   6.555  15.141  0.3296  0.0532  0.0071
 3612TIP3    H132327   2.000   6.583  15.212  0.1298 -1.1897  0.6781
 3612TIP3    H232328   1.887   6.487  15.179 -1.4658  1.0554 -0.6730
 3613TIP3   OH232329   4.656   6.646   3.824  0.5067  0.3421 -0.3608
 3613TIP3    H132330   4.716   6.622   3.895  0.5089  0.1724 -0.4193
 3613TIP3    H232331   4.615   6.727   3.854  0.3009  0.1242 -0.0410
 3614TIP3   OH232332   0.652   0.970   2.923  0.4259  0.0368  0.3852
 3614TIP3    H132333   0.711   0.898   2.902 -0.8426 -2.0723  3.3872
 3614TIP3    H232334   0.564   0.934   2.906 -0.1909  1.3816  0.6400
 3615TIP3   OH232335   4.499   0.337  14.331  0.4327 -0.0111  0.2106
 3615TIP3    H132336   4.465   0.421  14.360 -1.4649 -0.4332 -0.6906
 3615TIP3    H232337   4.574   0.359  14.276  0.2567  1.0596  0.3788
 3616TIP3   OH232338   4.793   2.523   1.181 -0.5593  0.4542 -0.0246
 3616TIP3    H132339   4.863   2.544   1.242  0.2720 -1.9751 -0.0792
 3616TIP3    H232340   4.780   2.429   1.189 -1.3607  0.2644 -2.6285
 3617TIP3   OH232341   3.613   0.991   5.389 -0.0555  0.4307 -0.7087
 3617TIP3    H132342   3.583   0.905   5.358 -1.3075  0.7740 -0.4914
 3617TIP3    H232343   3.592   0.991   5.482 -0.2670  1.0617 -0.7566
 3618TIP3   OH232344   4.741   0.060   5.360  0.8925  0.2764  0.5097
 3618TIP3    H132345   4.810   0.002   5.392  0.7908 -1.9792 -2.8973
 3618TIP3    H232346   4.784   0.146   5.353  2.2659 -0.2704  1.7306
 3619TIP3   OH232347   4.864   2.143  11.653  0.7003 -0.3797 -0.3846
 3619TIP3    H132348   4.904   2.081  11.592  0.9359 -2.1828  1.4774
 3619TIP3    H232349   4.779   2.103  11.674 -0.2051  1.1779 -0.9323
 3620TIP3   OH232350   2.501   3.755   0.060 -0.1808  0.2741 -0.0531
 3620TIP3    H132351   2.539   3.678   0.018 -4.4047 -1.7110 -0.7374
 3620TIP3    H232352   2.487   3.817  -0.011 -1.6088 -0.5683 -0.5531
 3621TIP3   OH232353   4.434   0.062  15.566  0.0066  0.2245  0.2887
 3621TIP3    H132354   4.526   0.036  15.570 -0.3774 -1.2328  0.1094
 3621TIP3    H232355   4.403   0.028  15.481 -0.9412 -0.1771  0.7796
 3622TIP3   OH232356   2.617   4.205  12.817  0.8775 -0.2740  0.3452
 3622TIP3    H132357   2.656   4.131  12.863  0.7191 -0.5127  0.1004
 3622TIP3    H232358   2.648   4.196  12.727 -0.4136 -0.9619 -0.0551
 3623TIP3   OH232359   2.372   4.455  13.281  0.0541  0.3038  0.0888
 3623TIP3    H132360   2.301   4.393  13.301  0.9717 -0.7743  0.1514
 3623TIP3    H232361   2.352   4.488  13.194 -0.0070 -0.7655 -0.3182
 3624TIP3   OH232362   1.659   6.764   3.569  0.1874 -0.5931 -0.1395
 3624TIP3    H132363   1.707   6.835   3.528  1.6921  0.0413  2.5031
 3624TIP3    H232364   1.709   6.685   3.546  1.8812 -0.0791  1.5751
 3625TIP3   OH232365   6.036   5.020  15.396  0.5364  0.0431 -0.1492
 3625TIP3    H132366   6.021   4.944  15.340 -0.9076  0.3680 -0.2329
 3625TIP3    H232367   6.058   4.983  15.482 -2.0088 -0.5408  0.3218
 3626TIP3   OH232368   1.366   6.263  12.812 -0.1796  0.6500 -0.0110
 3626TIP3    H132369   1.274   6.246  12.792 -0.0429  0.8489 -0.8965
 3626TIP3    H232370   1.410   6.257  12.727  0.9732 -1.4625  0.6630
 3627TIP3   OH232371   3.467   5.057  13.564 -0.0785  0.2233 -0.5033
 3627TIP3    H132372   3.410   5.129  13.590 -1.2327 -1.0203  0.6026
 3627TIP3    H232373   3.454   5.049  13.469 -0.2117  1.2256 -0.5776
 3628TIP3   OH232374   0.562   6.286   3.915 -0.4413  0.7232 -0.3256
 3628TIP3    H132375   0.532   6.351   3.978 -0.1324  0.0587  0.5323
 3628TIP3    H232376   0.634   6.329   3.868  0.2446  0.7737  0.7257
 3629TIP3   OH232377   1.040   1.494   1.515  0.1703 -0.2803 -0.3831
 3629TIP3    H132378   0.956   1.455   1.537 -0.0411 -0.2461 -1.1338
 3629TIP3    H232379   1.105   1.427   1.539 -0.0459 -0.2359  0.3646
 3630TIP3   OH232380   1.457   1.609  14.656 -0.2330 -0.7105  0.4167
 3630TIP3    H132381   1.509   1.678  14.616  2.0466 -1.8251  1.2984
 3630TIP3    H232382   1.366   1.636  14.641  0.4961  0.4330 -2.7946
 3631TIP3   OH232383   1.758   3.469  17.290 -0.0674 -0.7619  0.4614
 3631TIP3    H132384   1.826   3.531  17.264 -0.4457  1.2121  3.6169
 3631TIP3    H232385   1.676   3.507  17.259 -0.1175 -0.7929  0.5530
 3632TIP3   OH232386   5.790   0.580  12.552  0.3280 -0.0217  0.0884
 3632TIP3    H132387   5.698   0.603  12.543  0.5547  0.6823 -0.5462
 3632TIP3    H232388   5.807   0.520  12.478  0.1875 -0.8068  0.6777
 3633TIP3   OH232389   2.677   3.955  15.854 -0.1143 -0.1331  0.1848
 3633TIP3    H132390   2.699   3.868  15.821 -2.8763 -1.7890  2.2265
 3633TIP3    H232391   2.708   3.954  15.945 -0.1166  1.0329  0.2039
 3634TIP3   OH232392   2.764   1.245   3.312  0.1480  0.4604  0.3857
 3634TIP3    H132393   2.694   1.303   3.281  0.9750  0.9524 -0.6152
 3634TIP3    H232394   2.731   1.157   3.299 -0.3103  0.6927 -0.0181
 3635TIP3   OH232395   5.203   0.826  11.642  0.2362  0.4817 -0.2150
 3635TIP3    H132396   5.284   0.779  11.623 -1.0490 -1.7169 -0.5483
 3635TIP3    H232397   5.194   0.821  11.737  0.5871  0.9660 -0.1479
 3636TIP3   OH232398   5.705   1.223   0.146 -0.5465 -0.1898 -0.1313
 3636TIP3    H132399   5.638   1.232   0.213 -0.5907  2.2220 -0.4201
 3636TIP3    H232400   5.704   1.130   0.123 -1.7083 -0.7559  1.9607
 3637TIP3   OH232401   6.219   0.955   4.980 -0.1285  0.4129 -0.2132
 3637TIP3    H132402   6.170   1.028   4.943 -0.5951  0.8307  1.2021
 3637TIP3    H232403   6.153   0.903   5.027  0.2524 -0.7480 -0.9157
 3638TIP3   OH232404   2.529   5.185   2.352 -0.7140  0.3589  0.6202
 3638TIP3    H132405   2.616   5.154   2.326 -0.8757 -0.1540  0.6851
 3638TIP3    H232406   2.534   5.192   2.447 -0.6407  0.6564  0.5965
 3639TIP3   OH232407   3.162   5.677  16.548  0.3853  0.1210  0.1155
 3639TIP3    H132408   3.126   5.626  16.476 -0.1713  1.1256 -0.3435
 3639TIP3    H232409   3.211   5.614  16.600 -1.7270 -1.2443  0.5721
 3640TIP3   OH232410   4.077   5.551  13.409 -0.2103  0.7429  0.7997
 3640TIP3    H132411   4.103   5.608  13.336 -1.0077 -0.3400 -0.3601
 3640TIP3    H232412   4.026   5.608  13.466  0.0937  1.5123  0.3301
 3641TIP3   OH232413   6.022   5.720  15.687 -0.0749 -0.1231 -0.0585
 3641TIP3    H132414   6.018   5.791  15.623 -0.5556 -0.2216 -0.1438
 3641TIP3    H232415   6.065   5.648  15.641  0.6157  0.1806  0.0977
 3642TIP3   OH232416   6.275   5.841   3.311 -0.7141 -0.4565 -0.0235
 3642TIP3    H132417   6.185   5.823   3.284 -1.1897 -1.0271  1.8409
 3642TIP3    H232418   6.327   5.774   3.267 -1.2425 -0.4307 -0.7088
 3643TIP3   OH232419   3.144   3.311   4.614 -0.3056 -0.2333 -0.8050
 3643TIP3    H132420   3.132   3.227   4.570  0.8115  0.4800 -2.6160
 3643TIP3    H232421   3.233   3.307   4.649 -0.8278 -0.3985  0.5457
 3644TIP3   OH232422   6.173   1.538  15.869  0.2325  0.2280  0.0931
 3644TIP3    H132423   6.268   1.527  15.864  0.1467 -0.1004 -1.5496
 3644TIP3    H232424   6.143   1.466  15.925  0.8446 -0.5312 -0.5241
 3645TIP3   OH232425   5.537   3.851   2.840 -0.1256  0.0997  0.1347
 3645TIP3    H132426   5.557   3.847   2.747 -0.0975  0.6222  0.1171
 3645TIP3    H232427   5.530   3.944   2.859  1.4612  0.0695  0.9981
 3646TIP3   OH232428   6.426   3.641   1.940 -0.3769 -0.0724  0.0369
 3646TIP3    H132429   6.435   3.572   2.005 -0.2910  0.5002  0.6482
 3646TIP3    H232430   6.401   3.596   1.859  1.0056 -0.9585  0.0761
 3647TIP3   OH232431   0.852   0.096   1.992 -0.2738  0.6785 -0.0277
 3647TIP3    H132432   0.778   0.060   1.943 -1.0794 -1.0226  2.2415
 3647TIP3    H232433   0.859   0.187   1.963 -3.7847  1.1417  0.2149
 3648TIP3   OH232434   3.469   0.782  13.812  0.2502 -0.1432 -0.0882
 3648TIP3    H132435   3.542   0.765  13.752 -1.6261 -1.5437 -2.1380
 3648TIP3    H232436   3.409   0.837  13.761 -2.0662 -2.5101 -0.1559
 3649TIP3   OH232437   4.644   0.322  15.766 -0.3017  0.6545 -0.4207
 3649TIP3    H132438   4.674   0.231  15.773  0.6724  1.0307  0.4819
 3649TIP3    H232439   4.556   0.315  15.728 -1.1808 -0.8517  1.6673
 3650TIP3   OH232440   4.192   1.250  12.035 -0.2512  0.4360  0.1677
 3650TIP3    H132441   4.157   1.175  11.987  1.2792 -1.4157  1.7525
 3650TIP3    H232442   4.124   1.272  12.098 -0.1423 -0.6091  0.6691
 3651TIP3   OH232443   1.788   6.067   5.392  0.2898 -0.6212 -0.1279
 3651TIP3    H132444   1.785   6.132   5.321 -0.7032  0.5458  0.9424
 3651TIP3    H232445   1.866   6.016   5.373  1.0300  0.7905 -1.1116
 3652TIP3   OH232446   3.741   0.983   4.910  0.4694 -0.2677 -0.3183
 3652TIP3    H132447   3.670   1.004   4.849 -0.3230  1.4872  1.1138
 3652TIP3    H232448   3.721   1.033   4.989  2.7359 -0.5572  0.5333
 3653TIP3   OH232449   0.004   3.180  14.067 -0.4752 -0.5180  0.4043
 3653TIP3    H132450   0.082   3.195  14.014 -1.0059 -0.5554 -0.4097
 3653TIP3    H232451   0.030   3.205  14.155  0.6944 -1.2959  0.3017
 3654TIP3   OH232452   0.609   3.915   6.434 -0.0893  0.3207 -0.5218
 3654TIP3    H132453   0.642   3.986   6.488 -2.1915 -0.1232  1.4806
 3654TIP3    H232454   0.656   3.837   6.466 -0.8553  0.1666  0.2765
 3655TIP3   OH232455   3.273   4.819   5.719  0.0149  0.2997 -0.8933
 3655TIP3    H132456   3.219   4.807   5.798  0.4813 -1.8724 -0.8465
 3655TIP3    H232457   3.214   4.862   5.657 -0.1195  2.8696  0.8350
 3656TIP3   OH232458   2.647   0.154  14.839  0.6640 -0.1615  0.1723
 3656TIP3    H132459   2.720   0.182  14.783  0.1961  2.5120  0.7358
 3656TIP3    H232460   2.569   0.180  14.791  0.1310 -1.3231  0.3934
 3657TIP3   OH232461   3.425   0.169   5.540  0.2980 -0.1477  0.5388
 3657TIP3    H132462   3.450   0.077   5.545 -1.1399 -0.5268  1.4810
 3657TIP3    H232463   3.329   0.167   5.543  0.2278  1.3501 -0.0582
 3658TIP3   OH232464   1.362   5.430  14.652  0.5201 -0.1660 -0.3617
 3658TIP3    H132465   1.358   5.340  14.620  0.0655  0.1718 -1.2699
 3658TIP3    H232466   1.415   5.476  14.587  1.2262  0.1079  0.3943
 3659TIP3   OH232467   5.432   0.625   1.124 -0.2547  0.3251  0.4314
 3659TIP3    H132468   5.500   0.687   1.098 -2.0795  3.5598  2.7516
 3659TIP3    H232469   5.386   0.604   1.043  1.6240  0.3986 -0.7044
 3660TIP3   OH232470   5.769   2.349   3.375 -0.3001  0.1233 -0.5566
 3660TIP3    H132471   5.705   2.296   3.327  0.0998 -2.2208  1.3014
 3660TIP3    H232472   5.718   2.396   3.440 -0.5272  1.2572 -1.5209
 3661TIP3   OH232473   3.743   6.504   6.138 -0.0751 -0.5034 -0.5481
 3661TIP3    H132474   3.803   6.438   6.173  0.5142 -0.4232 -1.3802
 3661TIP3    H232475   3.795   6.585   6.135 -1.2475  0.4380  1.9717
 3662TIP3   OH232476   3.440   1.844  11.560  0.3499  0.2978  0.7304
 3662TIP3    H132477   3.525   1.888  11.564  1.2357 -0.7912 -2.7249
 3662TIP3    H232478   3.394   1.887  11.488 -1.0859 -0.6543  1.0400
 3663TIP3   OH232479   0.138   3.402  11.917  0.9909  0.1494  0.2452
 3663TIP3    H132480   0.151   3.407  11.823  2.8556 -1.3910  0.3697
 3663TIP3    H232481   0.056   3.352  11.928  1.6307 -1.1157 -0.5675
 3664TIP3   OH232482   1.671   4.550  15.031 -0.3315 -0.0001 -0.1732
 3664TIP3    H132483   1.700   4.602  14.956  2.0244  0.4954  1.0098
 3664TIP3    H232484   1.669   4.611  15.104 -2.3311 -0.5420  0.2712
 3665TIP3   OH232485   4.470   4.069  12.616  0.1657 -0.5865  0.4123
 3665TIP3    H132486   4.408   4.121  12.668  0.2130  2.8120 -2.5181
 3665TIP3    H232487   4.415   4.006  12.569 -0.4876 -0.5570  1.1211
 3666TIP3   OH232488   0.491   3.714   5.412 -0.4226  0.2169  0.4533
 3666TIP3    H132489   0.491   3.650   5.341 -2.2299  0.3127  0.3141
 3666TIP3    H232490   0.424   3.682   5.473  1.1502  0.0990  2.1740
 3667TIP3   OH232491   0.491   0.906   2.027 -0.2392 -0.2570 -0.2274
 3667TIP3    H132492   0.562   0.968   2.015  0.0530 -0.0568  2.0984
 3667TIP3    H232493   0.506   0.839   1.960  2.0752 -0.1691  0.1226
 3668TIP3   OH232494   1.206   4.798   6.301 -0.5583  0.0688 -0.1820
 3668TIP3    H132495   1.176   4.850   6.227 -0.3177 -2.3996 -2.1430
 3668TIP3    H232496   1.132   4.740   6.321 -0.6482  0.7561  1.5979
 3669TIP3   OH232497   0.510   1.363   4.464 -0.6686  0.8201 -0.4334
 3669TIP3    H132498   0.472   1.446   4.493 -1.9430  0.0469  0.2599
 3669TIP3    H232499   0.570   1.338   4.534  0.2112  1.4568 -0.9498
 3670TIP3   OH232500   1.899   3.472   3.607 -0.5537  0.0991  0.0211
 3670TIP3    H132501   1.897   3.562   3.641 -0.8293  0.0784  0.0549
 3670TIP3    H232502   1.862   3.419   3.677 -0.0925 -0.0834  0.1286
 3671TIP3   OH232503   0.544   1.297  12.750  0.0015 -0.2306 -0.1735
 3671TIP3    H132504   0.453   1.320  12.769 -0.4525 -1.1438 -1.1035
 3671TIP3    H232505   0.547   1.202  12.762  0.9762 -0.1401  0.3782
 3672TIP3   OH232506   5.795   5.481  15.788  0.3104  0.2948 -0.5764
 3672TIP3    H132507   5.874   5.439  15.756  0.1586 -1.1840  0.8642
 3672TIP3    H232508   5.773   5.434  15.868 -0.7721  2.1147  0.2837
 3673TIP3   OH232509   3.432   5.933  15.617 -0.4796 -0.6062 -0.5639
 3673TIP3    H132510   3.398   5.876  15.548 -0.8683  0.9189 -1.6967
 3673TIP3    H232511   3.357   5.951  15.673 -0.1397 -1.9329  0.3551
 3674TIP3   OH232512   0.036   3.312   6.448  0.3119 -0.4813 -0.0149
 3674TIP3    H132513   0.090   3.304   6.528  1.7384 -0.8542 -0.9668
 3674TIP3    H232514   0.051   3.402   6.418 -1.0353 -0.0055  0.6597
 3675TIP3   OH232515   1.466   4.389   1.573  0.5608  0.8025  0.1105
 3675TIP3    H132516   1.478   4.483   1.566  1.1965  0.7213  0.0221
 3675TIP3    H232517   1.387   4.378   1.626  0.5720  1.3803  0.2471
 3676TIP3   OH232518   0.100   3.148   5.751 -0.3885  0.4745 -0.6700
 3676TIP3    H132519   0.050   3.095   5.813 -1.2263  0.1937 -1.5626
 3676TIP3    H232520   0.097   3.237   5.787 -1.2468  0.3941 -0.5372
 3677TIP3   OH232521   0.917   2.970   4.655 -0.4464 -0.5598  0.3874
 3677TIP3    H132522   0.856   2.928   4.716 -0.2210  0.6189  1.4722
 3677TIP3    H232523   1.002   2.963   4.698  0.4666 -3.1775 -1.6133
 3678TIP3   OH232524   0.214   6.415  15.942  0.2606 -0.3656 -0.0510
 3678TIP3    H132525   0.209   6.353  16.014 -1.1823  0.0237  0.2067
 3678TIP3    H232526   0.135   6.469  15.950  0.6683  0.4595 -1.2169
 3679TIP3   OH232527   2.044   1.872  15.984  0.1069 -0.4415  0.4853
 3679TIP3    H132528   2.089   1.886  16.068 -0.3797  0.8191  0.5506
 3679TIP3    H232529   2.112   1.835  15.927  1.2708  1.4296  0.5837
 3680TIP3   OH232530   4.393   0.280   1.389  0.1054 -0.1755  0.0284
 3680TIP3    H132531   4.323   0.247   1.334  0.2691  0.1153 -0.3577
 3680TIP3    H232532   4.432   0.351   1.339  1.4637 -1.1093 -0.2905
 3681TIP3   OH232533   5.686   2.590  16.931 -0.0091  0.2873  0.7459
 3681TIP3    H132534   5.711   2.587  17.023 -2.0434  0.8468  1.3713
 3681TIP3    H232535   5.730   2.668  16.897  0.5793  0.2056  1.2999
 3682TIP3   OH232536   4.560   3.373   5.913  0.5843  0.3595 -0.4472
 3682TIP3    H132537   4.618   3.296   5.909  0.0955  0.0493 -2.7730
 3682TIP3    H232538   4.584   3.416   5.995  1.5910 -1.7111  0.4214
 3683TIP3   OH232539   0.760   3.339   0.150  0.3599 -0.3259  0.4185
 3683TIP3    H132540   0.846   3.318   0.185  0.6666  0.2029 -0.0078
 3683TIP3    H232541   0.719   3.254   0.134  0.2313 -0.5910  1.9768
 3684TIP3   OH232542   1.755   1.693  13.270 -0.1717 -0.4096  0.1083
 3684TIP3    H132543   1.699   1.651  13.334  2.4895 -0.7369  2.4432
 3684TIP3    H232544   1.753   1.635  13.194 -0.2731 -2.2887  1.4646
 3685TIP3   OH232545   4.480   3.251  16.370  0.4871  0.2545  0.5371
 3685TIP3    H132546   4.542   3.192  16.327 -0.2937 -0.9235  0.9951
 3685TIP3    H232547   4.496   3.336  16.328  1.0601 -0.4491 -0.7286
 3686TIP3   OH232548   1.269   3.728   3.086 -0.3421  0.1921 -0.3672
 3686TIP3    H132549   1.225   3.811   3.104  0.9762  0.6509  1.0009
 3686TIP3    H232550   1.315   3.707   3.168 -0.4054 -1.7437 -0.7727
 3687TIP3   OH232551   4.169   2.884  16.658 -0.3923  1.2837  0.3263
 3687TIP3    H132552   4.241   2.828  16.629 -2.1094 -2.0226  1.7843
 3687TIP3    H232553   4.098   2.864  16.597 -2.0165 -0.7867  2.6841
 3688TIP3   OH232554   3.051   0.274   0.061  0.0148  0.0096 -0.4967
 3688TIP3    H132555   3.146   0.288   0.056  0.2584 -1.7953 -1.5839
 3688TIP3    H232556   3.016   0.321  -0.015  0.0537  0.5047 -0.2113
 3689TIP3   OH232557   3.840   3.620  12.995 -0.2444  0.1560  0.1743
 3689TIP3    H132558   3.831   3.528  12.973  2.5211  0.1213 -1.2208
 3689TIP3    H232559   3.809   3.627  13.085 -1.3740 -1.9210 -0.0100
 3690TIP3   OH232560   4.260   1.042   5.047 -0.3630 -0.1283  0.7543
 3690TIP3    H132561   4.340   1.072   5.005  0.2714 -1.5499  0.8835
 3690TIP3    H232562   4.289   1.006   5.131 -0.9722 -1.5635  0.3835
 3691TIP3   OH232563   1.117   1.104  11.537 -0.2208  0.1618  0.0096
 3691TIP3    H132564   1.179   1.113  11.610 -0.8811 -1.2023  0.7925
 3691TIP3    H232565   1.154   1.033  11.484 -0.3550  0.3428 -0.3239
 3692TIP3   OH232566   1.829   1.951  11.641 -0.4370 -0.0729  0.2505
 3692TIP3    H132567   1.756   1.893  11.666  0.3579 -1.2602 -0.0724
 3692TIP3    H232568   1.902   1.891  11.627 -0.5065  0.5163 -3.7949
 3693TIP3   OH232569   3.276   5.539  12.944  0.0098  0.0023 -0.2141
 3693TIP3    H132570   3.182   5.553  12.935 -0.0440  0.7699  1.1578
 3693TIP3    H232571   3.299   5.477  12.875 -1.2839  0.7201 -1.3319
 3694TIP3   OH232572   1.582   1.230   6.642  0.7625 -0.1041  0.0158
 3694TIP3    H132573   1.638   1.249   6.566 -1.1099 -0.1175 -1.4368
 3694TIP3    H232574   1.603   1.300   6.704 -0.2586  2.1872 -2.0100
 3695TIP3   OH232575   1.501   4.650  16.542  0.1745 -0.0699  0.2517
 3695TIP3    H132576   1.558   4.723  16.568  0.1526  0.9793 -2.3843
 3695TIP3    H232577   1.413   4.678  16.567  0.2995  0.2855  0.3016
 3696TIP3   OH232578   5.736   6.652   3.484  0.8984  0.4880  0.1200
 3696TIP3    H132579   5.795   6.655   3.560  1.2399  1.3455 -0.1602
 3696TIP3    H232580   5.789   6.613   3.414  1.3720  1.8098 -0.3016
 3697TIP3   OH232581   5.706   0.065   3.141 -0.3187  0.1290 -0.0698
 3697TIP3    H132582   5.720   0.080   3.235 -0.4903  2.3665 -0.3343
 3697TIP3    H232583   5.634   0.124   3.119  1.7237  1.9935 -2.1930
 3698TIP3   OH232584   5.957   6.510   3.379  0.4969  0.4536 -0.4547
 3698TIP3    H132585   6.013   6.555   3.443 -3.5325  1.9671  2.3803
 3698TIP3    H232586   5.936   6.427   3.422 -0.6681  0.6136 -0.6994
 3699TIP3   OH232587   6.671   3.840  12.509  0.4677 -0.0745  0.3609
 3699TIP3    H132588   6.695   3.921  12.554 -0.2367  0.9092 -0.9658
 3699TIP3    H232589   6.733   3.833  12.436  0.1445 -0.4035  0.1126
 3700TIP3   OH232590   5.250   1.960  15.991 -0.4730 -0.1350  0.1749
 3700TIP3    H132591   5.236   1.930  15.901  0.8481  1.4513 -0.6090
 3700TIP3    H232592   5.302   1.890  16.031  0.8955  0.1422 -1.0185
 3701TIP3   OH232593   4.520   6.732   6.316 -0.4344  0.1913 -0.4933
 3701TIP3    H132594   4.584   6.766   6.253  2.0564  0.5866  2.0216
 3701TIP3    H232595   4.469   6.808   6.343  0.1337  0.5082 -0.2961
 3702TIP3   OH232596   4.264   5.457   5.400 -0.9684  0.1890  0.1880
 3702TIP3    H132597   4.238   5.546   5.427 -0.2832  0.3376  0.3670
 3702TIP3    H232598   4.351   5.445   5.438 -1.2576 -0.7507  0.5736
 3703TIP3   OH232599   1.492   1.960  16.469 -0.7391 -0.0997 -0.2940
 3703TIP3    H132600   1.468   2.046  16.504  1.4704  0.7566 -0.7183
 3703TIP3    H232601   1.483   1.970  16.374  1.3701  0.3265 -0.4818
 3704TIP3   OH232602   0.706   1.978  10.856 -0.6023  0.3026  0.0570
 3704TIP3    H132603   0.736   2.059  10.898 -1.7333  0.4290  0.6565
 3704TIP3    H232604   0.745   1.980  10.768  2.6648 -0.4526  1.3493
 3705TIP3   OH232605   2.593   1.059  15.798  0.0269  0.1796  0.1820
 3705TIP3    H132606   2.514   1.107  15.776 -0.5421 -1.3778 -1.4688
 3705TIP3    H232607   2.661   1.097  15.743 -0.1044  0.0026 -0.1026
 3706TIP3   OH232608   1.732   1.101   4.470 -0.3347 -0.5642 -0.3998
 3706TIP3    H132609   1.747   1.193   4.450  2.6943 -0.5066  1.4770
 3706TIP3    H232610   1.766   1.054   4.393 -1.0582 -0.1732 -0.9705
 3707TIP3   OH232611   4.221   1.998  11.312  0.1206  0.2623  0.1288
 3707TIP3    H132612   4.140   2.046  11.328  0.2324  0.3215  0.5216
 3707TIP3    H232613   4.258   2.039  11.233  0.7272  1.5123  1.0283
 3708TIP3   OH232614   0.695   4.250  13.316 -0.1286 -0.1391 -0.3130
 3708TIP3    H132615   0.639   4.321  13.284  2.0715  1.7144 -0.3158
 3708TIP3    H232616   0.676   4.177  13.257 -1.2638  0.9551 -1.3741
 3709TIP3   OH232617   2.847   1.532   3.487 -0.3897 -0.8935 -0.0043
 3709TIP3    H132618   2.833   1.556   3.579  0.4135 -0.3900  0.0020
 3709TIP3    H232619   2.816   1.607   3.437  0.8711 -0.3705 -0.0472
 3710TIP3   OH232620   0.280   5.232   3.538 -0.5798 -0.3641  0.3020
 3710TIP3    H132621   0.238   5.318   3.540  0.6704  0.2739  0.1029
 3710TIP3    H232622   0.370   5.248   3.565  0.0844 -1.3514 -1.1492
 3711TIP3   OH232623   5.929   4.658   3.997 -0.4725 -1.0439 -0.1757
 3711TIP3    H132624   5.944   4.584   3.938 -0.9982 -1.0042 -0.3746
 3711TIP3    H232625   5.924   4.619   4.084 -0.3669 -1.1926 -0.2354
 3712TIP3   OH232626   1.325   0.229   4.811 -0.9722 -0.5448  0.2132
 3712TIP3    H132627   1.417   0.250   4.831 -0.9288  0.0374 -0.5208
 3712TIP3    H232628   1.299   0.167   4.878  0.1664 -1.2335  0.0549
 3713TIP3   OH232629   2.525   6.266  10.753 -0.3258  0.9289 -0.0951
 3713TIP3    H132630   2.571   6.329  10.809 -0.4883  1.5283 -0.6263
 3713TIP3    H232631   2.592   6.201  10.730  0.0431  1.3354 -0.1806
 3714TIP3   OH232632   4.516   1.026   2.472  0.3347  0.0811 -0.5858
 3714TIP3    H132633   4.514   0.973   2.392 -0.2406  0.8285 -1.0765
 3714TIP3    H232634   4.603   1.068   2.471 -0.3823  1.6535 -1.8834
 3715TIP3   OH232635   2.643   4.801  16.034  0.0872  0.1422  0.0635
 3715TIP3    H132636   2.614   4.737  15.970  0.3088  0.5928 -0.4918
 3715TIP3    H232637   2.643   4.753  16.117  1.9419 -1.0976 -0.5853
 3716TIP3   OH232638   6.551   2.263   3.462  0.1641 -0.3871 -0.3124
 3716TIP3    H132639   6.590   2.176   3.478 -0.1844 -0.3214  1.0313
 3716TIP3    H232640   6.618   2.310   3.413  0.0205 -1.6767 -1.8599
 3717TIP3   OH232641   2.065   3.892   0.120 -0.3151 -0.6559  0.1446
 3717TIP3    H132642   2.020   3.808   0.122 -0.9449 -0.3253  0.0776
 3717TIP3    H232643   2.029   3.940   0.195 -1.7678  0.4577 -1.2032
 3718TIP3   OH232644   4.491   1.431   3.022  0.1864 -0.0249 -0.4200
 3718TIP3    H132645   4.458   1.447   2.933  0.2785 -1.2902 -0.6935
 3718TIP3    H232646   4.586   1.446   3.015 -0.0267  1.7776 -0.0596
 3719TIP3   OH232647   2.664   1.420   0.713 -0.2448  0.1283  0.7779
 3719TIP3    H132648   2.587   1.380   0.753 -0.6517 -3.6877 -3.0962
 3719TIP3    H232649   2.738   1.376   0.755 -0.3621  0.5034  1.3876
 3720TIP3   OH232650   5.573   6.036   1.812 -0.4209  0.1988  0.1753
 3720TIP3    H132651   5.557   5.950   1.851  0.8495  0.4252  1.3088
 3720TIP3    H232652   5.518   6.096   1.863 -0.0290  0.2705  0.5207
 3721TIP3   OH232653   0.309   4.661   4.170  0.0859 -0.6042  0.1978
 3721TIP3    H132654   0.396   4.644   4.133  0.3644  0.7431  0.1848
 3721TIP3    H232655   0.255   4.590   4.137  0.8849 -0.7429 -0.8662
 3722TIP3   OH232656   4.414   5.935  15.472 -0.3410 -0.3394 -0.0645
 3722TIP3    H132657   4.367   6.018  15.468  2.2125  1.2427  0.6401
 3722TIP3    H232658   4.428   5.920  15.566  1.2988 -0.2734 -0.2733
 3723TIP3   OH232659   5.461   1.296  14.535  0.4816  0.4865  0.1511
 3723TIP3    H132660   5.490   1.207  14.516 -0.3581  0.3713 -0.6765
 3723TIP3    H232661   5.538   1.351  14.519  0.7762 -0.0050 -0.1358
 3724TIP3   OH232662   4.150   4.604  15.791 -0.0045  0.0577  0.4373
 3724TIP3    H132663   4.245   4.593  15.783 -0.3188 -2.1968 -1.0319
 3724TIP3    H232664   4.118   4.517  15.817 -1.7241  0.6733  0.5100
 3725TIP3   OH232665   1.304   0.729  13.991 -0.4419  0.0410  0.0886
 3725TIP3    H132666   1.321   0.680  14.071  0.4888 -0.0590 -0.1585
 3725TIP3    H232667   1.377   0.708  13.934  0.0802  1.8533  0.0291
 3726TIP3   OH232668   3.966   5.709  13.625 -0.0539  0.2736  0.7127
 3726TIP3    H132669   3.932   5.781  13.573  3.5194  1.3422 -0.4378
 3726TIP3    H232670   3.997   5.749  13.706  0.2117 -0.2634  0.8889
 3727TIP3   OH232671   2.517   1.708  12.016  0.5681  0.4982 -0.2774
 3727TIP3    H132672   2.510   1.802  12.029  0.9688  0.5308 -0.2981
 3727TIP3    H232673   2.611   1.690  12.017  0.5423  0.2480 -1.2782
 3728TIP3   OH232674   5.048   1.062   3.474 -0.0390  0.5240  0.0361
 3728TIP3    H132675   4.973   1.003   3.474  0.7176 -0.5198  1.3590
 3728TIP3    H232676   5.061   1.085   3.383 -0.9369 -0.6426 -0.4152
 3729TIP3   OH232677   3.042   1.484   5.038  0.0133 -0.3495  0.3475
 3729TIP3    H132678   3.006   1.532   4.963 -0.3435 -3.2794 -1.5349
 3729TIP3    H232679   3.136   1.481   5.022  0.5470  2.5114  2.3103
 3730TIP3   OH232680   1.502   5.768   0.303 -0.1437  0.3111 -0.1126
 3730TIP3    H132681   1.533   5.820   0.377  0.0830 -0.9330  0.6877
 3730TIP3    H232682   1.409   5.790   0.296  0.0075  1.0305  0.0284
 3731TIP3   OH232683   0.633   2.542  13.838 -0.2367  0.0517 -0.7326
 3731TIP3    H132684   0.546   2.510  13.861  0.1337  0.1745  0.9383
 3731TIP3    H232685   0.693   2.485  13.885  0.6027  0.0376 -1.7787
 3732TIP3   OH232686   1.961   4.325   1.889 -0.4108 -0.0610 -0.2415
 3732TIP3    H132687   1.993   4.389   1.826 -1.0548 -1.2466 -1.8269
 3732TIP3    H232688   1.879   4.362   1.922 -1.1275 -0.3276 -1.6417
 3733TIP3   OH232689   5.253   3.353   5.586 -0.0629  0.1871  0.3668
 3733TIP3    H132690   5.254   3.290   5.659  3.6943  1.2851  1.5046
 3733TIP3    H232691   5.181   3.413   5.607 -1.0745 -1.3312  1.4362
 3734TIP3   OH232692   6.661   1.888   4.344 -0.4259  0.7498  0.7388
 3734TIP3    H132693   6.654   1.911   4.251  0.7583  0.5570  0.5803
 3734TIP3    H232694   6.745   1.925   4.371  0.9806 -2.1738  0.7894
 3735TIP3   OH232695   6.624   3.343  16.979 -0.0922  0.2874  0.4097
 3735TIP3    H132696   6.561   3.343  17.051 -0.3164 -2.2797  0.2953
 3735TIP3    H232697   6.580   3.298  16.908  1.6740 -1.2355  0.1935
 3736TIP3   OH232698   2.363   1.087  14.935  0.0069  0.4901 -0.1340
 3736TIP3    H132699   2.329   1.090  14.845 -2.8467 -0.4603  0.8103
 3736TIP3    H232700   2.360   1.178  14.964  0.7046  0.7699 -0.9068
 3737TIP3   OH232701   2.291   5.293   4.082  0.0672 -0.7248 -0.0900
 3737TIP3    H132702   2.345   5.345   4.142  1.0817 -3.0089  1.0931
 3737TIP3    H232703   2.329   5.309   3.996 -1.2806  2.4448 -0.2723
 3738TIP3   OH232704   6.248   2.399  15.396  0.1809  0.4679 -0.3681
 3738TIP3    H132705   6.187   2.468  15.368  0.0640  1.0849  1.2789
 3738TIP3    H232706   6.294   2.374  15.316  0.8870  3.1188 -0.8911
 3739TIP3   OH232707   6.582   6.355   4.874 -0.0142  0.2347 -0.2167
 3739TIP3    H132708   6.656   6.406   4.906  0.6407 -0.5764 -0.4259
 3739TIP3    H232709   6.506   6.392   4.919  0.6138  0.5379  0.6111
 3740TIP3   OH232710   6.527   1.785  16.270 -0.7024 -0.4896 -0.0982
 3740TIP3    H132711   6.482   1.841  16.208 -0.7656 -0.9774 -0.5019
 3740TIP3    H232712   6.539   1.839  16.348 -2.1096 -0.3943  0.0697
 3741TIP3   OH232713   3.465   3.133   1.945  0.2628 -0.3058 -0.3861
 3741TIP3    H132714   3.460   3.097   2.033  0.1044 -1.8504 -0.9848
 3741TIP3    H232715   3.401   3.204   1.944 -0.1840 -0.6791  0.5743
 3742TIP3   OH232716   4.179   0.024  16.984  0.1612  0.1256  0.1350
 3742TIP3    H132717   4.219   0.068  16.908  0.0141  1.7947  0.9691
 3742TIP3    H232718   4.105   0.081  17.007  0.1843 -0.3835  1.4983
 3743TIP3   OH232719   3.830   0.898  13.391 -0.5335 -0.3713 -0.1860
 3743TIP3    H132720   3.921   0.919  13.412 -0.4737  0.5856 -1.2828
 3743TIP3    H232721   3.835   0.841  13.314 -0.8606  0.5000 -0.8794
 3744TIP3   OH232722   3.874   1.464  17.018 -0.1074  0.4214  0.3609
 3744TIP3    H132723   3.828   1.455  16.935 -0.5402 -0.6716  0.7091
 3744TIP3    H232724   3.962   1.431  17.001 -0.4968 -0.7697  0.5882
 3745TIP3   OH232725   3.115   2.612   5.483  0.2309 -0.4094 -0.5441
 3745TIP3    H132726   3.116   2.539   5.545 -0.3457 -0.1881 -0.2705
 3745TIP3    H232727   3.201   2.654   5.493  0.3675 -0.7388 -0.3392
 3746TIP3   OH232728   1.709   2.009   5.446  0.6129 -0.3794  0.3949
 3746TIP3    H132729   1.718   2.071   5.373  2.1257 -1.3121 -0.2660
 3746TIP3    H232730   1.696   1.924   5.404 -1.9359 -0.5126  1.2890
 3747TIP3   OH232731   6.168   5.008   4.433 -0.5982 -0.2269 -0.0941
 3747TIP3    H132732   6.221   4.934   4.465  0.4095  0.5746  0.1420
 3747TIP3    H232733   6.164   5.067   4.508 -0.4903  0.4486 -0.6211
 3748TIP3   OH232734   1.514   3.640   5.285  0.0299  0.0755  0.6307
 3748TIP3    H132735   1.467   3.723   5.294  1.5388  1.0342  0.0277
 3748TIP3    H232736   1.597   3.654   5.331  0.4589 -0.9669  0.2069
 3749TIP3   OH232737   3.658   2.906   2.756 -0.5569  0.2380  0.6169
 3749TIP3    H132738   3.661   3.001   2.767 -0.8799  0.2781  0.3795
 3749TIP3    H232739   3.662   2.871   2.846 -0.8222  0.4859  0.7266
 3750TIP3   OH232740   5.122   0.652   1.947  0.5669 -0.2332  0.1935
 3750TIP3    H132741   5.110   0.629   1.854  2.0275 -0.0003 -0.0725
 3750TIP3    H232742   5.079   0.581   1.995 -0.1305 -0.4040 -0.6581
 3751TIP3   OH232743   2.306   4.208   2.368 -0.4791  0.0253  0.1051
 3751TIP3    H132744   2.212   4.215   2.384 -0.7471 -1.8006 -0.4575
 3751TIP3    H232745   2.325   4.115   2.374  0.9438  0.1415 -1.6888
 3752TIP3   OH232746   4.412   4.561  15.719  0.2063  0.3852 -0.2565
 3752TIP3    H132747   4.436   4.602  15.636  1.4879  0.3468  0.0748
 3752TIP3    H232748   4.491   4.569  15.773 -1.7635  4.0773  2.4773
 3753TIP3   OH232749   1.585   6.181  16.142  0.0533  0.0766  0.0901
 3753TIP3    H132750   1.489   6.189  16.141 -0.0217 -0.7892 -0.7574
 3753TIP3    H232751   1.615   6.263  16.182 -0.9886  0.8494 -0.6630
 3754TIP3   OH232752   6.669   6.771   0.876  0.0265  0.5515  0.2675
 3754TIP3    H132753   6.662   6.860   0.843 -0.7662  0.6929  0.8053
 3754TIP3    H232754   6.584   6.752   0.915 -0.5860 -1.2310 -1.7531
 3755TIP3   OH232755   4.457   5.530  11.766 -0.1517  0.1911 -0.2875
 3755TIP3    H132756   4.432   5.552  11.855 -0.9652 -1.3386 -0.0994
 3755TIP3    H232757   4.516   5.455  11.775 -0.5384 -0.2214 -1.0365
 3756TIP3   OH232758   4.693   4.826   4.609  0.0238  0.1547  0.4700
 3756TIP3    H132759   4.787   4.821   4.626  0.1740  0.4655 -0.2162
 3756TIP3    H232760   4.672   4.743   4.566  0.1335  0.3765 -0.0237
 3757TIP3   OH232761   6.018   4.406  13.259 -0.5490 -0.2187  0.1712
 3757TIP3    H132762   5.944   4.457  13.227 -0.7882  0.2219  1.3657
 3757TIP3    H232763   5.978   4.335  13.310 -0.2024 -1.3109 -1.0235
 3758TIP3   OH232764   1.453   5.138   1.738  0.6384  0.8317 -0.0071
 3758TIP3    H132765   1.442   5.061   1.794 -0.9103 -0.0931 -1.4974
 3758TIP3    H232766   1.451   5.212   1.799  0.9564 -0.2163  1.3346
 3759TIP3   OH232767   2.731   5.767  15.342 -0.4570  0.1007 -0.0333
 3759TIP3    H132768   2.721   5.832  15.412  0.2899  0.7201 -0.4987
 3759TIP3    H232769   2.825   5.764  15.325 -0.5797 -0.4643 -0.6240
 3760TIP3   OH232770   2.993   3.309   1.518 -0.2442  0.1211  0.1891
 3760TIP3    H132771   2.961   3.388   1.473  1.7734 -0.7951 -3.2026
 3760TIP3    H232772   2.917   3.251   1.519 -0.2963 -0.0878 -3.0003
 3761TIP3   OH232773   5.378   1.606  16.271 -0.0657  0.3240  0.1078
 3761TIP3    H132774   5.450   1.575  16.326 -0.0440  0.6261  0.2499
 3761TIP3    H232775   5.385   1.555  16.191 -1.2235 -1.4934  1.0875
 3762TIP3   OH232776   1.354   1.069   3.039 -0.2894  0.3061  0.1721
 3762TIP3    H132777   1.322   1.089   3.127  0.7333 -1.5116  1.0303
 3762TIP3    H232778   1.364   1.154   2.997 -3.0763  1.1171  0.9378
 3763TIP3   OH232779   6.269   2.611  15.739 -0.0835  0.1898 -0.5742
 3763TIP3    H132780   6.191   2.637  15.691 -0.0063  1.0094 -0.2662
 3763TIP3    H232781   6.340   2.620  15.675  0.0733  1.6420 -0.2193
 3764TIP3   OH232782   6.599   6.009   1.590 -0.3499 -0.3274 -0.1464
 3764TIP3    H132783   6.605   5.926   1.542  0.1845  0.4569 -1.4933
 3764TIP3    H232784   6.514   6.044   1.566 -0.8035 -0.6994  0.8395
 3765TIP3   OH232785   1.974   1.006  12.864  0.3811 -0.0483 -0.0073
 3765TIP3    H132786   1.900   0.983  12.919  0.2658  0.5838  0.1076
 3765TIP3    H232787   2.038   1.046  12.923  0.3740  0.3738 -0.2805
 3766TIP3   OH232788   2.914   6.605  16.984  0.2027  0.2506  0.7399
 3766TIP3    H132789   2.967   6.526  16.971  3.2243  1.6522  3.2193
 3766TIP3    H232790   2.911   6.616  17.079 -0.8903  2.6650  0.5023
 3767TIP3   OH232791   6.212   0.042  16.677  0.4238 -0.9802  0.3611
 3767TIP3    H132792   6.173  -0.034  16.635  1.5621 -0.2365 -2.2772
 3767TIP3    H232793   6.158   0.116  16.648 -0.7935 -0.6833  3.0369
 3768TIP3   OH232794   4.041   2.703   3.958  0.0942 -1.2655 -0.0528
 3768TIP3    H132795   3.956   2.660   3.955  0.3330 -1.7154 -0.4507
 3768TIP3    H232796   4.052   2.741   3.871 -0.3919  0.1596  0.4750
 3769TIP3   OH232797   6.676   2.681  12.451  0.0164 -0.2922  0.4831
 3769TIP3    H132798   6.763   2.643  12.450 -0.0707 -0.5314 -1.7516
 3769TIP3    H232799   6.691   2.774  12.469  0.8683 -0.0832 -1.1912
 3770TIP3   OH232800   1.848   5.150   5.465  0.0442 -0.2602 -0.2213
 3770TIP3    H132801   1.870   5.090   5.394 -1.7963  0.3236 -1.3607
 3770TIP3    H232802   1.810   5.095   5.532  0.8278 -0.6867 -0.1197
 3771TIP3   OH232803   0.981   4.198   6.559  1.0586 -0.5778 -0.5022
 3771TIP3    H132804   0.939   4.262   6.503  2.3246  0.5261 -0.2591
 3771TIP3    H232805   1.056   4.244   6.596  0.3666 -1.2843  2.0030
 3772TIP3   OH232806   6.216   0.969  10.772  0.4752 -0.1703 -0.1617
 3772TIP3    H132807   6.171   0.936  10.850 -2.2244  2.4975 -0.3808
 3772TIP3    H232808   6.230   0.891  10.718 -1.1529 -1.5962  1.3351
 3773TIP3   OH232809   4.734   2.076  12.246  0.9831  0.1457  0.3705
 3773TIP3    H132810   4.647   2.082  12.286  1.4496  1.0386  1.2831
 3773TIP3    H232811   4.717   2.047  12.157 -0.1301 -1.2865  1.0121
 3774TIP3   OH232812   1.094   4.523   2.987 -0.4745  0.0009 -0.0990
 3774TIP3    H132813   1.165   4.520   2.923 -2.0724 -0.3799 -1.9463
 3774TIP3    H232814   1.054   4.609   2.973 -0.8877 -0.1219  0.3262
 3775TIP3   OH232815   1.827   6.224   4.459  0.1373 -0.1837 -0.3170
 3775TIP3    H132816   1.898   6.161   4.448  0.8877  0.5550  0.1066
 3775TIP3    H232817   1.753   6.172   4.491  0.5932 -0.9137 -0.4266
 3776TIP3   OH232818   6.733   4.911  14.783  0.3658  0.8432 -0.0157
 3776TIP3    H132819   6.784   4.897  14.862 -1.2272 -1.2119  0.7596
 3776TIP3    H232820   6.676   4.834  14.778 -3.1839  3.2520 -0.3827
 3777TIP3   OH232821   5.892   1.521  12.733  0.0981  0.1829  0.0728
 3777TIP3    H132822   5.936   1.564  12.660 -1.3179 -1.2512 -1.6976
 3777TIP3    H232823   5.953   1.452  12.761 -0.7462 -1.5735 -2.1401
 3778TIP3   OH232824   6.489   6.286  16.777  0.1434  0.4435 -0.9225
 3778TIP3    H132825   6.554   6.283  16.708  1.4060 -1.1477  0.2794
 3778TIP3    H232826   6.430   6.213  16.758 -1.8569  2.3040 -2.4241
 3779TIP3   OH232827   4.894   4.893  13.842  0.5047  0.3304 -0.7332
 3779TIP3    H132828   4.866   4.802  13.846 -0.5375  0.6651  0.3511
 3779TIP3    H232829   4.833   4.935  13.781  0.2016  0.5486 -0.2854
 3780TIP3   OH232830   2.025   1.920   1.742  0.4852 -0.1314 -0.3435
 3780TIP3    H132831   2.025   2.015   1.752  1.3464 -0.0298 -1.1844
 3780TIP3    H232832   2.087   1.889   1.809 -1.0886 -0.2673  1.1091
 3781TIP3   OH232833   2.060   6.284   4.079 -0.0901  0.4619  0.5074
 3781TIP3    H132834   1.965   6.284   4.077 -0.1111  2.1806 -0.8796
 3781TIP3    H232835   2.085   6.376   4.064  1.7747 -0.1128 -0.2531
 3782TIP3   OH232836   6.242   5.404  12.480  0.0544 -0.5488 -0.5542
 3782TIP3    H132837   6.215   5.321  12.441  0.3675 -0.4217 -1.0464
 3782TIP3    H232838   6.250   5.464  12.406  2.3628 -0.7510 -0.5319
 3783TIP3   OH232839   4.146   4.038  12.210  0.2412  0.3285 -0.1581
 3783TIP3    H132840   4.194   4.083  12.279  0.7465  0.3318 -0.5073
 3783TIP3    H232841   4.064   4.086  12.201 -0.0042  0.0845  0.7160
 3784TIP3   OH232842   2.809   4.230   1.285  0.2468  0.6801 -0.0779
 3784TIP3    H132843   2.806   4.301   1.221 -1.6850  0.1239 -0.6542
 3784TIP3    H232844   2.740   4.170   1.258  3.3695 -2.8569 -1.2194
 3785TIP3   OH232845   3.043   0.950   0.050 -0.4433 -0.4852  0.2346
 3785TIP3    H132846   3.025   0.983   0.138 -1.3960 -0.3151 -0.0226
 3785TIP3    H232847   2.969   0.894   0.030  0.7289 -2.1676  0.3314
 3786TIP3   OH232848   6.703   5.752  14.742 -0.2277 -0.3590  0.0743
 3786TIP3    H132849   6.696   5.803  14.661 -2.1252 -0.6536  0.0141
 3786TIP3    H232850   6.731   5.816  14.808 -1.7798  0.6364 -0.1675
 3787TIP3   OH232851   6.772   3.109   4.719 -0.6487 -0.0073 -0.1562
 3787TIP3    H132852   6.804   3.190   4.758 -1.9676 -0.3133  1.6983
 3787TIP3    H232853   6.680   3.104   4.744 -1.3190 -0.7781 -2.5097
 3788TIP3   OH232854   5.180   2.458   0.623 -0.2288  0.4876 -0.6308
 3788TIP3    H132855   5.101   2.488   0.669  0.8846 -0.7383  2.3887
 3788TIP3    H232856   5.147   2.400   0.555 -2.0619 -2.2881  2.3094
 3789TIP3   OH232857   1.601   3.858  15.653 -0.0102  0.2266 -0.1445
 3789TIP3    H132858   1.646   3.912  15.719  1.4220  0.3149 -1.1472
 3789TIP3    H232859   1.655   3.867  15.574  1.1293 -3.7521 -0.0168
 3790TIP3   OH232860   3.220   4.724   1.163  0.1098 -0.2376 -0.3509
 3790TIP3    H132861   3.166   4.689   1.235  1.7866 -1.4404  0.3938
 3790TIP3    H232862   3.156   4.759   1.101 -1.4117  1.6873  2.0701
 3791TIP3   OH232863   6.642   4.164   3.531 -0.0769 -0.5916 -0.0144
 3791TIP3    H132864   6.687   4.085   3.501  1.6244  0.2773  0.0972
 3791TIP3    H232865   6.691   4.236   3.491 -0.3457  0.4649  1.4704
 3792TIP3   OH232866   1.773   2.434  16.070 -0.2210 -0.2041 -0.2927
 3792TIP3    H132867   1.757   2.510  16.015  1.0025 -0.7852 -1.5379
 3792TIP3    H232868   1.687   2.395  16.083 -0.9609  1.6971  0.8964
 3793TIP3   OH232869   4.623   5.634  13.201 -0.3200 -0.2205  0.7832
 3793TIP3    H132870   4.643   5.674  13.286 -0.3384  0.9061  0.2646
 3793TIP3    H232871   4.638   5.703  13.137 -0.3650 -1.0392 -0.1403
 3794TIP3   OH232872   6.742   1.845   1.298 -0.6119 -0.3926  0.0402
 3794TIP3    H132873   6.832   1.827   1.270 -0.9496  1.6363 -2.6642
 3794TIP3    H232874   6.744   1.935   1.331 -1.7645 -0.0748 -0.7028
 3795TIP3   OH232875   5.220   6.660  15.348  0.4274 -0.8787  0.0218
 3795TIP3    H132876   5.304   6.704  15.362  0.1251 -0.5922  1.0028
 3795TIP3    H232877   5.157   6.731  15.340  0.2992 -1.0871 -0.9830
 3796TIP3   OH232878   0.020   3.053   0.537 -0.2433  0.7904 -0.4978
 3796TIP3    H132879  -0.072   3.030   0.550 -0.0692  0.1511 -0.3708
 3796TIP3    H232880   0.036   3.125   0.599 -1.0576  1.9899 -1.6104
 3797TIP3   OH232881   2.807   6.184   3.844  0.3467 -0.3428 -0.0102
 3797TIP3    H132882   2.891   6.168   3.801  0.6458 -1.2581  0.8705
 3797TIP3    H232883   2.826   6.253   3.908  0.2353  0.0013 -0.3421
 3798TIP3   OH232884   4.301   2.532  11.137 -0.1053 -0.0521  0.3560
 3798TIP3    H132885   4.259   2.498  11.057 -0.3690 -1.3690  1.0298
 3798TIP3    H232886   4.319   2.624  11.117  0.3768 -0.4889 -1.4503
 3799TIP3   OH232887   3.822   2.473  11.506  0.6811 -0.0715  0.1095
 3799TIP3    H132888   3.885   2.534  11.468  0.4900  0.3567  0.4732
 3799TIP3    H232889   3.876   2.406  11.548  0.9520 -1.5533 -2.3560
 3800TIP3   OH232890   1.500   4.402  15.395 -0.1805  0.2235 -0.1169
 3800TIP3    H132891   1.534   4.477  15.445  2.0989  1.3888 -3.1382
 3800TIP3    H232892   1.408   4.424  15.379 -0.8335  0.1111  2.7849
 3801TIP3   OH232893   0.043   0.845   1.884  0.5161 -1.0120  0.3504
 3801TIP3    H132894  -0.019   0.905   1.842  0.8668 -0.4955  0.5569
 3801TIP3    H232895   0.098   0.814   1.812  0.1728 -1.2919  0.2031
 3802TIP3   OH232896   3.703   1.268  16.017  0.3798 -0.0324 -0.5011
 3802TIP3    H132897   3.664   1.355  16.004 -0.3489 -0.5423 -2.0287
 3802TIP3    H232898   3.794   1.279  15.987  0.0802  0.0437 -1.4286
 3803TIP3   OH232899   4.463   5.418   3.523 -0.1447 -0.2902  0.5896
 3803TIP3    H132900   4.388   5.368   3.554 -0.4189 -0.1798  0.1101
 3803TIP3    H232901   4.531   5.402   3.588 -1.5273  2.1881  2.8609
 3804TIP3   OH232902   6.042   1.425   3.758  0.4185 -0.3944 -0.3417
 3804TIP3    H132903   6.084   1.339   3.756 -0.0309 -0.6225 -0.0106
 3804TIP3    H232904   5.986   1.425   3.680 -0.7977 -1.0237  0.5166
 3805TIP3   OH232905   2.200   1.856  13.090 -0.0569 -0.1277 -0.0535
 3805TIP3    H132906   2.112   1.865  13.053  0.2283 -1.7972 -1.2279
 3805TIP3    H232907   2.259   1.871  13.015  0.6690  0.4204  0.6028
 3806TIP3   OH232908   5.978   3.454   1.970 -0.5668  0.3626 -0.0043
 3806TIP3    H132909   5.978   3.385   2.037  0.3247  1.5699  1.3153
 3806TIP3    H232910   5.928   3.526   2.010  0.7281  1.4319 -0.2370
 3807TIP3   OH232911   4.003   4.705  17.163  0.2223  0.1384 -0.1192
 3807TIP3    H132912   4.020   4.704  17.069 -0.3715  1.0837 -0.2513
 3807TIP3    H232913   3.909   4.685  17.170  0.5512 -1.3892  0.3760
 3808TIP3   OH232914   0.477   3.828  16.883  0.1704 -0.0801  0.5248
 3808TIP3    H132915   0.501   3.776  16.806  0.4577 -2.5547  2.1476
 3808TIP3    H232916   0.391   3.795  16.908  0.6993 -0.3786  2.0668
 3809TIP3   OH232917   1.979   0.817   5.754 -0.0886 -0.5752  0.4407
 3809TIP3    H132918   2.071   0.792   5.745 -0.3539 -0.8596 -2.4446
 3809TIP3    H232919   1.945   0.760   5.823  2.2463  0.8670  3.0263
 3810TIP3   OH232920   3.669   4.250  10.713  0.0199  0.0085 -0.4289
 3810TIP3    H132921   3.704   4.326  10.667 -1.4717  0.7895 -0.3370
 3810TIP3    H232922   3.601   4.215  10.656 -1.6822  0.8395  0.9682
 3811TIP3   OH232923   0.306   0.691   6.235  0.3218  0.1534 -0.5568
 3811TIP3    H132924   0.341   0.674   6.322  0.1075  3.0545  0.2068
 3811TIP3    H232925   0.227   0.637   6.229 -0.1605  0.5548  1.4429
 3812TIP3   OH232926   5.043   3.387   4.200  0.1170  0.6177 -0.5003
 3812TIP3    H132927   5.041   3.355   4.109  0.3487  1.9816 -1.0109
 3812TIP3    H232928   5.021   3.480   4.193 -0.4233  0.6270  0.9140
 3813TIP3   OH232929   2.819   2.771  13.605 -0.2269 -0.0059 -0.1357
 3813TIP3    H132930   2.787   2.726  13.683  4.9781 -3.2629  0.6256
 3813TIP3    H232931   2.867   2.846  13.638  0.8900 -0.6470 -0.2556
 3814TIP3   OH232932   0.200   6.356   2.137 -0.0233  0.2351 -0.4856
 3814TIP3    H132933   0.254   6.427   2.102  1.6881 -0.0416  1.4338
 3814TIP3    H232934   0.155   6.396   2.212  1.0478 -0.6947  0.6858
 3815TIP3   OH232935   6.354   2.223   0.914 -0.4077 -0.1484 -0.7670
 3815TIP3    H132936   6.278   2.252   0.965 -0.7309  1.3885 -2.0196
 3815TIP3    H232937   6.357   2.284   0.840  2.1188 -0.1267 -0.7073
 3816TIP3   OH232938   5.986   6.581   1.836  0.4136 -0.5266  0.1654
 3816TIP3    H132939   6.040   6.635   1.895  0.1358 -0.1658  0.0955
 3816TIP3    H232940   5.990   6.493   1.874 -0.3836 -0.1544  1.1747
 3817TIP3   OH232941   2.027   4.015  17.013 -0.0727 -0.0203  0.9263
 3817TIP3    H132942   1.943   3.969  17.018  1.1447 -2.7002 -0.7632
 3817TIP3    H232943   2.050   4.033  17.103 -2.7138  1.3852  1.4206
 3818TIP3   OH232944   6.649   2.653   0.309 -0.0278 -0.1981 -0.0366
 3818TIP3    H132945   6.568   2.633   0.263  0.6753  2.1426 -2.5398
 3818TIP3    H232946   6.647   2.596   0.386 -3.0814 -1.6141 -0.9904
 3819TIP3   OH232947   1.191   2.217   4.739 -0.0892 -0.1939  0.4404
 3819TIP3    H132948   1.114   2.234   4.793 -0.9442 -0.8102 -0.5457
 3819TIP3    H232949   1.155   2.183   4.657  1.2996 -2.4073  0.6601
 3820TIP3   OH232950   1.397   1.291   4.544 -0.3262  0.2739 -0.5659
 3820TIP3    H132951   1.399   1.219   4.481 -0.9199  0.2843 -0.6036
 3820TIP3    H232952   1.359   1.364   4.495  0.1062  0.5627 -0.4746
 3821TIP3   OH232953   0.428   5.699   5.592  0.1074 -0.3290 -0.0039
 3821TIP3    H132954   0.433   5.721   5.499 -0.6022 -0.4328 -0.0735
 3821TIP3    H232955   0.517   5.674   5.615  0.1902 -0.8391 -0.7997
 3822TIP3   OH232956   3.375   5.290  16.320 -0.3672  0.1681  0.1658
 3822TIP3    H132957   3.316   5.231  16.273 -1.7276  0.7947  1.0450
 3822TIP3    H232958   3.421   5.234  16.382 -0.0529 -0.3153 -0.4874
 3823TIP3   OH232959   1.639   4.234  11.498 -0.0032  0.5016 -0.7844
 3823TIP3    H132960   1.603   4.317  11.465 -0.1776  1.7564  2.2682
 3823TIP3    H232961   1.591   4.167  11.450 -3.0216  2.1609 -0.3515
 3824TIP3   OH232962   2.363   1.557   2.826  0.2024 -0.0235  0.0975
 3824TIP3    H132963   2.339   1.468   2.803  0.4061  0.2434 -1.2333
 3824TIP3    H232964   2.439   1.548   2.884 -0.6782 -0.7366  1.1715
 3825TIP3   OH232965   4.757   5.416   5.277 -0.7766  0.3848 -0.5509
 3825TIP3    H132966   4.711   5.338   5.248  0.0413 -0.8126  1.2143
 3825TIP3    H232967   4.833   5.421   5.220 -1.6974  0.8958 -1.7758
 3826TIP3   OH232968   1.962   4.583   0.227 -0.6920 -0.4521  0.2668
 3826TIP3    H132969   1.962   4.600   0.321  1.8984 -2.6109  0.7684
 3826TIP3    H232970   2.043   4.624   0.195 -0.4062 -1.6136 -0.5699
 3827TIP3   OH232971   4.745   2.700  11.878  0.1107  0.0106 -0.0201
 3827TIP3    H132972   4.816   2.697  11.943 -0.6486  1.6400  0.9602
 3827TIP3    H232973   4.723   2.608  11.862  1.6383 -0.4860  0.5462
 3828TIP3   OH232974   4.566   1.954   5.202  0.5492 -0.0171 -0.1268
 3828TIP3    H132975   4.548   1.864   5.227 -2.4347  1.1237  2.7459
 3828TIP3    H232976   4.516   1.967   5.121 -0.3617 -0.5567  0.3323
 3829TIP3   OH232977   0.668   4.172   2.341  0.1050  0.2613  0.2941
 3829TIP3    H132978   0.704   4.261   2.342  0.3224  0.2062 -0.6638
 3829TIP3    H232979   0.583   4.181   2.298  0.4811 -0.0936 -0.5585
 3830TIP3   OH232980   3.976   0.816   0.560 -0.2527  0.4779 -0.0501
 3830TIP3    H132981   3.934   0.739   0.599  0.1774 -0.3597 -1.1782
 3830TIP3    H232982   3.977   0.797   0.466 -0.2668  1.9407 -0.3676
 3831TIP3   OH232983   1.930   2.281  13.537  0.7422  0.0927  0.0480
 3831TIP3    H132984   1.972   2.294  13.452  0.6830  0.8455  0.1334
 3831TIP3    H232985   1.905   2.369  13.566 -1.5809 -0.3704 -0.3512
 3832TIP3   OH232986   5.974   0.879   2.213  0.1700  0.2585 -0.0931
 3832TIP3    H132987   5.983   0.924   2.297  0.9446 -0.5218  0.2574
 3832TIP3    H232988   6.055   0.900   2.167 -0.1670  0.5204 -0.5669
 3833TIP3   OH232989   4.992   5.652   2.498  0.2166  0.3913  0.4381
 3833TIP3    H132990   5.037   5.721   2.547  0.4603 -0.0695  0.8849
 3833TIP3    H232991   4.966   5.693   2.416  1.2474  0.7408  0.2722
 3834TIP3   OH232992   0.421   4.791   3.722  0.1645  1.0006  0.1685
 3834TIP3    H132993   0.456   4.728   3.786 -0.1592  0.7543  0.1075
 3834TIP3    H232994   0.496   4.817   3.670  0.1463 -0.0834 -0.4385
 3835TIP3   OH232995   1.407   4.764  15.377 -0.4278 -0.2112 -0.2864
 3835TIP3    H132996   1.429   4.777  15.470 -1.3018 -1.3957  0.1109
 3835TIP3    H232997   1.314   4.784  15.371 -0.6709 -1.3347 -0.6336
 3836TIP3   OH232998   0.171   5.015   2.882 -0.3022 -0.4438  0.0593
 3836TIP3    H132999   0.220   4.934   2.894 -1.0826 -0.9362 -0.0584
 3836TIP3    H233000   0.088   4.988   2.842 -1.2789  0.2050  1.5530
 3837TIP3   OH233001   4.251   3.409  11.390 -0.4758 -0.2457  0.1744
 3837TIP3    H133002   4.155   3.412  11.393 -0.6780 -0.8724 -2.5820
 3837TIP3    H233003   4.279   3.440  11.476 -3.1424 -0.3572  1.1720
 3838TIP3   OH233004   5.861   3.356  16.343 -0.2495 -0.4388 -0.2449
 3838TIP3    H133005   5.877   3.435  16.396 -2.4765  0.4003 -0.7063
 3838TIP3    H233006   5.871   3.284  16.405  0.5980  0.2715  0.4908
 3839TIP3   OH233007   6.659   5.863  16.912 -0.6418 -0.1332  0.4586
 3839TIP3    H133008   6.702   5.948  16.907  0.2191 -0.4697  1.7637
 3839TIP3    H233009   6.596   5.873  16.984  0.8876 -1.1597  2.0287
 3840TIP3   OH233010   2.548   3.431   5.180  0.4089 -0.1370 -0.0237
 3840TIP3    H133011   2.512   3.346   5.155  2.0971 -1.2275  1.1422
 3840TIP3    H233012   2.641   3.425   5.161  0.5532  1.5110  0.0012
 3841TIP3   OH233013   0.558   5.206  16.598  0.1422 -0.0077 -0.1850
 3841TIP3    H133014   0.539   5.277  16.537 -0.6161 -0.4820 -0.5127
 3841TIP3    H233015   0.589   5.250  16.677 -0.7727  0.7095 -0.2132
 3842TIP3   OH233016   4.369   5.110   0.088 -0.0019 -0.2934 -0.1835
 3842TIP3    H133017   4.320   5.031   0.067  1.3083 -0.8871 -1.0855
 3842TIP3    H233018   4.401   5.095   0.177 -2.1059  0.4745  0.7821
 3843TIP3   OH233019   3.541   1.959   5.403  0.4427  0.2562  0.4398
 3843TIP3    H133020   3.457   2.005   5.412 -0.1200 -0.8285  0.9841
 3843TIP3    H233021   3.597   1.996   5.470  0.5683  1.3087 -0.2204
 3844TIP3   OH233022   5.898   4.186  10.875  0.4811  0.5073  0.4667
 3844TIP3    H133023   5.808   4.163  10.895  0.6443  0.7645  1.5799
 3844TIP3    H233024   5.941   4.191  10.960  0.9856  2.6696  0.1523
 3845TIP3   OH233025   2.901   2.250   5.836  0.0100  0.0161 -0.3063
 3845TIP3    H133026   2.859   2.322   5.883  0.6515 -0.9396  1.8947
 3845TIP3    H233027   2.965   2.215   5.899  1.3459 -1.0138 -2.1396
 3846TIP3   OH233028   6.497   3.893  10.383 -0.0621  0.2736  0.0788
 3846TIP3    H133029   6.420   3.843  10.356 -0.7891  0.6387  1.3694
 3846TIP3    H233030   6.565   3.827  10.395 -0.1462 -0.0503 -1.1451
 3847TIP3   OH233031   6.057   0.191   4.529 -0.2493 -0.0341  0.1521
 3847TIP3    H133032   6.119   0.185   4.602  1.0233  1.5194 -0.7191
 3847TIP3    H233033   6.068   0.280   4.496 -1.6555 -0.3173 -1.1864
 3848TIP3   OH233034   2.248   1.189   4.895  0.0451  0.1297  0.2960
 3848TIP3    H133035   2.214   1.236   4.819  0.4009  0.3463  0.2684
 3848TIP3    H233036   2.188   1.115   4.906 -2.4498  2.2073  2.2067
 3849TIP3   OH233037   6.619   6.557   5.634  0.4270 -0.1372  0.0440
 3849TIP3    H133038   6.585   6.608   5.707  0.8920  0.2462 -0.0025
 3849TIP3    H233039   6.649   6.622   5.570  1.7510 -0.4496  0.3205
 3850TIP3   OH233040   5.341   3.666   2.467  0.0471 -0.6597  0.1283
 3850TIP3    H133041   5.309   3.753   2.490 -2.3973 -2.0132  2.4174
 3850TIP3    H233042   5.413   3.649   2.528  0.8167 -0.1357 -0.6081
 3851TIP3   OH233043   5.008   0.055  14.108  0.0347  0.6039  0.2003
 3851TIP3    H133044   4.970   0.132  14.150  1.0882  0.5361  1.3514
 3851TIP3    H233045   4.964   0.050  14.023 -1.4704  1.3150  0.8935
 3852TIP3   OH233046   0.826   0.156   5.944 -0.1538 -0.2277 -0.2364
 3852TIP3    H133047   0.880   0.156   6.024 -0.6347  1.1271  0.1058
 3852TIP3    H233048   0.756   0.218   5.962 -2.5837 -2.7812 -0.2268
 3853TIP3   OH233049   1.219   5.923   0.881 -0.1995  0.0910  0.5527
 3853TIP3    H133050   1.250   5.916   0.791  0.6574 -0.0478  0.8480
 3853TIP3    H233051   1.126   5.899   0.876 -0.1780  0.1458 -0.2987
 3854TIP3   OH233052   4.390   6.049   2.525  0.2164 -0.3751  0.0799
 3854TIP3    H133053   4.382   6.144   2.536  2.0602 -0.2550  0.9581
 3854TIP3    H233054   4.336   6.012   2.595 -0.2159  0.0341 -0.0350
 3855TIP3   OH233055   5.356   5.748   3.015  0.6494  0.6752 -0.6340
 3855TIP3    H133056   5.286   5.695   3.053 -0.4523  1.9129 -0.8549
 3855TIP3    H233057   5.411   5.772   3.089 -0.4364  1.5203 -0.0572
 3856TIP3   OH233058   0.877   4.849  15.259 -0.2561  0.3748  0.0705
 3856TIP3    H133059   0.869   4.763  15.301 -1.8061 -0.0172 -0.9290
 3856TIP3    H233060   0.789   4.885  15.262  0.7256  2.9834  2.4449
 3857TIP3   OH233061   0.236   5.488   0.166 -0.2604 -0.1700 -0.6383
 3857TIP3    H133062   0.305   5.506   0.230 -0.5756  0.9561 -0.6014
 3857TIP3    H233063   0.281   5.443   0.094  0.2762 -0.5520 -0.0714
 3858TIP3   OH233064   0.359   6.190   0.822  0.0552  0.0698  0.3593
 3858TIP3    H133065   0.422   6.225   0.884  0.2404  2.2776 -0.9858
 3858TIP3    H233066   0.410   6.134   0.764  0.2367 -0.4116  0.9778
 3859TIP3   OH233067   5.857   1.351   1.507 -0.1540  0.1890 -0.5424
 3859TIP3    H133068   5.790   1.351   1.440 -0.4361 -0.3124 -0.2693
 3859TIP3    H233069   5.823   1.408   1.576  0.4157  1.2126 -1.0846
 3860TIP3   OH233070   1.992   2.581   5.987 -0.6192  0.0473 -0.0452
 3860TIP3    H133071   2.021   2.606   6.074 -0.9562  0.1965  0.0255
 3860TIP3    H233072   1.896   2.584   5.992 -0.6375  0.1696 -0.4511
 3861TIP3   OH233073   0.039   0.899  12.069  0.1150 -0.0273 -0.3434
 3861TIP3    H133074   0.019   0.837  12.139 -3.6340  0.4565 -0.7988
 3861TIP3    H233075   0.072   0.844  11.998 -1.0080 -1.2491  0.0384
 3862TIP3   OH233076   2.198   0.291   4.216 -0.3540 -0.4115 -0.0323
 3862TIP3    H133077   2.208   0.340   4.135 -2.4796  2.5168  1.3039
 3862TIP3    H233078   2.246   0.343   4.281 -1.6396 -0.7345  1.2199
 3863TIP3   OH233079   6.712   3.941  14.410  0.5859 -0.0175  0.1128
 3863TIP3    H133080   6.643   3.914  14.469  0.6842  3.7613  2.3116
 3863TIP3    H233081   6.677   3.924  14.322 -0.1542 -4.4852  1.0313
 3864TIP3   OH233082   2.069   0.364   4.916 -0.6267  0.2058  0.6330
 3864TIP3    H133083   1.980   0.367   4.880 -0.9581 -1.4742  1.2090
 3864TIP3    H233084   2.124   0.398   4.846 -1.7291  1.3902  0.3131
 3865TIP3   OH233085   2.710   1.134   4.325 -0.1826 -0.6052  0.0472
 3865TIP3    H133086   2.671   1.198   4.385 -0.8455 -0.7765 -0.1986
 3865TIP3    H233087   2.803   1.132   4.350 -0.3886 -0.4394  0.8472
 3866TIP3   OH233088   6.645   4.982   2.783  0.0316  0.1510  0.5277
 3866TIP3    H133089   6.563   4.953   2.742 -0.3256  0.6596  0.8726
 3866TIP3    H233090   6.661   4.918   2.852 -0.2451  0.2233  0.6616
 3867TIP3   OH233091   0.157   2.741   4.414  0.1835 -0.0722 -0.2227
 3867TIP3    H133092   0.153   2.814   4.476  1.0625  0.6332 -0.9717
 3867TIP3    H233093   0.081   2.754   4.357  0.6585  0.6177 -0.7198
 3868TIP3   OH233094   4.362   4.780   0.627  0.1472  0.2789 -0.0641
 3868TIP3    H133095   4.354   4.805   0.535 -1.8875 -0.7548 -0.2227
 3868TIP3    H233096   4.385   4.861   0.672  1.4072  0.7650 -1.4790
 3869TIP3   OH233097   3.712   0.793  11.749  0.3083  0.4692  0.2194
 3869TIP3    H133098   3.659   0.743  11.688 -0.5870  0.6018  0.8732
 3869TIP3    H233099   3.784   0.734  11.772 -0.5420 -0.4008  0.7163
 3870TIP3   OH233100   1.955   2.633  14.229 -0.6919 -0.0207  0.5723
 3870TIP3    H133101   1.978   2.714  14.273 -1.8722  0.4862  0.2937
 3870TIP3    H233102   1.878   2.601  14.276 -0.1456 -1.0701  0.7871
 3871TIP3   OH233103   1.441   1.505  13.851 -0.3295 -0.2914  0.0384
 3871TIP3    H133104   1.435   1.474  13.941 -0.9135 -1.7285 -0.4736
 3871TIP3    H233105   1.534   1.503  13.831 -0.3151 -1.3193  0.1658
 3872TIP3   OH233106   5.832   6.640   5.215  0.2393 -0.0884  0.0702
 3872TIP3    H133107   5.878   6.657   5.297 -1.6418 -1.1386  1.4054
 3872TIP3    H233108   5.897   6.660   5.147  1.4343  2.1575  1.7131
 3873TIP3   OH233109   4.801   6.352  14.101 -0.1111  0.5760 -0.0082
 3873TIP3    H133110   4.891   6.318  14.099 -0.3473 -0.0690 -1.6340
 3873TIP3    H233111   4.751   6.284  14.146 -0.1091 -0.0188 -0.8731
 3874TIP3   OH233112   4.483   2.224   3.923 -0.2052 -0.4318  0.5151
 3874TIP3    H133113   4.543   2.221   3.848  0.3271 -3.3083  0.9463
 3874TIP3    H233114   4.540   2.220   4.000 -0.8564 -0.6098  0.9979
 3875TIP3   OH233115   3.114   4.179   5.036  0.3055 -0.1835 -0.1586
 3875TIP3    H133116   3.026   4.140   5.042 -0.0092  0.3724 -0.9724
 3875TIP3    H233117   3.146   4.180   5.126 -0.1485 -1.2452  0.0300
 3876TIP3   OH233118   5.520   3.685  14.283  0.1273  0.2775 -0.3114
 3876TIP3    H133119   5.516   3.590  14.268 -1.4207  0.5073 -1.4806
 3876TIP3    H233120   5.531   3.723  14.196  0.1823  1.2091  0.0933
 3877TIP3   OH233121   6.498   2.802   4.737  0.1944 -0.2897 -0.2321
 3877TIP3    H133122   6.501   2.724   4.793 -1.4471 -1.4460 -1.6806
 3877TIP3    H233123   6.579   2.798   4.685  0.6913 -0.3424  0.5201
 3878TIP3   OH233124   1.863   1.409   1.003  0.1687 -0.2056  0.1657
 3878TIP3    H133125   1.883   1.405   1.096 -0.9483 -0.6254  0.4064
 3878TIP3    H233126   1.948   1.407   0.960  0.6909 -0.2082  1.1685
 3879TIP3   OH233127   2.934   2.954   2.896 -0.4980  0.0250 -0.2353
 3879TIP3    H133128   2.922   2.944   2.991 -0.5195  1.4141 -0.0808
 3879TIP3    H233129   2.972   2.870   2.869 -0.6610 -0.4677  0.9670
 3880TIP3   OH233130   1.618   6.378   5.045  0.1775  0.6200 -0.2666
 3880TIP3    H133131   1.630   6.358   5.138  0.3526  1.2040 -0.1635
 3880TIP3    H233132   1.691   6.334   5.002  0.2772  0.6107 -0.0921
 3881TIP3   OH233133   0.656   5.519   5.615  0.0177 -0.2683 -0.1817
 3881TIP3    H133134   0.715   5.443   5.618 -1.5777 -1.6448 -1.6508
 3881TIP3    H233135   0.596   5.500   5.542 -1.2342  1.8272  0.2235
 3882TIP3   OH233136   2.204   1.793   0.980 -0.2883 -0.1061  0.2348
 3882TIP3    H133137   2.169   1.725   0.922 -0.4149 -0.0547  0.2490
 3882TIP3    H233138   2.277   1.832   0.931 -1.0579  0.6503 -0.3454
 3883TIP3   OH233139   2.444   1.063   5.164  0.6552  0.0028 -0.4040
 3883TIP3    H133140   2.501   1.016   5.102  0.2002 -2.4476  0.8889
 3883TIP3    H233141   2.358   1.024   5.151 -0.5307  2.7232 -1.3816
 3884TIP3   OH233142   3.871   0.282  12.993  0.4094  0.3241  0.6633
 3884TIP3    H133143   3.843   0.336  13.067 -0.5974 -0.4570  0.8736
 3884TIP3    H233144   3.967   0.279  13.001  0.3723  0.8377  1.5091
 3885TIP3   OH233145   5.712   1.977  14.142 -0.3914 -0.1883  0.1702
 3885TIP3    H133146   5.667   2.060  14.158  1.6955  1.1034 -0.1440
 3885TIP3    H233147   5.752   1.988  14.056 -0.4230 -1.7119 -0.0644
 3886TIP3   OH233148   4.642   5.084   4.601 -0.0497 -0.6238  0.2246
 3886TIP3    H133149   4.590   5.098   4.522 -0.6033  0.1739  0.7179
 3886TIP3    H233150   4.634   4.990   4.619 -1.2173 -0.5422  0.2082
 3887TIP3   OH233151   0.264   3.081   4.397 -0.2793 -0.1553 -0.0068
 3887TIP3    H133152   0.280   3.174   4.411 -0.1442 -0.1528 -0.1770
 3887TIP3    H233153   0.322   3.057   4.324 -0.7214 -0.2517 -0.3263
 3888TIP3   OH233154   5.789   2.207  14.436  0.5088 -0.0069 -0.3612
 3888TIP3    H133155   5.753   2.259  14.364 -0.1274  0.6984  0.4568
 3888TIP3    H233156   5.884   2.214  14.424  0.4359  1.3177 -0.2970
 3889TIP3   OH233157   0.576   5.388  12.630  0.4046  0.4358 -0.6066
 3889TIP3    H133158   0.512   5.394  12.701 -0.5306  1.7570 -1.5037
 3889TIP3    H233159   0.660   5.377  12.673 -0.0724  1.7655  0.7274
 3890TIP3   OH233160   5.228   0.213  14.161 -0.8300 -0.1177  0.3805
 3890TIP3    H133161   5.158   0.275  14.141 -0.8991  0.0529  1.1326
 3890TIP3    H233162   5.219   0.144  14.095 -1.6814 -0.0760  0.4525
 3891TIP3   OH233163   5.960   4.663  12.175  0.2635  1.0504  0.1808
 3891TIP3    H133164   6.031   4.635  12.232 -0.4833  0.9940  1.1084
 3891TIP3    H233165   5.998   4.731  12.120  0.8667  1.4712  1.0992
 3892TIP3   OH233166   2.982   3.757  14.627  0.7068  0.0187 -0.0344
 3892TIP3    H133167   3.024   3.713  14.553  2.1409  2.5448 -0.8339
 3892TIP3    H233168   2.951   3.840  14.591  0.8095  1.0091  2.0142
 3893TIP3   OH233169   4.379   1.581   3.617  0.0845 -0.1913  0.0409
 3893TIP3    H133170   4.289   1.596   3.647  0.0070 -0.4979 -0.0330
 3893TIP3    H233171   4.402   1.496   3.653  0.1724 -0.3335 -0.3520
 3894TIP3   OH233172   5.339   6.679   0.254  0.1211  0.0307 -0.0904
 3894TIP3    H133173   5.366   6.641   0.337  2.1443 -0.5660 -0.9808
 3894TIP3    H233174   5.250   6.712   0.271  0.2713 -0.5567  2.1229
 3895TIP3   OH233175   2.253   3.561  16.764 -0.3307 -0.5213 -0.7807
 3895TIP3    H133176   2.256   3.550  16.859 -0.3410  0.4824 -0.6495
 3895TIP3    H233177   2.226   3.652  16.752  2.5339  0.3099 -1.6851
 3896TIP3   OH233178   2.161   5.393  13.866  0.1432  0.1852 -0.3899
 3896TIP3    H133179   2.218   5.322  13.836  0.6557  1.1535 -1.8416
 3896TIP3    H233180   2.191   5.413  13.955 -0.7144 -2.0886  0.4566
 3897TIP3   OH233181   1.225   0.509  11.163  0.0002 -0.2326 -0.3850
 3897TIP3    H133182   1.245   0.587  11.112  2.8369 -0.3963  0.2823
 3897TIP3    H233183   1.192   0.542  11.247  0.0048  0.2118 -0.5577
 3898TIP3   OH233184   3.873   6.157  13.165  0.3587  0.0787  0.2434
 3898TIP3    H133185   3.792   6.207  13.174  1.4753  1.7718  1.4053
 3898TIP3    H233186   3.904   6.175  13.076 -0.4619 -0.5161 -0.1781
 3899TIP3   OH233187   5.003   4.093   5.358 -0.5229  0.0734 -0.2244
 3899TIP3    H133188   4.981   4.171   5.410 -0.1022  0.7779 -1.0691
 3899TIP3    H233189   4.965   4.111   5.272 -1.3785 -1.1638 -0.1190
 3900TIP3   OH233190   1.432   5.234  12.128 -0.5560 -0.0899 -0.9207
 3900TIP3    H133191   1.508   5.292  12.114  1.2368 -2.2905 -0.9367
 3900TIP3    H233192   1.377   5.248  12.052  1.3495 -0.5561 -2.4666
 3901TIP3   OH233193   6.420   2.170  16.895 -0.4254 -0.3627 -0.3498
 3901TIP3    H133194   6.363   2.148  16.969  0.4319 -1.3206  0.0417
 3901TIP3    H233195   6.430   2.088  16.846  2.6728 -0.9451  1.0381
 3902TIP3   OH233196   5.052   0.717   3.321  0.0403 -0.4702  0.4113
 3902TIP3    H133197   5.042   0.667   3.240 -2.6003 -1.6887  1.3675
 3902TIP3    H233198   4.984   0.784   3.317  2.1416  1.7909  0.1408
 3903TIP3   OH233199   5.098   2.987  11.368  0.1163 -0.3640 -0.3537
 3903TIP3    H133200   5.091   3.020  11.279  0.0755  0.5982 -0.0076
 3903TIP3    H233201   5.041   2.911  11.370  1.0842 -1.1593 -1.4879
 3904TIP3   OH233202   3.571   5.870   4.914  0.2453  0.7908  0.7483
 3904TIP3    H133203   3.556   5.842   4.824 -1.8518  0.9406  0.9978
 3904TIP3    H233204   3.506   5.939   4.929  2.1349  2.4757  1.6419
 3905TIP3   OH233205   0.577   4.217  13.812  0.2972  0.4231  0.6634
 3905TIP3    H133206   0.541   4.258  13.890 -2.3416  1.8190 -1.1530
 3905TIP3    H233207   0.529   4.134  13.804 -1.8241  1.6940 -1.0434
 3906TIP3   OH233208   0.683   2.606   3.823  0.0457 -0.0318 -0.5461
 3906TIP3    H133209   0.638   2.653   3.753  2.8408  1.5695 -1.4186
 3906TIP3    H233210   0.738   2.672   3.865  0.6832 -1.5965  1.2392
 3907TIP3   OH233211   1.066   2.677  12.444 -0.4797  0.4007 -0.2573
 3907TIP3    H133212   1.072   2.597  12.392  1.2172 -0.1572  0.7060
 3907TIP3    H233213   1.100   2.746  12.388 -0.1934  0.1087 -0.4408
 3908TIP3   OH233214   5.126   3.064  10.294 -0.3150  0.0871 -0.0175
 3908TIP3    H133215   5.090   3.050  10.381 -1.3720  2.6185  0.0343
 3908TIP3    H233216   5.120   2.979  10.251 -2.2739 -0.6019  1.4940
 3909TIP3   OH233217   0.888   5.780  12.747  0.4538  0.3393 -0.1957
 3909TIP3    H133218   0.824   5.846  12.722  0.7492  1.4884  1.8508
 3909TIP3    H233219   0.928   5.753  12.664  1.6806  4.1537 -1.0408
 3910TIP3   OH233220   4.918   0.827  14.876  0.0618  0.1089 -0.0565
 3910TIP3    H133221   4.860   0.815  14.801 -1.3495  0.6273  0.8917
 3910TIP3    H233222   4.859   0.855  14.947  1.1141 -1.5291  1.5753
 3911TIP3   OH233223   1.580   0.001   4.774 -0.4436  0.2057  0.7326
 3911TIP3    H133224   1.567   0.052   4.854 -0.1404 -0.0220  0.9308
 3911TIP3    H233225   1.499  -0.048   4.763 -0.3213 -0.0937  1.1449
 3912TIP3   OH233226   4.741   4.958  14.991 -0.3392 -0.3174  0.5294
 3912TIP3    H133227   4.779   5.016  15.057  0.1084  1.2742 -1.0568
 3912TIP3    H233228   4.776   4.871  15.013  1.5261  0.5301  1.1213
 3913TIP3   OH233229   0.906   2.938  13.177  0.4048  0.4770 -0.1432
 3913TIP3    H133230   0.956   3.019  13.166 -0.0450  0.7828  0.0442
 3913TIP3    H233231   0.816   2.962  13.157  0.2956 -0.0215 -0.2654
 3914TIP3   OH233232   3.154   1.296   1.887  0.1381 -0.4961  0.3001
 3914TIP3    H133233   3.111   1.211   1.892 -0.0746 -0.3850  0.3561
 3914TIP3    H233234   3.089   1.358   1.921  0.0116 -0.2119 -0.4409
 3915TIP3   OH233235   0.706   2.678   0.158 -0.2907 -0.0170 -0.3923
 3915TIP3    H133236   0.679   2.664   0.067  0.6006 -0.8787 -0.5463
 3915TIP3    H233237   0.785   2.731   0.153 -0.2191 -0.0927 -0.1283
 3916TIP3   OH233238   4.917   2.524   2.657  0.4020 -0.0090 -0.1120
 3916TIP3    H133239   4.922   2.605   2.606  1.6619 -1.1042 -1.8378
 3916TIP3    H233240   5.007   2.493   2.661 -0.2574 -2.2702 -1.1515
 3917TIP3   OH233241   6.127   4.305  16.752  0.4153  0.2887  0.3857
 3917TIP3    H133242   6.124   4.365  16.677 -0.9887 -0.7891 -0.4663
 3917TIP3    H233243   6.207   4.254  16.738 -0.4486 -0.7468 -1.1164
 3918TIP3   OH233244   6.244   4.459  11.394  0.3436 -0.1046  0.4045
 3918TIP3    H133245   6.231   4.426  11.305 -0.7528  0.9863  0.1215
 3918TIP3    H233246   6.337   4.449  11.410  0.2831 -1.9367 -0.1899
 3919TIP3   OH233247   0.167   4.646   5.793  0.0908  0.4581  0.3810
 3919TIP3    H133248   0.144   4.726   5.746  0.2879  1.0851  1.3232
 3919TIP3    H233249   0.236   4.606   5.740  0.8436  1.5424  0.5257
 3920TIP3   OH233250   1.859   4.811   4.954 -0.7660 -0.5799 -0.5196
 3920TIP3    H133251   1.887   4.755   4.881 -1.2634 -2.4484  0.6377
 3920TIP3    H233252   1.764   4.799   4.959 -0.8243  0.0362  0.0410
 3921TIP3   OH233253   4.489   1.953  15.848  0.4304  0.0975 -0.1454
 3921TIP3    H133254   4.501   1.859  15.862  1.7961  0.2689 -0.0263
 3921TIP3    H233255   4.557   1.995  15.902  0.0625  1.1335 -0.4596
 3922TIP3   OH233256   4.832   5.997  14.067  0.1258 -0.0062  0.2026
 3922TIP3    H133257   4.785   5.983  13.984 -0.9278 -4.6930  1.2720
 3922TIP3    H233258   4.923   5.977  14.047 -0.1497 -1.2746  0.1136
 3923TIP3   OH233259   6.518   3.092   4.825  0.4530  0.0918 -0.1077
 3923TIP3    H133260   6.497   3.184   4.838 -0.4706  0.5460 -3.7007
 3923TIP3    H233261   6.436   3.053   4.794  0.9795 -1.8257  0.7753
 3924TIP3   OH233262   1.653   1.316   3.479  0.2967 -0.4232  0.0805
 3924TIP3    H133263   1.673   1.408   3.464  0.4674 -0.6167 -1.0370
 3924TIP3    H233264   1.560   1.313   3.500  0.3671  0.0291  0.4579
 3925TIP3   OH233265   6.725   0.198  12.463  0.1111  0.0972  0.4238
 3925TIP3    H133266   6.633   0.173  12.474 -0.0535  0.1839 -0.6964
 3925TIP3    H233267   6.770   0.116  12.443  0.1621  0.1675  0.2549
 3926TIP3   OH233268   2.198   4.754   4.860 -0.3963  0.1593  0.1854
 3926TIP3    H133269   2.164   4.842   4.843 -0.2958  0.1395 -0.1406
 3926TIP3    H233270   2.120   4.699   4.865 -0.4093 -0.0544 -1.5395
 3927TIP3   OH233271   5.812   4.955  17.241  0.1595  0.0588 -0.3654
 3927TIP3    H133272   5.835   4.969  17.149 -1.8094  1.0412 -0.7704
 3927TIP3    H233273   5.731   4.905  17.238 -0.4818  0.9646  0.7997
 3928TIP3   OH233274   3.658   4.631   1.894  0.1848  0.2255 -0.7344
 3928TIP3    H133275   3.626   4.575   1.823  0.4600 -0.1220 -0.5861
 3928TIP3    H233276   3.753   4.635   1.881  0.2732 -0.0849 -0.2153
 3929TIP3   OH233277   5.794   5.458   1.203 -0.5511 -0.2803 -0.1725
 3929TIP3    H133278   5.778   5.442   1.110 -0.5355 -0.6598 -0.1119
 3929TIP3    H233279   5.882   5.424   1.218 -1.5718 -2.8406  0.5782
 3930TIP3   OH233280   0.166   0.329   4.424  0.4132 -0.9474  0.2199
 3930TIP3    H133281   0.174   0.367   4.511 -1.6915 -0.2969  0.1842
 3930TIP3    H233282   0.072   0.310   4.415  0.0049  1.6754 -2.9601
 3931TIP3   OH233283   2.977   5.399  13.474 -0.0497 -0.2394 -0.0836
 3931TIP3    H133284   2.900   5.354  13.437 -0.9751  0.6563  0.7013
 3931TIP3    H233285   2.992   5.472  13.415 -0.5466  0.2719  0.4137
 3932TIP3   OH233286   4.823   5.344   3.854 -0.1577 -0.1176  0.3737
 3932TIP3    H133287   4.849   5.396   3.930 -0.9950 -0.4250  0.8818
 3932TIP3    H233288   4.882   5.269   3.854  0.7733  0.5947 -0.1139
 3933TIP3   OH233289   2.557   0.320  15.899 -0.5958 -0.6922  0.4763
 3933TIP3    H133290   2.487   0.377  15.869  0.0807 -0.7488 -1.3208
 3933TIP3    H233291   2.515   0.235  15.911 -0.8074 -0.7923 -0.8467
 3934TIP3   OH233292   2.726   2.300   2.479  0.0494  0.0616 -0.2946
 3934TIP3    H133293   2.712   2.237   2.550 -1.4164  1.6390  0.8790
 3934TIP3    H233294   2.689   2.382   2.512  1.2833  1.3823 -2.0509
 3935TIP3   OH233295   4.543   4.006   4.886 -0.0081 -0.2643  0.0851
 3935TIP3    H133296   4.448   4.015   4.880 -0.0081 -0.5318 -0.3310
 3935TIP3    H233297   4.556   3.941   4.956 -0.2332 -2.2534 -1.6298
 3936TIP3   OH233298   4.689   4.923   5.950 -0.1425  0.2104  0.7282
 3936TIP3    H133299   4.593   4.931   5.954 -0.3970 -1.2122 -1.1243
 3936TIP3    H233300   4.717   5.001   5.902 -0.5330 -0.0552  0.0514
 3937TIP3   OH233301   6.725   1.091  12.244 -0.3985  0.1603  0.1615
 3937TIP3    H133302   6.666   1.037  12.296  0.2588 -0.7202  0.0255
 3937TIP3    H233303   6.782   1.028  12.198 -0.2105  0.9416 -0.7253
 3938TIP3   OH233304   1.473   1.598   2.217 -0.3462  0.1536  0.1381
 3938TIP3    H133305   1.492   1.509   2.186  0.7793  0.1876  0.6686
 3938TIP3    H233306   1.413   1.586   2.290  1.0759 -0.3302  1.2829
 3939TIP3   OH233307   1.265   1.127   0.532 -0.6079 -0.8251 -0.5438
 3939TIP3    H133308   1.316   1.155   0.456  0.1998 -1.0865 -0.1070
 3939TIP3    H233309   1.175   1.151   0.510 -0.5504 -1.7856 -2.0266
 3940TIP3   OH233310   3.156   5.440  16.381 -0.3335  0.0679 -0.9702
 3940TIP3    H133311   3.105   5.478  16.309  0.9197  2.0297 -0.8929
 3940TIP3    H233312   3.245   5.434  16.347  0.3130  1.1797  0.4308
 3941TIP3   OH233313   5.839   4.220   5.085  0.2040 -0.6524 -0.0572
 3941TIP3    H133314   5.743   4.221   5.089  0.2461 -0.0785  1.4850
 3941TIP3    H233315   5.862   4.127   5.094 -0.2142 -0.8166 -0.6525
 3942TIP3   OH233316   0.017   3.616  16.196 -0.1567 -0.3603  0.4919
 3942TIP3    H133317  -0.022   3.641  16.280  0.5301 -0.7169  0.9195
 3942TIP3    H233318   0.111   3.619  16.211 -0.0070  0.1905 -0.4533
 3943TIP3   OH233319   2.130   5.478  11.171  0.3149  0.1285 -0.0430
 3943TIP3    H133320   2.207   5.535  11.174  0.8815 -0.6348  0.5801
 3943TIP3    H233321   2.166   5.390  11.180 -0.5761 -0.2980 -0.5418
 3944TIP3   OH233322   2.606   4.355  15.493  0.0693  0.3181  0.7702
 3944TIP3    H133323   2.623   4.300  15.570 -0.2935  1.4616  1.6854
 3944TIP3    H233324   2.583   4.441  15.529  1.4978  1.3376 -0.6520
 3945TIP3   OH233325   3.696   6.213   3.966 -0.0439 -0.3303 -0.5317
 3945TIP3    H133326   3.711   6.307   3.953 -0.4465  0.0793  1.5830
 3945TIP3    H233327   3.769   6.171   3.920 -0.2978  0.9538 -2.2066
 3946TIP3   OH233328   5.108   0.406   1.171  0.5259 -0.1072 -0.4475
 3946TIP3    H133329   5.097   0.311   1.164 -0.1824 -0.0725  0.0997
 3946TIP3    H233330   5.140   0.433   1.085 -1.1891 -0.5746 -1.2752
 3947TIP3   OH233331   5.854   5.958  11.792 -0.2441 -0.2550  0.8180
 3947TIP3    H133332   5.932   6.012  11.784  0.7600 -1.6138  1.0214
 3947TIP3    H233333   5.860   5.896  11.719 -0.4011 -1.2501  1.6270
 3948TIP3   OH233334   5.060   3.565  12.397  0.0422  0.3019 -0.0633
 3948TIP3    H133335   5.086   3.485  12.442 -1.8131 -0.6704 -0.6229
 3948TIP3    H233336   4.982   3.595  12.443 -0.5616  0.5434 -1.2004
 3949TIP3   OH233337   4.197   0.058  11.757  0.5883 -0.4629 -0.1699
 3949TIP3    H133338   4.125   0.092  11.809 -0.5465 -2.0978 -0.6054
 3949TIP3    H233339   4.269   0.120  11.772 -0.7743  1.0141  0.5383
 3950TIP3   OH233340   3.187   5.545   5.508 -0.3068  0.2335  0.2440
 3950TIP3    H133341   3.198   5.560   5.414  1.2282  1.3421  0.5499
 3950TIP3    H233342   3.167   5.632   5.544 -0.8643 -0.1763  0.9390
 3951TIP3   OH233343   6.725   4.409   5.853 -0.3915 -0.0171  0.2421
 3951TIP3    H133344   6.650   4.380   5.801 -0.1432 -2.2034  1.0017
 3951TIP3    H233345   6.783   4.451   5.789 -2.2498  1.8923 -0.3443
 3952TIP3   OH233346   2.642   3.563  15.691  0.6025  0.0024  0.3720
 3952TIP3    H133347   2.689   3.584  15.772  1.1419  0.8400 -0.1470
 3952TIP3    H233348   2.643   3.644  15.641  0.9694 -0.7079 -0.8168
 3953TIP3   OH233349   6.205   4.502  17.001 -0.0756  0.3094 -0.2280
 3953TIP3    H133350   6.170   4.431  17.055  0.3809 -1.3240 -1.9728
 3953TIP3    H233351   6.145   4.507  16.927 -0.1835  1.8947 -0.0691
 3954TIP3   OH233352   3.825   2.154   0.212 -0.5183  0.0532 -0.6952
 3954TIP3    H133353   3.745   2.129   0.165 -1.0911  1.8134 -0.7189
 3954TIP3    H233354   3.881   2.193   0.144 -0.4438  0.5965 -0.3222
 3955TIP3   OH233355   6.472   5.788   4.973 -0.1668  0.0446 -0.4618
 3955TIP3    H133356   6.463   5.859   5.037  1.6042 -0.1851  0.1073
 3955TIP3    H233357   6.564   5.792   4.947 -0.5178 -0.7837 -1.9446
 3956TIP3   OH233358   3.984   3.866   1.171 -0.0325 -0.2246  0.2852
 3956TIP3    H133359   3.938   3.913   1.102 -2.4013 -3.1226 -0.3429
 3956TIP3    H233360   3.963   3.913   1.251 -0.0444  1.2832 -0.5647
 3957TIP3   OH233361   0.373   4.588   1.359 -0.1984  0.4357  0.2342
 3957TIP3    H133362   0.419   4.508   1.383  0.5433  0.6574 -0.3974
 3957TIP3    H233363   0.300   4.558   1.305 -0.6394  0.1034  1.0010
 3958TIP3   OH233364   4.117   0.842  12.195  0.0671 -0.0338  0.1437
 3958TIP3    H133365   4.097   0.871  12.106 -0.8448 -2.1230 -0.3721
 3958TIP3    H233366   4.076   0.908  12.251 -3.1461 -0.9057 -0.9673
 3959TIP3   OH233367   4.546   2.894   1.198 -0.0470 -0.1894  0.1305
 3959TIP3    H133368   4.540   2.808   1.156  2.1263 -0.1752 -0.3506
 3959TIP3    H233369   4.567   2.954   1.127  0.9872  0.2939  0.8168
 3960TIP3   OH233370   6.566   1.531   5.920 -0.3614 -0.1478  0.7434
 3960TIP3    H133371   6.548   1.468   5.990  1.0683  0.7563  1.9977
 3960TIP3    H233372   6.480   1.565   5.896 -0.9324 -0.8463  1.6999
 3961TIP3   OH233373   5.046   1.672   2.023 -0.2573  0.1990  0.1902
 3961TIP3    H133374   4.979   1.614   2.061 -1.3677  1.8995  0.9226
 3961TIP3    H233375   5.105   1.690   2.096 -0.5714  0.9007  0.2728
 3962TIP3   OH233376   2.030   5.874  12.455 -0.0019  0.3767  0.1040
 3962TIP3    H133377   2.025   5.791  12.502 -0.0088  0.1203 -0.3434
 3962TIP3    H233378   2.086   5.929  12.509 -0.0471  0.1028  0.4344
 3963TIP3   OH233379   0.848   2.433  16.281  0.2403  0.1461 -0.3058
 3963TIP3    H133380   0.772   2.377  16.297  1.3044 -1.6112 -1.0825
 3963TIP3    H233381   0.823   2.519  16.315 -2.6486  0.0372 -1.9201
 3964TIP3   OH233382   5.352   3.706   5.149 -0.3769 -0.2038 -0.1293
 3964TIP3    H133383   5.378   3.774   5.212  0.2670 -0.9907  0.4877
 3964TIP3    H233384   5.300   3.752   5.084  0.6942  1.0375 -0.1538
 3965TIP3   OH233385   2.059   2.910  14.005 -0.1815 -0.6090 -0.3272
 3965TIP3    H133386   2.151   2.934  14.016 -0.4070 -0.3667  1.3251
 3965TIP3    H233387   2.022   2.916  14.093 -2.3992  1.8699 -1.2855
 3966TIP3   OH233388   2.365   6.189  10.984  0.0267  0.7456 -0.2031
 3966TIP3    H133389   2.414   6.237  10.917 -0.1744 -0.3327 -1.1622
 3966TIP3    H233390   2.417   6.198  11.063  2.1783 -0.8613 -1.3140
 3967TIP3   OH233391   0.547   1.883   0.272  0.1394 -0.4346  0.7659
 3967TIP3    H133392   0.577   1.816   0.333 -0.7833 -0.1827  1.5266
 3967TIP3    H233393   0.482   1.839   0.217  0.3340 -0.4391  0.5370
 3968TIP3   OH233394   6.542   5.317  16.298 -0.4710  0.1199  0.0568
 3968TIP3    H133395   6.593   5.397  16.284 -0.0623 -0.1795 -0.1689
 3968TIP3    H233396   6.453   5.341  16.275 -0.3834  0.5676  0.1778
 3969TIP3   OH233397   3.930   1.413   0.099 -0.2420 -0.1067 -0.0765
 3969TIP3    H133398   3.989   1.395   0.026  0.6593 -0.4988  0.7095
 3969TIP3    H233399   3.982   1.469   0.158  0.2795 -2.3358  1.7423
 3970TIP3   OH233400   2.755   0.108  11.910 -0.1157 -0.1313  0.1004
 3970TIP3    H133401   2.831   0.062  11.945  0.4519  1.1907  0.6547
 3970TIP3    H233402   2.692   0.110  11.982 -0.5503 -0.9294 -0.2508
 3971TIP3   OH233403   4.796   3.409   2.043 -0.5648  0.1754  0.2119
 3971TIP3    H133404   4.862   3.456   2.094  0.5564 -2.4703  1.3680
 3971TIP3    H233405   4.721   3.468   2.041  0.9778  2.2747  0.9545
 3972TIP3   OH233406   1.281   2.034   3.403 -0.0826  0.5219  0.2642
 3972TIP3    H133407   1.200   2.084   3.412 -0.3700 -0.2207  2.1764
 3972TIP3    H233408   1.329   2.078   3.333 -2.9655 -0.1641 -2.3562
 3973TIP3   OH233409   4.144   1.236   1.604 -0.4356  0.3668  0.7145
 3973TIP3    H133410   4.235   1.266   1.599  0.2944 -1.7442  0.3432
 3973TIP3    H233411   4.151   1.141   1.611 -2.6711 -0.0128 -1.1391
 3974TIP3   OH233412   3.620   6.308  13.108  0.4468 -0.1875 -0.2672
 3974TIP3    H133413   3.564   6.303  13.186 -0.4884 -0.4122 -0.9351
 3974TIP3    H233414   3.581   6.246  13.046  1.0281  0.1651 -1.0050
 3975TIP3   OH233415   1.952   1.105  13.177  0.3007  0.5552  0.0478
 3975TIP3    H133416   1.943   1.011  13.193 -0.5825  0.2365 -2.0988
 3975TIP3    H233417   1.911   1.146  13.253  0.4849 -0.7710  0.8965
 3976TIP3   OH233418   4.126   6.427   4.729 -0.1893 -0.3485  0.2452
 3976TIP3    H133419   4.212   6.469   4.738  0.0357 -1.1253  2.1804
 3976TIP3    H233420   4.077   6.485   4.671  0.2121  2.4545  2.5076
 3977TIP3   OH233421   6.651   2.228  12.903 -0.3352  0.4616 -0.4766
 3977TIP3    H133422   6.621   2.159  12.843  3.4210  0.9952 -3.3761
 3977TIP3    H233423   6.724   2.188  12.950  0.1111  1.6074 -0.1677
 3978TIP3   OH233424   2.396   3.947  15.906 -0.2814 -0.2946 -0.6561
 3978TIP3    H133425   2.413   4.026  15.958 -0.5015 -0.0192 -0.9914
 3978TIP3    H233426   2.478   3.931  15.859 -0.2370 -0.2634 -0.5896
 3979TIP3   OH233427   2.245   4.882   2.807 -0.1799  0.1500 -0.1036
 3979TIP3    H133428   2.222   4.972   2.785 -0.6904  0.8134  2.7007
 3979TIP3    H233429   2.165   4.832   2.792 -0.0056  0.2182 -1.3075
 3980TIP3   OH233430   0.670   2.628   0.962 -0.2487 -0.2533  0.1329
 3980TIP3    H133431   0.696   2.705   0.912 -0.2435 -1.2508 -1.4790
 3980TIP3    H233432   0.587   2.601   0.923  0.9828 -2.5290 -1.1459
 3981TIP3   OH233433   2.693   5.892  13.428 -0.2820  0.5489 -1.0837
 3981TIP3    H133434   2.597   5.899  13.430 -0.3882 -0.5582 -1.5298
 3981TIP3    H233435   2.722   5.977  13.395 -0.9974  1.5014  0.5863
 3982TIP3   OH233436   2.566   6.008  16.915 -0.1300 -0.2202 -0.3811
 3982TIP3    H133437   2.484   6.010  16.865  0.0575  1.3163 -0.6690
 3982TIP3    H233438   2.569   6.093  16.959  0.4384 -0.9665  1.0737
 3983TIP3   OH233439   6.725   2.704   4.223 -0.3022 -0.1634  0.3300
 3983TIP3    H133440   6.692   2.616   4.242  0.0668 -0.0562  1.5425
 3983TIP3    H233441   6.674   2.762   4.278  1.6560  0.0250  2.0801
 3984TIP3   OH233442   3.935   1.717   4.851 -0.1788  0.4382  0.1299
 3984TIP3    H133443   3.977   1.732   4.935 -0.1361 -2.4275  0.7180
 3984TIP3    H233444   4.007   1.713   4.788 -0.0022  0.2978  0.3403
 3985TIP3   OH233445   4.904   6.168   2.450  0.5899  0.5452  0.0868
 3985TIP3    H133446   4.833   6.105   2.441  1.2715 -0.0283 -1.6749
 3985TIP3    H233447   4.943   6.174   2.362  1.6438  2.1187  0.6062
 3986TIP3   OH233448   6.125   1.466  11.383 -0.5747  0.2171 -0.0529
 3986TIP3    H133449   6.033   1.457  11.360 -0.7775  0.7695  0.5159
 3986TIP3    H233450   6.125   1.521  11.461  0.0268 -2.3629  1.9148
 3987TIP3   OH233451   1.006   6.145  17.181  0.0390 -0.1759  0.5975
 3987TIP3    H133452   0.962   6.069  17.218 -1.7447  0.5377  0.0484
 3987TIP3    H233453   0.935   6.200  17.146  1.3887  0.8725 -0.6500
 3988TIP3   OH233454   0.126   3.424  10.996 -0.5730  0.0363  0.5344
 3988TIP3    H133455   0.217   3.452  10.993 -0.2472 -1.0333  0.0324
 3988TIP3    H233456   0.113   3.395  11.086 -0.0685 -0.9232  0.3030
 3989TIP3   OH233457   5.312   3.886   3.215 -0.4724 -0.4668 -0.3879
 3989TIP3    H133458   5.313   3.874   3.310  0.1192 -0.4544 -0.3876
 3989TIP3    H233459   5.404   3.901   3.192 -0.9862  5.0418 -0.2646
 3990TIP3   OH233460   0.311   1.788  11.337 -0.0698  0.4738 -0.1716
 3990TIP3    H133461   0.322   1.882  11.346 -0.4765  0.5590 -0.5506
 3990TIP3    H233462   0.385   1.760  11.284  0.3420  0.4987  0.3813
 3991TIP3   OH233463   0.326   0.755  15.105 -0.4930 -0.1597  0.4820
 3991TIP3    H133464   0.333   0.661  15.124  0.1598 -0.3032 -0.3606
 3991TIP3    H233465   0.295   0.758  15.015  1.2830  0.3855 -0.1561
 3992TIP3   OH233466   6.321   5.524  14.514 -0.0079 -0.1153 -0.0707
 3992TIP3    H133467   6.266   5.568  14.579  0.6896 -0.2486  0.6181
 3992TIP3    H233468   6.409   5.526  14.551  0.0918 -1.8751 -0.1372
 3993TIP3   OH233469   2.027   4.367   0.063 -0.6099 -0.4161  0.7936
 3993TIP3    H133470   2.010   4.412  -0.020  2.6966 -0.3898 -0.0041
 3993TIP3    H233471   2.001   4.430   0.130 -0.5193  0.8000 -0.2757
 3994TIP3   OH233472   1.967   2.504  11.702 -0.2511 -0.5587  0.2530
 3994TIP3    H133473   1.872   2.516  11.697 -0.2488 -0.6902 -0.1305
 3994TIP3    H233474   1.981   2.413  11.679 -0.0411 -0.5788  0.4547
 3995TIP3   OH233475   1.884   3.823  16.470 -0.2130  0.4036  0.2452
 3995TIP3    H133476   1.942   3.866  16.407 -1.4165  0.6994 -0.6815
 3995TIP3    H233477   1.886   3.880  16.547 -1.5388  2.0325 -0.8424
 3996TIP3   OH233478   2.188   3.218  15.769 -0.1410 -0.6848  0.1777
 3996TIP3    H133479   2.218   3.145  15.714  0.8619 -0.5567  0.5171
 3996TIP3    H233480   2.266   3.274  15.778 -0.5783 -0.1717  0.8653
 3997TIP3   OH233481   0.396   1.857   1.853  0.0837 -0.3678 -0.5601
 3997TIP3    H133482   0.416   1.914   1.779  0.8723 -1.3360 -1.1147
 3997TIP3    H233483   0.383   1.771   1.814  0.5119 -0.8912  0.4212
 3998TIP3   OH233484   3.723   1.243   0.120 -0.6069 -0.2081  0.0058
 3998TIP3    H133485   3.800   1.294   0.145 -0.4544  0.2123 -1.2523
 3998TIP3    H233486   3.749   1.198   0.040 -1.6200 -0.1783 -0.3590
 3999TIP3   OH233487   6.738   3.339   5.545  1.1253  0.1243 -0.4989
 3999TIP3    H133488   6.658   3.305   5.584  1.2833 -2.1543 -1.9400
 3999TIP3    H233489   6.710   3.381   5.464  1.3802 -0.8752 -1.1187
 4000TIP3   OH233490   3.231   5.204   4.778  0.0335  0.3982  0.0081
 4000TIP3    H133491   3.323   5.207   4.805 -0.0792 -0.5817  0.5464
 4000TIP3    H233492   3.186   5.261   4.841  0.2524  0.7741 -0.1751
 4001TIP3   OH233493   2.386   1.658   4.880  0.2070 -0.1120  0.6003
 4001TIP3    H133494   2.376   1.575   4.927 -0.1681 -0.2517  0.2837
 4001TIP3    H233495   2.456   1.704   4.926  1.7236 -1.3930 -0.3537
 4002TIP3   OH233496   1.084   4.375   3.944 -0.2417  0.0901  0.1642
 4002TIP3    H133497   1.106   4.296   3.994 -1.5394  1.3692  3.0118
 4002TIP3    H233498   1.144   4.442   3.978 -2.9608  1.6798  2.2450
 4003TIP3   OH233499   2.583   0.645   4.433 -0.2140  0.5797 -0.1249
 4003TIP3    H133500   2.520   0.664   4.363  0.4889 -0.6296 -1.1222
 4003TIP3    H233501   2.635   0.572   4.399  0.9210  0.7496  1.1865
 4004TIP3   OH233502   0.894   2.098   4.809 -0.3776  0.2256  0.4475
 4004TIP3    H133503   0.853   2.146   4.737  2.4596 -0.1994 -1.6383
 4004TIP3    H233504   0.889   2.006   4.782  0.9157  0.0861  0.6381
 4005TIP3   OH233505   4.993   0.401   3.085  0.3948 -0.2002 -0.2992
 4005TIP3    H133506   5.045   0.418   3.163  1.3015  0.1302 -0.9517
 4005TIP3    H233507   4.975   0.488   3.049  0.0878 -0.3527 -0.5138
 4006TIP3   OH233508   5.879   0.523  15.273 -0.0241  0.1099 -0.5505
 4006TIP3    H133509   5.891   0.547  15.364  0.6832  1.8915 -1.0750
 4006TIP3    H233510   5.786   0.539  15.256  0.3960  2.6827 -0.8631
 4007TIP3   OH233511   0.847   0.862  12.697  0.1768 -0.1742 -0.1863
 4007TIP3    H133512   0.832   0.792  12.633  0.4104  1.5025 -2.1697
 4007TIP3    H233513   0.939   0.886  12.685  0.7026 -0.8712  1.9497
 4008TIP3   OH233514   2.728   6.688  16.073 -0.2521  0.0399 -0.0158
 4008TIP3    H133515   2.737   6.780  16.051  0.8691 -0.2010 -0.6249
 4008TIP3    H233516   2.683   6.649  15.998 -1.6642  0.2602  0.6890
 4009TIP3   OH233517   5.228   1.485  12.724  0.0915 -0.6495 -0.7998
 4009TIP3    H133518   5.144   1.517  12.689  0.1443  0.1181 -0.2409
 4009TIP3    H233519   5.292   1.507  12.656  0.1218  0.4215 -0.4372
 4010TIP3   OH233520   4.950   4.442   0.310  0.0647  0.2798  0.1693
 4010TIP3    H133521   4.878   4.493   0.346  0.2644 -1.4284  3.3176
 4010TIP3    H233522   4.910   4.360   0.282  0.6265 -0.5147  1.5625
 4011TIP3   OH233523   1.666   4.468   3.168  0.2741 -0.3853  0.3491
 4011TIP3    H133524   1.707   4.544   3.126  0.6675  0.3101  1.9353
 4011TIP3    H233525   1.577   4.498   3.189  0.7558  0.0398  1.9216
 4012TIP3   OH233526   3.331   3.854  12.321 -0.1597 -0.1758 -0.0697
 4012TIP3    H133527   3.276   3.801  12.263 -1.7374  2.2260 -0.9095
 4012TIP3    H233528   3.419   3.844  12.285 -0.1605 -2.9578  0.4345
 4013TIP3   OH233529   5.494   3.562   4.254 -0.2259  0.3837 -0.4614
 4013TIP3    H133530   5.427   3.498   4.279 -0.4030  0.0062 -1.8330
 4013TIP3    H233531   5.461   3.602   4.174  2.0551 -1.2749 -2.3676
 4014TIP3   OH233532   2.121   4.867  11.550 -0.1245 -0.4658 -0.1147
 4014TIP3    H133533   2.176   4.872  11.628  1.1678  0.3687 -1.0390
 4014TIP3    H233534   2.128   4.776  11.520  0.8431 -0.3391 -0.2802
 4015TIP3   OH233535   3.638   2.589  13.887  0.0938 -0.1208  0.1078
 4015TIP3    H133536   3.726   2.627  13.885  0.3769 -0.7470  0.3950
 4015TIP3    H233537   3.586   2.652  13.936  0.8716 -0.7496  1.8200
 4016TIP3   OH233538   3.312   5.134   2.668 -0.0321 -0.0050 -0.2640
 4016TIP3    H133539   3.266   5.201   2.619 -3.1858 -2.3017 -0.7381
 4016TIP3    H233540   3.268   5.130   2.752  1.3405 -0.2397  0.4771
 4017TIP3   OH233541   3.184   4.053   3.245 -0.7516  0.2852  0.3013
 4017TIP3    H133542   3.130   3.974   3.235  0.0500 -0.2098 -0.2126
 4017TIP3    H233543   3.218   4.047   3.334 -0.3957 -0.1410  0.1384
 4018TIP3   OH233544   6.332   0.934  17.220  0.5559  0.1086 -0.5567
 4018TIP3    H133545   6.274   0.877  17.271  0.3903  1.0472  0.3426
 4018TIP3    H233546   6.278   1.011  17.201  1.2459  0.6313 -0.4263
 4019TIP3   OH233547   3.582   3.147  16.768  0.7363 -0.4331  0.1384
 4019TIP3    H133548   3.615   3.066  16.728  2.1792  0.9079 -1.5918
 4019TIP3    H233549   3.569   3.126  16.860  0.8912 -2.6690 -0.3063
 4020TIP3   OH233550   3.887   4.529   4.783 -0.6829  0.1734  0.1027
 4020TIP3    H133551   3.881   4.473   4.706 -0.0761  1.2342 -0.7465
 4020TIP3    H233552   3.821   4.597   4.769 -0.6324  0.3168  0.5546
 4021TIP3   OH233553   5.093   2.843  14.952  0.0840  0.1157 -0.1643
 4021TIP3    H133554   5.017   2.891  14.984  0.2557  0.9748 -1.0131
 4021TIP3    H233555   5.057   2.779  14.890  0.0095  0.1930 -0.2006
 4022TIP3   OH233556   3.246   2.270  14.037  0.7384  0.0312  0.1895
 4022TIP3    H133557   3.318   2.232  13.986  0.9550 -0.6447  0.9558
 4022TIP3    H233558   3.223   2.200  14.099  1.0474  1.1020  1.5552
 4023TIP3   OH233559   1.533   4.052   0.444 -0.0341 -0.3131  0.4570
 4023TIP3    H133560   1.468   3.999   0.490 -0.5035 -1.8579 -1.7864
 4023TIP3    H233561   1.547   4.005   0.362  1.3102  1.8631 -0.6392
 4024TIP3   OH233562   0.256   3.821   5.237  0.3363 -0.1878 -0.0824
 4024TIP3    H133563   0.324   3.810   5.304  0.8724 -1.6408 -0.8139
 4024TIP3    H233564   0.181   3.771   5.270  0.6421 -1.0070 -0.5909
 4025TIP3   OH233565   1.880   2.799   1.169 -0.1118  1.1656 -0.1131
 4025TIP3    H133566   1.951   2.804   1.106 -1.9343 -1.4818 -2.6584
 4025TIP3    H233567   1.837   2.884   1.166  1.0544  1.7374 -0.8912
 4026TIP3   OH233568   0.999   5.789   3.754 -0.6259  0.2129  0.5077
 4026TIP3    H133569   0.971   5.877   3.729 -1.2708  0.1945  1.1389
 4026TIP3    H233570   0.934   5.730   3.715  0.4300 -0.0888 -0.8847
 4027TIP3   OH233571   0.843   0.277  11.756  0.2500 -0.2694 -0.4190
 4027TIP3    H133572   0.921   0.301  11.706 -0.1140 -0.2980 -1.0140
 4027TIP3    H233573   0.852   0.183  11.771  0.8093 -0.0982  0.3762
 4028TIP3   OH233574   3.919   1.542   2.004  0.6954  0.1261 -0.0731
 4028TIP3    H133575   3.919   1.633   2.031 -1.1920  0.2430 -0.3421
 4028TIP3    H233576   3.851   1.536   1.937  0.6625 -1.5009  0.0470
 4029TIP3   OH233577   4.030   4.713   4.049  0.7945 -0.0301  1.1186
 4029TIP3    H133578   4.000   4.801   4.024  2.3480 -0.1119 -1.3939
 4029TIP3    H233579   4.121   4.710   4.020  1.1224 -2.1189  2.2024
 4030TIP3   OH233580   3.462   0.318  16.080 -0.6371  0.1232  0.0932
 4030TIP3    H133581   3.387   0.292  16.026 -0.6836 -0.3858  0.3976
 4030TIP3    H233582   3.430   0.390  16.133 -0.3243  1.2808 -1.2295
 4031TIP3   OH233583   3.353   2.134  11.479 -0.2530 -0.1200  0.8548
 4031TIP3    H133584   3.302   2.057  11.503  0.7135 -1.5115 -1.2950
 4031TIP3    H233585   3.311   2.206  11.526 -3.0100 -1.4705  0.6598
 4032TIP3   OH233586   2.197   3.309  13.880  0.3778  0.4319  0.6425
 4032TIP3    H133587   2.241   3.385  13.842  0.3555  0.6785  1.1009
 4032TIP3    H233588   2.226   3.309  13.972 -1.3666  1.2129  1.2388
 4033TIP3   OH233589   4.934   0.869  16.388 -0.2839 -0.1673  0.2133
 4033TIP3    H133590   5.020   0.865  16.347 -0.5801  0.8333 -0.5365
 4033TIP3    H233591   4.878   0.911  16.323 -1.1781 -0.1615  0.9668
 4034TIP3   OH233592   6.716   3.871  13.874  0.1512  0.0555  0.1931
 4034TIP3    H133593   6.628   3.839  13.857  0.5890 -0.9798 -0.2104
 4034TIP3    H233594   6.720   3.956  13.830 -0.1361 -0.6167 -1.1860
 4035TIP3   OH233595   3.414   6.005  13.666 -0.2880  0.3005  0.1303
 4035TIP3    H133596   3.322   5.979  13.668  0.2360 -1.6688  0.6170
 4035TIP3    H233597   3.437   6.022  13.757  0.2816 -1.0320  0.2572
 4036TIP3   OH233598   4.439   4.798   1.001 -0.2024  0.2166 -0.0513
 4036TIP3    H133599   4.426   4.703   0.992 -0.1498  0.3110 -1.2608
 4036TIP3    H233600   4.351   4.833   1.014 -0.4267  0.1596 -1.3035
 4037TIP3   OH233601   5.015   5.783   3.153  0.2291  0.5561  0.2817
 4037TIP3    H133602   5.063   5.800   3.234  1.3550  0.0016 -0.2530
 4037TIP3    H233603   4.922   5.788   3.179  0.5658  0.4145  1.5921
 4038TIP3   OH233604   4.238   3.379  15.321 -0.2406  0.7085 -0.3651
 4038TIP3    H133605   4.173   3.314  15.295 -0.3931  0.2078  1.1425
 4038TIP3    H233606   4.194   3.432  15.387  0.1241  1.8888 -1.0534
 4039TIP3   OH233607   5.961   3.123   1.290  0.1925 -0.2922 -0.1717
 4039TIP3    H133608   6.002   3.156   1.370  0.4062 -0.9325 -0.0121
 4039TIP3    H233609   5.954   3.200   1.233 -3.5936  1.1501  1.8963
 4040TIP3   OH233610   1.979   2.590   6.526 -0.3424  0.3946  0.2526
 4040TIP3    H133611   2.020   2.560   6.445  0.8745  1.3689  0.4813
 4040TIP3    H233612   1.890   2.554   6.522  0.5291 -1.8379 -0.1964
 4041TIP3   OH233613   2.868   1.221   0.815  0.4302 -0.0457  0.5357
 4041TIP3    H133614   2.926   1.213   0.739 -0.5325  2.3709 -0.5454
 4041TIP3    H233615   2.861   1.132   0.849  3.1597 -0.7526 -0.4648
 4042TIP3   OH233616   0.447   3.172   6.494 -0.0285 -0.0467  0.1600
 4042TIP3    H133617   0.464   3.077   6.491 -0.0632 -0.0517  0.1206
 4042TIP3    H233618   0.502   3.203   6.566  1.5796  0.2422 -1.1384
 4043TIP3   OH233619   4.669   1.531  16.437 -0.6973 -0.3366  0.0494
 4043TIP3    H133620   4.633   1.463  16.494  0.6843 -1.3494 -0.2249
 4043TIP3    H233621   4.764   1.517  16.441 -0.5273 -0.1351 -2.1131
 4044TIP3   OH233622   3.811   0.014   6.304  0.3057 -0.4060  0.2107
 4044TIP3    H133623   3.846  -0.052   6.364  1.6944  1.0982  1.1402
 4044TIP3    H233624   3.843   0.097   6.339 -1.4537  0.7879 -0.8757
 4045TIP3   OH233625   2.758   1.638   3.729 -0.4330 -0.7206 -0.0963
 4045TIP3    H133626   2.714   1.651   3.813 -0.9127 -1.8097 -0.1571
 4045TIP3    H233627   2.815   1.714   3.719  0.4560 -1.0990  1.7186
 4046TIP3   OH233628   0.164   4.524   3.492  0.1983  0.1773  0.8356
 4046TIP3    H133629   0.235   4.581   3.464  0.5395 -0.0947  1.1322
 4046TIP3    H233630   0.170   4.523   3.587  0.0077 -0.1115  0.8455
 4047TIP3   OH233631   1.398   1.347  12.601 -0.0764 -0.1893  0.0438
 4047TIP3    H133632   1.452   1.392  12.666 -0.8364  0.9212 -0.0766
 4047TIP3    H233633   1.457   1.330  12.528  0.9410 -1.9695  1.2098
 4048TIP3   OH233634   0.366   5.981   1.103 -0.2787 -0.1876 -0.0790
 4048TIP3    H133635   0.374   5.886   1.091  1.5657 -0.0957  0.0955
 4048TIP3    H233636   0.388   6.018   1.017 -0.4666  0.0926 -0.0076
 4049TIP3   OH233637   2.958   6.788   3.340  0.1544 -0.1663 -0.0017
 4049TIP3    H133638   2.965   6.843   3.262  0.5098  0.4861  0.4862
 4049TIP3    H233639   2.906   6.840   3.401 -0.2786 -0.7506  0.1420
 4050TIP3   OH233640   3.088   6.329   1.218 -0.4255  0.2091  0.5423
 4050TIP3    H133641   3.087   6.403   1.279 -1.1988  0.2817  0.4552
 4050TIP3    H233642   3.179   6.298   1.218  0.1670  1.8054 -0.1882
 4051TIP3   OH233643   1.436   3.307  12.867  0.2545 -0.2988 -0.2750
 4051TIP3    H133644   1.476   3.352  12.793  1.8671 -1.6507 -0.2917
 4051TIP3    H233645   1.448   3.214  12.847 -1.0649 -0.7124  0.7510
 4052TIP3   OH233646   5.004   4.615  13.676  0.2468 -0.9460 -0.5867
 4052TIP3    H133647   4.909   4.613  13.662  0.0239  2.8163 -0.5508
 4052TIP3    H233648   5.019   4.549  13.743 -2.3232 -1.7314 -0.6701
 4053TIP3   OH233649   2.606   4.136  15.637 -0.3688 -0.2580 -0.6527
 4053TIP3    H133650   2.625   4.077  15.710 -1.1716 -0.2833 -0.4554
 4053TIP3    H233651   2.683   4.129  15.580  1.0715  1.0666  1.0047
 4054TIP3   OH233652   2.431   2.800   0.458 -0.3785  0.0164  1.0336
 4054TIP3    H133653   2.439   2.823   0.365 -2.1219  0.8343  1.0416
 4054TIP3    H233654   2.463   2.878   0.505  0.5112 -0.4007  1.1415
 4055TIP3   OH233655   1.457   5.063  17.153  0.3077 -0.2261 -0.3730
 4055TIP3    H133656   1.526   5.050  17.218 -0.3416 -0.5023  0.2688
 4055TIP3    H233657   1.464   4.987  17.095  0.5688 -0.2300 -0.3375
 4056TIP3   OH233658   0.201   2.360  12.063  0.5384  0.1617 -0.6675
 4056TIP3    H133659   0.140   2.307  12.115 -1.2291  1.9919 -0.7289
 4056TIP3    H233660   0.224   2.434  12.120 -0.9158  1.8580 -2.1506
 4057TIP3   OH233661   5.521   3.364   3.759  0.2839  0.3870  0.3138
 4057TIP3    H133662   5.529   3.409   3.843 -1.9970  2.2222 -0.3403
 4057TIP3    H233663   5.473   3.284   3.780 -0.1021  0.7393  0.8083
 4058TIP3   OH233664   2.131   5.776   1.165  0.6367 -0.2832  0.1810
 4058TIP3    H133665   2.106   5.778   1.257  0.3238 -0.6955  0.1076
 4058TIP3    H233666   2.115   5.865   1.133 -2.6511 -0.9569 -0.3582
 4059TIP3   OH233667   4.390   0.088  10.449  0.2482 -0.0384  0.7330
 4059TIP3    H133668   4.440   0.146  10.505  0.7709 -0.4924  0.7489
 4059TIP3    H233669   4.443   0.008  10.443  0.4424  0.1754 -0.7934
 4060TIP3   OH233670   6.382   6.760   1.968 -0.2312 -0.4618 -0.0061
 4060TIP3    H133671   6.450   6.697   1.947  0.8057  0.9350 -1.0226
 4060TIP3    H233672   6.323   6.759   1.892 -0.3577 -0.4072  0.0909
 4061TIP3   OH233673   1.004   6.369   6.298 -0.1369  0.5085  0.2334
 4061TIP3    H133674   1.079   6.373   6.238  1.2176  0.7936  1.8618
 4061TIP3    H233675   0.935   6.326   6.247  0.8380  0.9936 -1.6080
 4062TIP3   OH233676   5.810   2.008   0.270  0.3969 -0.7367 -0.3162
 4062TIP3    H133677   5.780   1.947   0.202  1.8955 -1.5426 -0.3022
 4062TIP3    H233678   5.732   2.027   0.321 -0.7203 -0.3579 -2.0591
 4063TIP3   OH233679   0.857   4.215   1.652  0.3939 -0.5266 -0.2898
 4063TIP3    H133680   0.922   4.220   1.582  1.5639 -1.7661  0.6550
 4063TIP3    H233681   0.873   4.131   1.694  0.4850  0.6286  2.1657
 4064TIP3   OH233682   6.354   3.395  16.061 -0.3454  0.2709  0.0688
 4064TIP3    H133683   6.281   3.396  16.123 -0.3567  3.3538  0.1746
 4064TIP3    H233684   6.378   3.487  16.052  0.6786 -0.2003 -3.3054
 4065TIP3   OH233685   1.738   6.338  15.953 -0.5628 -0.2889 -0.3097
 4065TIP3    H133686   1.811   6.361  16.010 -1.0775 -0.4382  0.4317
 4065TIP3    H233687   1.684   6.279  16.006 -0.8592 -0.7324 -1.0875
 4066TIP3   OH233688   0.783   2.854   2.769 -0.7604  0.1313  0.2792
 4066TIP3    H133689   0.787   2.809   2.684 -1.7488 -0.5492  0.5739
 4066TIP3    H233690   0.711   2.916   2.760 -0.4580  0.5084  0.4203
 4067TIP3   OH233691   3.842   5.114   5.555  0.6745 -0.4345 -0.0977
 4067TIP3    H133692   3.801   5.185   5.604  2.0202  0.2210  0.1186
 4067TIP3    H233693   3.932   5.142   5.541  0.7685 -1.3055 -1.5827
 4068TIP3   OH233694   5.551   0.318  17.196  0.1417  0.3125 -0.3908
 4068TIP3    H133695   5.584   0.289  17.282  1.7264  1.2940 -0.6059
 4068TIP3    H233696   5.502   0.398  17.216 -1.4863 -0.7171 -0.1606
 4069TIP3   OH233697   1.197   6.302   4.269  0.0328  0.2094 -0.1842
 4069TIP3    H133698   1.204   6.362   4.195  0.7091 -0.2458 -0.4983
 4069TIP3    H233699   1.287   6.286   4.295 -0.1633 -0.3726  0.1443
 4070TIP3   OH233700   3.021   5.195  13.052  0.0751 -0.1575 -0.2168
 4070TIP3    H133701   2.995   5.277  13.093  0.1588  0.4587 -1.3575
 4070TIP3    H233702   3.013   5.211  12.958 -3.6968 -2.6352 -0.5541
 4071TIP3   OH233703   2.788   1.537   2.222 -0.2505  0.4391  0.0262
 4071TIP3    H133704   2.744   1.610   2.265 -0.6986  1.2184 -1.6422
 4071TIP3    H233705   2.799   1.471   2.290 -0.8766  1.6098  1.3031
 4072TIP3   OH233706   1.351   4.132  14.998  0.5647  0.4154 -0.3619
 4072TIP3    H133707   1.268   4.106  15.037 -0.5232  0.4693 -2.5402
 4072TIP3    H233708   1.414   4.069  15.032 -1.1738 -2.4038 -2.0325
 4073TIP3   OH233709   3.310   0.863  12.514  0.9496  0.1085  0.4476
 4073TIP3    H133710   3.324   0.770  12.533  0.9123 -0.0277 -0.1758
 4073TIP3    H233711   3.378   0.908  12.564  1.7775 -0.3449 -0.2516
 4074TIP3   OH233712   0.960   3.473   1.219 -0.1801  0.4975  0.5617
 4074TIP3    H133713   1.043   3.513   1.193  0.1764 -1.7450 -2.2047
 4074TIP3    H233714   0.984   3.407   1.285 -0.0538  1.0522  1.0838
 4075TIP3   OH233715   2.988   4.592   5.167 -0.2107  0.0645 -0.1736
 4075TIP3    H133716   2.967   4.509   5.210  3.7338 -0.9900  0.1524
 4075TIP3    H233717   3.050   4.568   5.098  0.2118  2.6307 -0.7873
 4076TIP3   OH233718   5.202   3.666  13.834  0.5269  0.3009 -0.2433
 4076TIP3    H133719   5.129   3.696  13.779  1.3413  3.8871  0.3683
 4076TIP3    H233720   5.280   3.681  13.781  1.0165 -1.4357 -0.0784
 4077TIP3   OH233721   3.959   4.566  13.785 -0.1777  0.5325  0.1212
 4077TIP3    H133722   3.914   4.545  13.866 -1.4808 -0.6805 -0.8678
 4077TIP3    H233723   3.913   4.643  13.751 -0.6668  0.1033 -0.2150
 4078TIP3   OH233724   2.168   4.711  15.236 -0.0024  0.0119 -0.0062
 4078TIP3    H133725   2.103   4.667  15.180 -1.0266  1.7615 -0.2600
 4078TIP3    H233726   2.159   4.669  15.321 -0.2370 -0.9393 -0.4859
 4079TIP3   OH233727   3.232   0.620   0.331  0.0952  0.1360 -0.2753
 4079TIP3    H133728   3.306   0.653   0.280  0.8413 -0.8494  0.1553
 4079TIP3    H233729   3.246   0.654   0.419 -0.2243  0.3384 -0.3013
 4080TIP3   OH233730   6.463   4.330   5.745  0.1596 -0.3545 -0.3163
 4080TIP3    H133731   6.419   4.411   5.720 -1.3336 -0.3442  2.0847
 4080TIP3    H233732   6.422   4.262   5.692 -1.1232  0.0047  0.1793
 4081TIP3   OH233733   1.794   2.403   0.210  0.1049 -0.0892 -0.0694
 4081TIP3    H133734   1.856   2.439   0.274 -0.3974 -0.6489  0.7452
 4081TIP3    H233735   1.710   2.402   0.256 -0.0760 -1.4021 -0.3923
 4082TIP3   OH233736   0.742   5.743  14.961 -0.0279 -0.2803  0.5070
 4082TIP3    H133737   0.836   5.761  14.949 -0.2578  1.1761  0.7372
 4082TIP3    H233738   0.704   5.827  14.986 -1.1938 -1.1244  1.7402
 4083TIP3   OH233739   2.052   6.393   0.481 -0.2144 -0.4053 -0.5571
 4083TIP3    H133740   2.066   6.456   0.552 -0.7626  0.7015 -1.3961
 4083TIP3    H233741   1.998   6.324   0.520 -1.0294  0.4946 -0.0438
 4084TIP3   OH233742   3.788   3.544   1.308  0.3480  0.0240  0.3430
 4084TIP3    H133743   3.755   3.596   1.381 -0.3038 -0.1723  0.1978
 4084TIP3    H233744   3.773   3.453   1.334 -1.8147 -0.0353 -0.8574
 4085TIP3   OH233745   2.833   1.808   4.425 -0.2958  0.0766 -0.3789
 4085TIP3    H133746   2.752   1.835   4.469  0.2686 -0.7374  1.2656
 4085TIP3    H233747   2.848   1.874   4.358 -0.2883  2.4730  1.8290
 4086TIP3   OH233748   4.186   4.106  11.280 -0.1551 -0.3074  0.2191
 4086TIP3    H133749   4.107   4.116  11.334  0.5580 -1.0491  1.4510
 4086TIP3    H233750   4.214   4.196  11.261  0.8330  0.0874  3.0438
 4087TIP3   OH233751   6.254   1.843   6.527  0.1769 -0.0063 -0.8440
 4087TIP3    H133752   6.255   1.749   6.508  2.3376  0.0513 -1.2645
 4087TIP3    H233753   6.328   1.878   6.478 -1.2742  2.1439 -1.6305
 4088TIP3   OH233754   4.273   5.491   1.829  0.1791 -0.2840 -0.2987
 4088TIP3    H133755   4.339   5.456   1.887  0.1914  0.0316 -0.1202
 4088TIP3    H233756   4.254   5.579   1.864  1.3785  0.5906 -1.7022
 4089TIP3   OH233757   2.108   0.166  16.883 -0.0280 -0.3326  0.2650
 4089TIP3    H133758   2.159   0.246  16.895 -2.2736  1.6061 -1.8328
 4089TIP3    H233759   2.173   0.098  16.864  1.9291  1.1123  1.4188
 4090TIP3   OH233760   6.155   5.281  13.469  0.4795  0.1847  0.6716
 4090TIP3    H133761   6.173   5.190  13.491 -0.7697  0.0522  1.2203
 4090TIP3    H233762   6.208   5.331  13.531  1.5502 -0.1363  0.0545
 4091TIP3   OH233763   3.653   2.604  12.840 -0.3542  0.1572 -0.4776
 4091TIP3    H133764   3.634   2.677  12.898 -3.3810  0.0360 -1.1439
 4091TIP3    H233765   3.585   2.539  12.859 -0.0456 -0.8629 -2.4916
 4092TIP3   OH233766   6.158   2.573   5.367 -0.4225 -0.1130  0.0378
 4092TIP3    H133767   6.235   2.553   5.421  0.0160  2.3413  0.4032
 4092TIP3    H233768   6.194   2.599   5.282 -1.0889 -3.3535 -1.3950
 4093TIP3   OH233769   0.428   2.555  14.900 -0.4050  0.6701  0.7017
 4093TIP3    H133770   0.367   2.550  14.974  1.2272 -0.0313  2.0615
 4093TIP3    H233771   0.407   2.478  14.847 -0.2616  0.0460  1.5301
 4094TIP3   OH233772   5.416   3.546  10.511 -0.1585 -0.5318 -0.2731
 4094TIP3    H133773   5.379   3.612  10.570 -0.3625  0.4933 -1.5062
 4094TIP3    H233774   5.499   3.583  10.483 -0.0586 -1.0149 -0.6239
 4095TIP3   OH233775   0.737   3.083   5.441  0.5300  1.1028  0.1892
 4095TIP3    H133776   0.656   3.107   5.486  0.0788  0.6074 -0.3363
 4095TIP3    H233777   0.792   3.044   5.508 -0.4460 -0.3680  0.1709
 4096TIP3   OH233778   5.994   4.823   4.959  0.2206  0.2997 -0.3859
 4096TIP3    H133779   6.014   4.755   5.023  0.6608 -1.1637 -2.0015
 4096TIP3    H233780   6.051   4.804   4.885 -0.9462  1.3617 -1.6115
 4097TIP3   OH233781   6.002   3.456   6.232  0.7098  0.4895  0.3716
 4097TIP3    H133782   6.049   3.373   6.230 -0.3941 -0.1324 -0.6190
 4097TIP3    H233783   5.930   3.441   6.293 -0.0627  0.3954 -0.5558
 4098TIP3   OH233784   2.116   0.689   4.483  0.0969 -0.1184 -0.4765
 4098TIP3    H133785   2.078   0.606   4.456  1.4845 -1.2487  0.8756
 4098TIP3    H233786   2.053   0.755   4.452 -1.1824 -1.6567 -1.3239
 4099TIP3   OH233787   3.888   2.970   0.843  0.4352  1.1510  0.3337
 4099TIP3    H133788   3.980   2.994   0.850  0.6849  1.0102 -1.9723
 4099TIP3    H233789   3.882   2.918   0.763 -1.0160 -2.1343  2.3409
 4100TIP3   OH233790   4.870   5.156  11.578  0.1479  0.3919  0.1865
 4100TIP3    H133791   4.776   5.138  11.581  0.1695  0.1177 -0.6027
 4100TIP3    H233792   4.911   5.070  11.580  0.3143  0.4156 -1.4008
 4101TIP3   OH233793   3.980   4.635   5.022 -0.0900 -0.3313  0.3576
 4101TIP3    H133794   3.962   4.725   4.995  1.3894 -0.2110 -0.3789
 4101TIP3    H233795   3.967   4.583   4.942 -1.1017 -0.8057  0.8211
 4102TIP3   OH233796   1.195   2.335   2.214  0.3437  0.2337  0.3443
 4102TIP3    H133797   1.219   2.324   2.121 -0.0806  0.3765  0.2166
 4102TIP3    H233798   1.236   2.261   2.258 -1.2345 -1.0862 -0.2865
 4103TIP3   OH233799   6.514   6.501   0.768  0.0589 -0.2755  0.3861
 4103TIP3    H133800   6.509   6.528   0.860 -0.4443  1.1176 -0.0232
 4103TIP3    H233801   6.572   6.425   0.768  0.4269 -0.0193  1.8011
 4104TIP3   OH233802   6.225   5.241  15.518  0.1874  0.8030 -0.2749
 4104TIP3    H133803   6.257   5.168  15.572  1.5802  0.7296 -1.1585
 4104TIP3    H233804   6.130   5.234  15.523  0.1514 -2.6895 -2.3228
 4105TIP3   OH233805   4.591   4.907   2.431  0.1988 -0.4090 -0.5078
 4105TIP3    H133806   4.686   4.909   2.430  0.2359 -1.8608 -1.0667
 4105TIP3    H233807   4.568   4.826   2.477 -0.7982  0.3515  0.4261
 4106TIP3   OH233808   1.008   0.901   4.568 -0.1538  0.4386  0.2320
 4106TIP3    H133809   1.006   0.838   4.640  1.1800  1.2892  1.0707
 4106TIP3    H233810   1.074   0.867   4.508  0.0578  0.6681  0.3326
 4107TIP3   OH233811   0.832   2.073   1.106 -0.2323  0.3599 -0.0912
 4107TIP3    H133812   0.902   2.107   1.161 -1.1837  0.4468  1.1173
 4107TIP3    H233813   0.764   2.140   1.108 -1.8211 -1.1565  1.7113
 4108TIP3   OH233814   5.777   1.732  12.880  0.2724 -0.0702 -0.4676
 4108TIP3    H133815   5.819   1.807  12.837  0.5208  0.2534  0.3132
 4108TIP3    H233816   5.811   1.656  12.834  1.6504  0.1927  0.0593
 4109TIP3   OH233817   4.376   2.695   5.701 -0.1562  0.0020 -0.2734
 4109TIP3    H133818   4.324   2.623   5.739  0.9396 -0.8565 -0.3364
 4109TIP3    H233819   4.427   2.653   5.632  1.5397  0.5456  0.6022
 4110TIP3   OH233820   2.504   1.969  13.020  0.3505 -0.3428 -0.3524
 4110TIP3    H133821   2.572   2.034  13.041  2.0264 -2.1661  0.1571
 4110TIP3    H233822   2.551   1.886  13.016 -2.0573 -1.9016  1.3101
 4111TIP3   OH233823   2.803   0.214  10.539  0.7783 -0.5155  0.4032
 4111TIP3    H133824   2.881   0.182  10.494  0.8671 -1.1833  1.0240
 4111TIP3    H233825   2.760   0.135  10.571 -0.7259 -0.2423 -0.8319
 4112TIP3   OH233826   6.274   2.742  11.731 -0.0396 -0.2283  0.1877
 4112TIP3    H133827   6.338   2.799  11.775  1.8774 -1.8080 -0.4110
 4112TIP3    H233828   6.278   2.768  11.639 -1.4338  0.6678  0.3437
 4113TIP3   OH233829   0.570   1.334  13.848  0.4557  0.3056  0.6872
 4113TIP3    H133830   0.489   1.319  13.896 -0.1778 -2.5732 -1.0020
 4113TIP3    H233831   0.548   1.401  13.783 -0.6397 -0.5302  0.1681
 4114TIP3   OH233832   5.010   2.012   0.910 -0.3629  0.1855 -0.4223
 4114TIP3    H133833   5.045   2.080   0.852 -2.0559  2.4176  0.9916
 4114TIP3    H233834   4.917   2.006   0.886 -0.5407 -0.6261  0.4236
 4115TIP3   OH233835   3.684   5.640   5.421  0.7176 -0.7527 -0.4058
 4115TIP3    H133836   3.606   5.645   5.476  0.1988  0.0448 -1.1881
 4115TIP3    H233837   3.748   5.695   5.466  0.1274  0.3148 -0.8498
 4116TIP3   OH233838   4.014   5.416   1.987  0.1458  0.1184 -0.1456
 4116TIP3    H133839   4.078   5.424   1.916  1.0381  0.4916  0.6751
 4116TIP3    H233840   3.944   5.362   1.951  0.7386  0.0366 -1.1970
 4117TIP3   OH233841   1.142   4.336   3.199  0.5027 -0.0905 -0.3723
 4117TIP3    H133842   1.118   4.383   3.119  0.0922  0.7117  0.2201
 4117TIP3    H233843   1.227   4.297   3.178  0.1596 -0.3423 -1.3846
 4118TIP3   OH233844   1.358   3.641   5.908 -0.1984 -0.1594  0.1288
 4118TIP3    H133845   1.340   3.731   5.935 -1.5549 -0.7526  1.3588
 4118TIP3    H233846   1.378   3.647   5.815 -1.4035  1.2854 -0.0736
 4119TIP3   OH233847   0.589   3.469   3.823 -0.0340 -0.1780  0.1152
 4119TIP3    H133848   0.680   3.443   3.813  0.4304  1.6520 -0.9688
 4119TIP3    H233849   0.593   3.564   3.833 -1.6094 -0.3224  3.5311
 4120TIP3   OH233850   6.526   2.205  10.269 -0.4243 -0.2102 -0.3707
 4120TIP3    H133851   6.488   2.131  10.317  2.0493 -3.3135 -2.7271
 4120TIP3    H233852   6.619   2.202  10.290 -0.0392  1.3761 -1.6500
 4121TIP3   OH233853   3.623   5.416   5.999 -0.0080  0.1778 -0.3134
 4121TIP3    H133854   3.611   5.351   6.069  0.5481  0.5447  0.1352
 4121TIP3    H233855   3.705   5.390   5.957 -0.4171 -0.1301 -0.9354
 4122TIP3   OH233856   4.929   0.011   4.332 -0.0613  0.0940 -0.3545
 4122TIP3    H133857   4.872   0.051   4.267  0.8070  1.2284 -0.4462
 4122TIP3    H233858   4.950   0.082   4.393 -1.3590 -1.0676  1.5676
 4123TIP3   OH233859   0.673   3.405  15.382  0.5618 -0.4684 -0.4730
 4123TIP3    H133860   0.727   3.371  15.310 -0.3553  0.5808 -1.6837
 4123TIP3    H233861   0.586   3.371  15.365  0.1236  0.6024 -0.4263
 4124TIP3   OH233862   1.259   1.848  12.081  0.0625 -0.0205  0.1792
 4124TIP3    H133863   1.238   1.852  12.174 -2.3824  3.2815 -0.3421
 4124TIP3    H233864   1.177   1.822  12.039  0.6355  0.2713 -1.1744
 4125TIP3   OH233865   5.206   1.662   5.231  0.6481  0.3263  0.4185
 4125TIP3    H133866   5.217   1.639   5.323  1.8979  0.4733  0.3205
 4125TIP3    H233867   5.294   1.687   5.202 -0.1467  2.7530 -0.1446
 4126TIP3   OH233868   2.656   0.765   0.130  0.7089 -0.1499  0.7190
 4126TIP3    H133869   2.565   0.766   0.102  1.3652 -0.2118 -1.6901
 4126TIP3    H233870   2.653   0.781   0.224 -1.7945 -0.7303  0.8026
 4127TIP3   OH233871   1.514   5.384  11.366  0.6787 -0.1815 -0.9463
 4127TIP3    H133872   1.523   5.445  11.439 -2.2473 -2.2206  1.3596
 4127TIP3    H233873   1.574   5.313  11.387 -0.1581 -0.7663 -0.4938
 4128TIP3   OH233874   0.579   2.740  12.909 -0.3621  0.3808  0.3245
 4128TIP3    H133875   0.597   2.800  12.981 -1.9490  1.2381  0.0449
 4128TIP3    H233876   0.584   2.653  12.949 -3.1594  0.8733  2.0075
 4129TIP3   OH233877   5.318   0.689   4.921 -0.3036 -0.6604  0.0914
 4129TIP3    H133878   5.360   0.605   4.900 -0.4180 -0.9321  0.9014
 4129TIP3    H233879   5.342   0.747   4.849  2.0930 -0.5831  0.8611
 4130TIP3   OH233880   4.874   6.567   2.958 -0.2959  0.1159  0.1140
 4130TIP3    H133881   4.810   6.541   3.024  0.5095 -0.7230  0.5950
 4130TIP3    H233882   4.859   6.506   2.885 -0.2990  0.1667  0.0727
 4131TIP3   OH233883   1.616   0.781   1.407 -0.2520  0.1390  0.6525
 4131TIP3    H133884   1.616   0.751   1.498 -1.9453 -1.0818  0.2824
 4131TIP3    H233885   1.703   0.757   1.374 -0.2153 -0.8847  1.4729
 4132TIP3   OH233886   0.974   5.736   4.237  0.1785  0.0965 -0.2145
 4132TIP3    H133887   0.994   5.757   4.145  1.2053 -1.4483 -0.3837
 4132TIP3    H233888   1.015   5.806   4.287 -0.6947  1.1580 -0.9198
 4133TIP3   OH233889   4.802   5.823   4.289 -0.1147 -0.0715  0.4104
 4133TIP3    H133890   4.793   5.799   4.197  0.7312 -0.5209  0.4298
 4133TIP3    H233891   4.713   5.833   4.320 -0.3968  0.7104 -0.6169
 4134TIP3   OH233892   3.295   0.933  12.085 -0.5384  0.4268  0.7037
 4134TIP3    H133893   3.372   0.967  12.130 -0.8367  2.7285 -0.3710
 4134TIP3    H233894   3.330   0.896  12.003 -0.5133  1.0864  0.4107
 4135TIP3   OH233895   6.471   3.352   2.641 -0.0600 -0.4078  0.1703
 4135TIP3    H133896   6.483   3.415   2.712  1.1092 -2.2849  1.7235
 4135TIP3    H233897   6.376   3.336   2.638 -0.2817  0.7831  0.2737
 4136TIP3   OH233898   6.660   4.879  11.831 -0.0140  0.1362 -0.1851
 4136TIP3    H133899   6.646   4.969  11.859  1.0241 -0.0239  0.8943
 4136TIP3    H233900   6.740   4.882  11.778  0.4940 -0.2759  0.5489
 4137TIP3   OH233901   4.565   0.724   6.341 -0.3551 -0.1906 -0.1255
 4137TIP3    H133902   4.537   0.811   6.371  1.1131  0.8599 -1.6179
 4137TIP3    H233903   4.657   0.718   6.367 -0.7754 -1.9114  1.1632
 4138TIP3   OH233904   4.747   4.972   4.193  0.3841 -0.2805  0.5062
 4138TIP3    H133905   4.695   4.993   4.270 -0.0089 -3.0820  1.0826
 4138TIP3    H233906   4.696   5.007   4.120 -0.1284  0.8030  1.3484
 4139TIP3   OH233907   0.719   5.080  14.248  0.2407 -0.5038  0.7150
 4139TIP3    H133908   0.723   5.149  14.315 -0.4727 -1.6966  2.0212
 4139TIP3    H233909   0.665   5.012  14.287 -2.0168 -0.3684 -1.9042
 4140TIP3   OH233910   1.026   3.103  12.635  0.2155 -0.2239  0.6211
 4140TIP3    H133911   1.028   3.162  12.710 -0.1942  0.6638 -0.0598
 4140TIP3    H233912   0.980   3.151  12.567 -0.2921 -1.3962  0.1031
 4141TIP3   OH233913   6.376   6.671  13.420 -0.9445 -0.1536  0.2290
 4141TIP3    H133914   6.402   6.582  13.397 -1.6346 -0.5718  1.0133
 4141TIP3    H233915   6.421   6.688  13.503 -0.2895  0.4898 -0.2403
 4142TIP3   OH233916   5.619   3.539  15.321  0.0155 -0.3031 -0.5831
 4142TIP3    H133917   5.594   3.452  15.352  0.5588 -0.8020 -1.5165
 4142TIP3    H233918   5.542   3.571  15.274 -0.6572  0.2787  0.8650
 4143TIP3   OH233919   0.798   5.393  12.074  0.0942 -0.4155 -0.1198
 4143TIP3    H133920   0.791   5.389  11.979 -0.2038  1.3011 -0.2023
 4143TIP3    H233921   0.891   5.408  12.090 -0.0042  0.4147 -0.2305
 4144TIP3   OH233922   1.380   0.123  16.781  0.4339  0.1086  0.2590
 4144TIP3    H133923   1.459   0.087  16.822  0.2300 -1.6254 -0.7898
 4144TIP3    H233924   1.309   0.069  16.815  0.3057 -1.7554 -2.6495
 4145TIP3   OH233925   1.384   6.805  14.370  0.1231  0.3500 -0.0226
 4145TIP3    H133926   1.401   6.849  14.454 -1.2814 -0.6464  0.8205
 4145TIP3    H233927   1.308   6.750  14.386  1.1585 -1.5978 -1.3363
 4146TIP3   OH233928   5.504   2.215  12.890 -0.6451  0.0963 -0.4521
 4146TIP3    H133929   5.429   2.272  12.868 -0.2941  0.4938 -0.6282
 4146TIP3    H233930   5.473   2.165  12.965 -0.7219  1.0279  0.1581
 4147TIP3   OH233931   0.609   5.189   0.379 -0.3969  0.2277 -0.2112
 4147TIP3    H133932   0.605   5.280   0.408  0.3199  0.1755  0.0584
 4147TIP3    H233933   0.640   5.141   0.456  1.2635  0.0434 -0.9569
 4148TIP3   OH233934   3.584   5.868   1.716  0.1326 -0.7890  0.2143
 4148TIP3    H133935   3.538   5.952   1.716 -0.9432 -1.3341 -1.3297
 4148TIP3    H233936   3.657   5.881   1.777 -0.6826  0.8740  0.9061
 4149TIP3   OH233937   0.905   4.113  11.532  0.1760 -0.1721 -0.1587
 4149TIP3    H133938   0.935   4.134  11.444 -0.1366  0.1278 -0.1955
 4149TIP3    H233939   0.810   4.116  11.527  0.1142 -1.6521 -0.1673
 4150TIP3   OH233940   5.749   3.057  17.263  0.6979 -0.3849  0.3805
 4150TIP3    H133941   5.708   3.079  17.347 -0.0444  0.3630 -0.1595
 4150TIP3    H233942   5.694   2.988  17.227 -1.0316  1.5950 -1.0025
 4151TIP3   OH233943   0.054   1.078  17.287  0.4330 -0.3935 -0.2740
 4151TIP3    H133944   0.113   1.107  17.218  0.4025  1.1502  0.3047
 4151TIP3    H233945   0.057   1.148  17.352 -0.9618 -0.9509  0.4305
 4152TIP3   OH233946   1.392   5.128  14.287  0.0700 -0.1119  0.0426
 4152TIP3    H133947   1.377   5.130  14.381 -1.1099 -0.0582 -0.1279
 4152TIP3    H233948   1.484   5.104  14.277 -0.0423 -1.0587  1.1886
 4153TIP3   OH233949   1.131   0.703  12.938  0.4407 -0.2162 -0.1034
 4153TIP3    H133950   1.155   0.612  12.956  0.3351  0.0808  1.7176
 4153TIP3    H233951   1.035   0.704  12.939  0.3355 -0.5153 -2.6918
 4154TIP3   OH233952   0.049   2.807   0.900 -0.2381 -0.0858 -0.0110
 4154TIP3    H133953   0.093   2.891   0.891  0.7478 -0.5900 -0.0465
 4154TIP3    H233954   0.091   2.751   0.835  0.8272 -1.2846  1.6222
 4155TIP3   OH233955   1.363   4.969   4.508 -0.2845 -0.1671  0.4820
 4155TIP3    H133956   1.344   5.061   4.530  1.2859 -0.0060  1.3207
 4155TIP3    H233957   1.310   4.919   4.570 -0.1518  0.2174  0.9238
 4156TIP3   OH233958   3.901   4.869  12.839  0.4054  0.7382  0.1970
 4156TIP3    H133959   3.879   4.962  12.846  1.0597  0.8755  0.5745
 4156TIP3    H233960   3.906   4.838  12.929  1.0646  0.5595  0.1081
 4157TIP3   OH233961   0.337   2.102  10.529  0.1226 -0.5327 -0.0445
 4157TIP3    H133962   0.249   2.071  10.552 -0.2904 -0.9619 -2.0077
 4157TIP3    H233963   0.356   2.169  10.594 -1.6282 -0.4679  0.4752
 4158TIP3   OH233964   0.798   2.411   2.059 -0.3075  0.2410 -0.0667
 4158TIP3    H133965   0.792   2.315   2.052  1.2300  0.0286  1.0772
 4158TIP3    H233966   0.724   2.435   2.115  0.3133 -0.5002  1.1063
 4159TIP3   OH233967   4.245   6.797  14.661 -0.2779 -0.5216 -0.1827
 4159TIP3    H133968   4.297   6.839  14.592 -4.2020  1.0821 -2.5240
 4159TIP3    H233969   4.265   6.847  14.740  0.3334  1.2923 -1.4047
 4160TIP3   OH233970   1.969   0.696  12.134 -0.2140 -0.6659 -0.3407
 4160TIP3    H133971   2.005   0.607  12.132  0.6864 -0.3687  1.1718
 4160TIP3    H233972   2.026   0.746  12.075  1.1553 -0.4873  1.0552
 4161TIP3   OH233973   3.399   0.860  15.114  0.0641  0.9037 -0.7911
 4161TIP3    H133974   3.394   0.771  15.080  0.1634  1.2557 -1.7563
 4161TIP3    H233975   3.313   0.877  15.152  0.9723 -0.6979  2.2908
 4162TIP3   OH233976   2.564   2.798   4.973  0.1368  0.8803  0.6744
 4162TIP3    H133977   2.489   2.768   4.921  1.3756 -2.7000  0.6750
 4162TIP3    H233978   2.541   2.774   5.063  0.4060  1.8350  1.0157
 4163TIP3   OH233979   4.990   2.707  10.623 -0.3658  0.0429  0.5931
 4163TIP3    H133980   5.053   2.700  10.550 -0.8199 -0.2875  0.2296
 4163TIP3    H233981   4.958   2.618  10.636 -1.0440  0.2704  0.5249
 4164TIP3   OH233982   3.574   5.450  16.718  0.1555  0.1125  0.3354
 4164TIP3    H133983   3.616   5.384  16.773 -1.5556  0.2470  1.8839
 4164TIP3    H233984   3.607   5.533  16.751 -0.4726  0.1718  0.8194
 4165TIP3   OH233985   6.397   3.185   5.259  0.2926  0.4017  0.8319
 4165TIP3    H133986   6.438   3.098   5.258  0.9231  0.6884 -0.8978
 4165TIP3    H233987   6.319   3.175   5.205  0.9875  1.1803 -0.3519
 4166TIP3   OH233988   1.484   3.866   2.475 -0.0881 -0.3931  0.7489
 4166TIP3    H133989   1.561   3.810   2.471 -0.1514 -0.4262 -0.1913
 4166TIP3    H233990   1.519   3.955   2.464 -0.0934 -0.3347  1.2048
 4167TIP3   OH233991   2.662   5.985   1.562  0.0218 -1.1677 -0.3916
 4167TIP3    H133992   2.754   6.008   1.553 -0.6456  2.0226 -0.2226
 4167TIP3    H233993   2.652   5.963   1.655 -0.0146  2.4688  0.6220
 4168TIP3   OH233994   5.266   1.376   1.433 -0.7390  0.1045 -0.3111
 4168TIP3    H133995   5.335   1.409   1.375 -1.7062 -1.3681 -2.4504
 4168TIP3    H233996   5.294   1.287   1.455 -0.9261  0.2688  0.6232
 4169TIP3   OH233997   2.897   4.380   3.927  0.3593  0.0886 -0.1572
 4169TIP3    H133998   2.878   4.352   4.017 -0.1254  0.4550 -0.1452
 4169TIP3    H233999   2.955   4.456   3.938 -0.9294  1.0986 -0.1011
 4170TIP3   OH234000   4.091   5.682  15.216  0.2108  0.5705 -0.2452
 4170TIP3    H134001   4.174   5.663  15.260 -0.7557  1.3647  2.0568
 4170TIP3    H234002   4.095   5.776  15.198 -0.7611  0.9410  1.2838
 4171TIP3   OH234003   3.841   2.680  10.391  0.5933  0.4093  0.2471
 4171TIP3    H134004   3.856   2.730  10.311 -0.6997  0.3958 -0.0346
 4171TIP3    H234005   3.746   2.683  10.403  0.4890 -1.6889  0.3809
 4172TIP3   OH234006   4.019   1.842   3.885  0.5889 -0.1619 -0.3313
 4172TIP3    H134007   4.016   1.921   3.831  0.2255  0.7391  0.9519
 4172TIP3    H234008   3.944   1.791   3.856  1.3781 -0.5212 -1.8412
 4173TIP3   OH234009   4.206   3.725   2.600 -0.0167 -0.6917  0.1968
 4173TIP3    H134010   4.298   3.745   2.617 -0.2138  0.5479 -0.1208
 4173TIP3    H234011   4.167   3.809   2.578 -0.8647 -1.4535 -1.3472
 4174TIP3   OH234012   1.222   2.679   0.419  0.0698  0.0603 -0.1816
 4174TIP3    H134013   1.178   2.761   0.444  1.8279  0.8454  0.5190
 4174TIP3    H234014   1.208   2.622   0.494 -0.7305 -0.1228 -0.4583
 4175TIP3   OH234015   2.881   5.142  16.302  0.3758  0.5624  0.7655
 4175TIP3    H134016   2.846   5.161  16.389 -2.2553 -0.7703  0.1083
 4175TIP3    H234017   2.847   5.213  16.247 -1.3376 -0.6708  0.1444
 4176TIP3   OH234018   2.211   1.962  13.892  0.0895 -0.0897 -0.1668
 4176TIP3    H134019   2.194   2.008  13.810  0.7938  0.9259  0.2232
 4176TIP3    H234020   2.166   2.015  13.959  0.4207 -0.2937  0.2232
 4177TIP3   OH234021   3.261   5.241   4.040 -0.4670  0.0778 -0.3716
 4177TIP3    H134022   3.208   5.179   4.089  0.4484  0.3486  1.0298
 4177TIP3    H234023   3.233   5.327   4.072  0.9408  0.2189  0.5830
 4178TIP3   OH234024   4.841   1.132  14.926  0.0054  0.0357  0.8614
 4178TIP3    H134025   4.798   1.050  14.902  1.0747 -0.0804 -0.7788
 4178TIP3    H234026   4.876   1.166  14.844 -1.6416  2.9017  1.2238
 4179TIP3   OH234027   1.427   6.540   6.410 -0.0394 -0.1703  0.5930
 4179TIP3    H134028   1.415   6.631   6.383  0.9439 -0.7006 -1.8812
 4179TIP3    H234029   1.338   6.507   6.423 -0.5168  0.5608 -0.6533
 4180TIP3   OH234030   2.248   3.021   2.319  0.2692 -0.2450  0.2596
 4180TIP3    H134031   2.200   3.009   2.237  1.2430  2.0588 -0.7311
 4180TIP3    H234032   2.263   3.116   2.325  2.6974 -0.6303  1.6707
 4181TIP3   OH234033   0.586   1.162   0.049 -0.0696 -0.0753  0.2722
 4181TIP3    H134034   0.629   1.128  -0.030  0.3316  0.8377  0.0833
 4181TIP3    H234035   0.557   1.084   0.096 -0.0455 -0.6400 -0.6291
 4182TIP3   OH234036   4.669   3.125   4.439  0.4230 -0.2941 -0.1659
 4182TIP3    H134037   4.660   3.175   4.521 -1.3843 -0.3028 -0.3296
 4182TIP3    H234038   4.760   3.140   4.412  0.1982  2.2138  0.2343
 4183TIP3   OH234039   1.557   4.122  13.715 -0.4000  0.0333  0.7395
 4183TIP3    H134040   1.470   4.096  13.744 -0.8862 -0.1441 -0.7574
 4183TIP3    H234041   1.552   4.118  13.619  0.8581  1.2911  0.5782
 4184TIP3   OH234042   1.189   6.082   3.998  0.1147  0.0065  0.5514
 4184TIP3    H134043   1.231   6.142   3.935  0.1016  0.7602  1.2428
 4184TIP3    H234044   1.224   6.109   4.083 -2.2124  1.1014  1.2338
 4185TIP3   OH234045   2.891   1.810  17.145  0.1840  0.7594 -0.1781
 4185TIP3    H134046   2.960   1.781  17.205  0.0915  0.6758 -0.1120
 4185TIP3    H234047   2.842   1.730  17.125  1.1713  0.4760 -1.6100
 4186TIP3   OH234048   4.838   6.339   3.494  0.1105 -0.1131 -0.8487
 4186TIP3    H134049   4.902   6.317   3.562 -1.0074 -1.7067 -0.2239
 4186TIP3    H234050   4.821   6.432   3.506  0.3638 -0.2325  0.7205
 4187TIP3   OH234051   5.650   0.205   5.962 -0.1076  0.5755 -0.1017
 4187TIP3    H134052   5.575   0.261   5.981 -0.0101  1.6317 -2.4310
 4187TIP3    H234053   5.712   0.262   5.916  1.4492 -0.6609  0.3668
 4188TIP3   OH234054   3.754   3.410   5.319  0.1225  0.7346 -0.0806
 4188TIP3    H134055   3.659   3.414   5.311  0.1210  1.6153  0.2188
 4188TIP3    H234056   3.780   3.334   5.267 -0.9475 -0.9583  1.7243
 4189TIP3   OH234057   3.612   3.458  13.350 -0.1201  0.7921  0.2666
 4189TIP3    H134058   3.690   3.407  13.373 -0.5444  0.6858  1.5264
 4189TIP3    H234059   3.590   3.428  13.261  1.4563  1.0822 -0.2549
 4190TIP3   OH234060   1.952   3.014   3.463 -0.5539  0.2289  0.5895
 4190TIP3    H134061   1.951   3.109   3.451 -0.6175  0.1370 -0.1807
 4190TIP3    H234062   1.860   2.988   3.458 -0.5775  0.1777  1.2475
 4191TIP3   OH234063   5.315   0.804   4.290 -0.5542  0.8883 -0.3456
 4191TIP3    H134064   5.370   0.750   4.347  0.8871  2.8156  0.2199
 4191TIP3    H234065   5.229   0.762   4.292  0.1946 -0.7023  0.9569
 4192TIP3   OH234066   2.647   1.614   4.666  0.1725 -0.1156  0.1994
 4192TIP3    H134067   2.679   1.704   4.655 -1.0229  0.7022  2.5477
 4192TIP3    H234068   2.558   1.616   4.633  0.8368 -1.1127 -1.8354
 4193TIP3   OH234069   3.767   4.712  15.541  0.3547  0.2704  0.0492
 4193TIP3    H134070   3.674   4.734  15.539  0.4230  0.6449 -2.5938
 4193TIP3    H234071   3.779   4.664  15.623 -1.9611  0.9686  0.8664
 4194TIP3   OH234072   3.946   2.285   1.193 -0.5578 -0.5521 -0.4923
 4194TIP3    H134073   4.020   2.334   1.158 -1.7245  0.1463 -2.1259
 4194TIP3    H234074   3.974   2.259   1.281  0.5225  2.1810  0.0955
 4195TIP3   OH234075   6.019   5.960  15.549 -0.1164  0.7409 -0.0851
 4195TIP3    H134076   6.066   6.023  15.494  2.3920  1.2268  2.4100
 4195TIP3    H234077   6.021   5.998  15.637  0.8087 -2.3694  1.3861
 4196TIP3   OH234078   4.014   2.020   1.148 -0.6284 -0.0321  0.3151
 4196TIP3    H134079   3.943   1.957   1.162  0.1205 -1.0680 -0.3942
 4196TIP3    H234080   3.974   2.105   1.166 -1.8137 -0.6587  0.7719
 4197TIP3   OH234081   3.691   6.164   2.655 -0.1016  0.1032 -0.3839
 4197TIP3    H134082   3.654   6.088   2.702  0.0434 -0.9027 -1.8462
 4197TIP3    H234083   3.775   6.180   2.698 -0.2755 -0.3635  0.1472
 4198TIP3   OH234084   5.915   5.384  15.047  0.6720  0.2629 -0.2545
 4198TIP3    H134085   5.968   5.449  15.093 -0.6566  0.5472  0.9260
 4198TIP3    H234086   5.834   5.378  15.097 -0.2527 -0.4952 -1.7488
 4199TIP3   OH234087   1.068   5.778  11.321 -0.0935  0.1126  0.1778
 4199TIP3    H134088   1.047   5.685  11.331  0.0934  0.1398  0.8634
 4199TIP3    H234089   1.039   5.799  11.233 -2.3271 -0.0394  0.8124
 4200TIP3   OH234090   1.380   5.904   1.811  0.3251  0.0083  0.5945
 4200TIP3    H134091   1.340   5.967   1.871  1.3617  0.3600  0.9526
 4200TIP3    H234092   1.368   5.942   1.724 -1.0465 -0.4245  0.5685
 4201TIP3   OH234093   3.818   5.880  13.298  0.0317 -0.4758 -0.3968
 4201TIP3    H134094   3.806   5.925  13.381 -1.5947 -0.4325 -0.6282
 4201TIP3    H234095   3.861   5.944  13.241 -1.7786  0.6448 -0.5603
 4202TIP3   OH234096   2.925   4.901  11.874 -0.1968 -0.5188  0.0447
 4202TIP3    H134097   2.950   4.916  11.783 -1.6872 -1.1097 -0.4900
 4202TIP3    H234098   2.988   4.836  11.906  0.3768 -0.2510 -0.5161
 4203TIP3   OH234099   1.646   6.666   6.767 -0.6940 -0.2000 -0.2712
 4203TIP3    H134100   1.620   6.575   6.753 -0.6561 -0.5741  1.7149
 4203TIP3    H234101   1.742   6.664   6.763 -0.7336  0.1262 -2.0294
 4204TIP3   OH234102   1.429   3.546  12.707 -0.4563 -0.1503  0.0372
 4204TIP3    H134103   1.355   3.526  12.764 -2.8411  1.4197 -2.3092
 4204TIP3    H234104   1.431   3.641  12.701  0.9061 -0.2094 -0.9942
 4205TIP3   OH234105   5.370   3.428  14.329 -0.0019  0.0114 -0.3798
 4205TIP3    H134106   5.345   3.451  14.418  0.1676  0.1943 -0.3781
 4205TIP3    H234107   5.287   3.430  14.280  0.1767  2.0813 -0.6885
 4206TIP3   OH234108   1.907   0.095   5.293  0.4300  0.1083 -0.3669
 4206TIP3    H134109   1.954   0.075   5.212 -0.1156 -0.6910 -0.5014
 4206TIP3    H234110   1.835   0.031   5.295  1.4325 -1.0591  1.6049
 4207TIP3   OH234111   3.031   0.997  14.414 -0.0089 -0.3014 -0.2622
 4207TIP3    H134112   3.004   1.047  14.491  0.7807 -0.1880 -0.0419
 4207TIP3    H234113   2.969   1.020  14.346 -1.1418 -0.9162  0.5226
 4208TIP3   OH234114   1.366   0.628  16.417  0.0824  0.5621 -0.3128
 4208TIP3    H134115   1.327   0.669  16.340 -0.4151  1.4046  0.3598
 4208TIP3    H234116   1.362   0.696  16.485  0.7577 -0.0673  0.3781
 4209TIP3   OH234117   2.355   1.042   4.133  0.2707  0.0197  0.0930
 4209TIP3    H134118   2.277   1.094   4.118  1.1854  1.6015  0.6056
 4209TIP3    H234119   2.416   1.070   4.064  0.4760 -1.0410 -0.1721
 4210TIP3   OH234120   3.316   2.797   2.346  0.0765 -0.1456 -0.2986
 4210TIP3    H134121   3.305   2.704   2.365  2.0031 -0.0655  1.6158
 4210TIP3    H234122   3.317   2.803   2.251 -0.4770 -2.0118 -0.4501
 4211TIP3   OH234123   6.522   0.899  12.353 -0.0263  0.4377  0.5032
 4211TIP3    H134124   6.474   0.819  12.332 -0.7039  1.3475 -1.6906
 4211TIP3    H234125   6.458   0.955  12.397 -0.1967  0.6211  0.0230
 4212TIP3   OH234126   6.764   0.852   0.083  0.6447  0.9204 -0.5170
 4212TIP3    H134127   6.691   0.823   0.028 -0.4070 -0.0336  1.2902
 4212TIP3    H234128   6.801   0.927   0.036 -1.2048  1.1584 -1.7060
 4213TIP3   OH234129   4.292   1.875  15.135 -0.6458 -0.8244  0.1626
 4213TIP3    H134130   4.197   1.878  15.147 -0.8207 -0.0668 -1.2013
 4213TIP3    H234131   4.318   1.966  15.122  0.7027 -0.6550  3.2100
 4214TIP3   OH234132   5.188   5.631   4.846  0.2156 -0.8046  0.1241
 4214TIP3    H134133   5.264   5.678   4.880 -0.6600  1.2926 -0.6474
 4214TIP3    H234134   5.224   5.573   4.779  1.1049  0.8705 -0.9423
 4215TIP3   OH234135   2.887   6.357   5.882 -0.0704 -0.5501  0.4637
 4215TIP3    H134136   2.834   6.333   5.958  0.6522  1.2537  1.5954
 4215TIP3    H234137   2.845   6.435   5.847  2.6149  2.0182  2.4312
 4216TIP3   OH234138   1.728   0.610   3.967  0.2418 -0.0662  0.3436
 4216TIP3    H134139   1.747   0.700   3.993 -0.2173  0.0202  0.3926
 4216TIP3    H234140   1.678   0.574   4.040  1.4294 -0.7382  0.8419
 4217TIP3   OH234141   4.169   6.602  11.696 -0.5449  0.3243 -0.2276
 4217TIP3    H134142   4.154   6.553  11.777 -0.1914 -0.2352 -0.4885
 4217TIP3    H234143   4.208   6.684  11.724  0.5587 -0.2886  0.1154
 4218TIP3   OH234144   0.733   6.120   2.114 -0.2046  0.1801 -0.5602
 4218TIP3    H134145   0.725   6.136   2.020 -0.9556 -1.0033 -0.7137
 4218TIP3    H234146   0.646   6.139   2.149 -0.7137 -1.9544 -0.5365
 4219TIP3   OH234147   2.656   0.797   1.857 -0.3365 -0.2180 -0.4356
 4219TIP3    H134148   2.738   0.777   1.812  0.3012  2.6126 -0.6765
 4219TIP3    H234149   2.621   0.873   1.810 -1.5995  0.4491  1.4973
 4220TIP3   OH234150   6.252   1.162   2.545 -0.4065  0.1747 -0.5133
 4220TIP3    H134151   6.284   1.075   2.566 -0.6739  0.3200  0.5862
 4220TIP3    H234152   6.328   1.219   2.557 -0.9515  0.5200  2.0987
 4221TIP3   OH234153   2.827   2.626  17.071 -0.2042  0.0758 -0.1470
 4221TIP3    H134154   2.761   2.586  17.014 -1.4163  4.1855 -1.9738
 4221TIP3    H234155   2.875   2.685  17.015  2.2090  0.4224  2.1060
 4222TIP3   OH234156   5.542   1.912  12.654 -0.5280  0.0683 -0.0952
 4222TIP3    H134157   5.500   1.986  12.610  1.4009  1.0019 -0.4777
 4222TIP3    H234158   5.510   1.835  12.608 -0.1662  0.8783 -1.7864
 4223TIP3   OH234159   1.625   0.582   6.298  0.0983  0.3118  0.0259
 4223TIP3    H134160   1.694   0.534   6.343  0.4736  1.6309  0.9239
 4223TIP3    H234161   1.611   0.660   6.351 -1.8132  0.2846 -0.3621
 4224TIP3   OH234162   2.542   2.335  11.660  0.0639  0.0011  0.2438
 4224TIP3    H134163   2.540   2.392  11.583 -0.8901  0.6512  0.7243
 4224TIP3    H234164   2.585   2.256  11.630 -1.0554 -0.1000 -1.2129
 4225TIP3   OH234165   3.437   5.776  10.844 -0.0562  0.3669 -0.0963
 4225TIP3    H134166   3.375   5.771  10.771  0.6124 -2.5169 -0.5986
 4225TIP3    H234167   3.411   5.705  10.902  0.9692  1.0132  1.2020
 4226TIP3   OH234168   4.168   1.173   6.010  0.2499  0.1394  0.0508
 4226TIP3    H134169   4.123   1.229   6.073 -0.3762  1.7275 -1.7193
 4226TIP3    H234170   4.103   1.155   5.943  1.3622 -0.1280 -0.9949
 4227TIP3   OH234171   1.491   5.204   5.164  0.7047 -0.5700 -0.4811
 4227TIP3    H134172   1.491   5.215   5.259  1.0285  0.1540 -0.5606
 4227TIP3    H234173   1.533   5.283   5.130 -2.5583  0.9339 -1.4335
 4228TIP3   OH234174   5.594   1.999   0.794  0.2503 -0.6396  0.1260
 4228TIP3    H134175   5.549   1.972   0.875 -1.0319 -0.3625 -0.4674
 4228TIP3    H234176   5.628   1.917   0.758  1.2192 -0.7119  1.1538
 4229TIP3   OH234177   2.143   5.154   2.056 -0.1621  0.1286 -0.5804
 4229TIP3    H134178   2.163   5.176   1.965  0.1355 -1.6121 -0.9734
 4229TIP3    H234179   2.215   5.098   2.083 -0.8922 -0.4031  0.3182
 4230TIP3   OH234180   0.826   3.036  10.287  0.2510  0.2221 -0.0866
 4230TIP3    H134181   0.758   3.082  10.237 -0.9150 -0.6967  0.5825
 4230TIP3    H234182   0.825   3.078  10.373 -0.3791 -0.6095  0.3261
 4231TIP3   OH234183   6.301   2.358   3.167  0.3767  0.1493  0.4526
 4231TIP3    H134184   6.337   2.396   3.087  1.2930 -0.3183  0.6285
 4231TIP3    H234185   6.263   2.432   3.214  0.1023  0.4760 -0.2667
 4232TIP3   OH234186   4.302   1.606  15.031  0.0969 -0.1481 -0.3295
 4232TIP3    H134187   4.317   1.680  15.090  1.0882  0.0310 -0.7907
 4232TIP3    H234188   4.390   1.583  14.999 -0.2795 -1.0933 -0.7053
 4233TIP3   OH234189   3.840   3.760  14.027 -0.1660  0.3797 -0.2817
 4233TIP3    H134190   3.789   3.733  13.951 -0.8692 -1.1337  0.6845
 4233TIP3    H234191   3.918   3.704  14.026 -1.2598 -1.3013  1.3013
 4234TIP3   OH234192   4.692   0.503  15.509  0.1103  0.1536  0.4941
 4234TIP3    H134193   4.742   0.542  15.580  0.3867  1.6547 -0.4881
 4234TIP3    H234194   4.671   0.576  15.451 -0.1502 -1.0205 -0.9488
 4235TIP3   OH234195   3.348   1.821   6.016 -0.6819  0.2635 -0.6257
 4235TIP3    H134196   3.334   1.742   5.964  0.8788 -0.4108 -0.0658
 4235TIP3    H234197   3.330   1.893   5.955 -0.3202 -0.5191 -1.6792
 4236TIP3   OH234198   4.115   5.059   6.628 -0.1121  0.0107  0.1127
 4236TIP3    H134199   4.111   5.145   6.587 -1.2886  0.5886  1.3628
 4236TIP3    H234200   4.047   5.008   6.585 -0.1230  0.0406  0.0943
 4237TIP3   OH234201   4.853   4.556   0.680  0.2233 -0.1563 -0.2179
 4237TIP3    H134202   4.760   4.577   0.671  0.5333  1.2725 -0.2462
 4237TIP3    H234203   4.863   4.530   0.771 -0.7055 -3.1594 -0.8598
 4238TIP3   OH234204   5.287   0.880   1.724 -0.6517 -0.3592 -0.2684
 4238TIP3    H134205   5.288   0.955   1.783 -0.3498  0.6015 -1.4475
 4238TIP3    H234206   5.281   0.804   1.782  1.7844  0.4096  1.1306
 4239TIP3   OH234207   1.602   3.199   4.995  0.0658  0.1951  0.1011
 4239TIP3    H134208   1.560   3.232   5.074  0.8452  1.1821  0.1239
 4239TIP3    H234209   1.541   3.221   4.925  0.3310  1.2081  0.1838
 4240TIP3   OH234210   2.985   4.497   3.598  0.5706 -0.1887 -0.7660
 4240TIP3    H134211   2.895   4.495   3.629 -0.2469 -2.1214 -2.9825
 4240TIP3    H234212   3.031   4.552   3.662 -1.8226 -0.3671  1.2663
 4241TIP3   OH234213   5.798   0.931   5.394  0.4416  0.6720 -0.4041
 4241TIP3    H134214   5.856   0.882   5.452 -0.5039  0.1330  0.0982
 4241TIP3    H234215   5.842   0.929   5.309  0.0736 -1.7558 -0.6165
 4242TIP3   OH234216   0.585   4.584  15.772 -0.6448  0.4723  0.1790
 4242TIP3    H134217   0.601   4.675  15.745  0.2059  0.2106 -0.2360
 4242TIP3    H234218   0.650   4.569  15.841  0.9110 -0.5673 -1.4258
 4243TIP3   OH234219   1.039   2.424  15.054  0.4862  0.6686 -0.1416
 4243TIP3    H134220   1.058   2.514  15.082  1.5220  0.1469  0.9017
 4243TIP3    H234221   1.108   2.404  14.991  0.3946  0.5260 -0.1946
 4244TIP3   OH234222   2.688   2.152   4.015 -0.0949  0.0776  0.3829
 4244TIP3    H134223   2.706   2.229   4.069  0.1228 -0.5776  1.2700
 4244TIP3    H234224   2.726   2.173   3.929 -0.2798  1.0610  0.5324
 4245TIP3   OH234225   4.626   6.643  16.427 -0.0094  0.2513  0.1501
 4245TIP3    H134226   4.722   6.651  16.427  0.1625 -0.8074 -2.6243
 4245TIP3    H234227   4.606   6.593  16.349 -2.9762  1.9242 -0.3065
 4246TIP3   OH234228   6.696   0.248   4.491 -0.0217  0.5890  0.6279
 4246TIP3    H134229   6.749   0.174   4.462  0.8984  1.6425 -0.5288
 4246TIP3    H234230   6.607   0.215   4.494  0.4179 -0.6632  0.5273
 4247TIP3   OH234231   3.651   2.009   2.642  0.4404  0.3050  0.5039
 4247TIP3    H134232   3.691   1.922   2.642  5.0495  2.0892  1.4628
 4247TIP3    H234233   3.605   2.015   2.558 -0.2400 -3.0295  0.5031
 4248TIP3   OH234234   0.142   4.748   2.757 -0.0238  0.4593  0.6933
 4248TIP3    H134235   0.228   4.727   2.721 -0.6894  2.2213 -2.3352
 4248TIP3    H234236   0.114   4.669   2.803  1.2066 -1.9880 -2.4034
 4249TIP3   OH234237   4.821   6.229  15.136  0.1735  1.0512  0.1315
 4249TIP3    H134238   4.885   6.258  15.072  1.5494  0.3009  1.0953
 4249TIP3    H234239   4.871   6.215  15.216 -1.0811 -0.1324  0.7784
 4250TIP3   OH234240   1.610   1.393  12.411  0.6103  0.1119  0.4697
 4250TIP3    H134241   1.590   1.469  12.466  0.2564  0.9429 -0.7614
 4250TIP3    H234242   1.590   1.422  12.322 -0.5662 -1.7884  0.0636
 4251TIP3   OH234243   0.259   4.534   3.145 -0.5261 -0.9417 -0.2915
 4251TIP3    H134244   0.317   4.505   3.075  0.7626 -1.9955  1.1722
 4251TIP3    H234245   0.279   4.627   3.156 -2.6289 -0.0068 -3.0241
 4252TIP3   OH234246   1.399   6.134  16.419 -0.1257  0.3998  0.2828
 4252TIP3    H134247   1.307   6.121  16.398  0.2140 -1.7075 -0.1259
 4252TIP3    H234248   1.415   6.226  16.402 -2.0558  0.7232 -0.0016
 4253TIP3   OH234249   5.431   0.931   2.520  0.2461 -0.5293 -0.2650
 4253TIP3    H134250   5.450   1.014   2.565  2.1685  0.0155 -1.9304
 4253TIP3    H234251   5.363   0.954   2.455 -1.9895 -1.1595  1.7043
 4254TIP3   OH234252   6.065   3.870  16.624 -0.2945  0.3522  0.1585
 4254TIP3    H134253   6.065   3.790  16.676 -2.2764 -0.4876 -0.9853
 4254TIP3    H234254   5.995   3.856  16.559  1.0066  1.9756 -1.7085
 4255TIP3   OH234255   5.310   4.882   5.996  0.3354  0.0549 -0.7113
 4255TIP3    H134256   5.236   4.942   5.984  0.1503 -0.1960 -0.8368
 4255TIP3    H234257   5.387   4.936   5.981  0.1720  0.2702 -0.7874
 4256TIP3   OH234258   3.951   2.610   1.342 -0.2663  0.2883  0.4327
 4256TIP3    H134259   4.023   2.591   1.402 -0.9086 -0.0842  1.0928
 4256TIP3    H234260   3.971   2.559   1.263  0.3430  0.4249  0.4972
 4257TIP3   OH234261   5.001   3.430   0.711 -0.1589  0.0171  0.1527
 4257TIP3    H134262   4.944   3.465   0.643  1.1529  0.3702 -0.8134
 4257TIP3    H234263   4.982   3.336   0.712  0.2192 -0.0916 -1.1439
 4258TIP3   OH234264   3.359   4.345   2.675 -0.5728 -0.5085  0.6507
 4258TIP3    H134265   3.425   4.277   2.684  0.0864  0.0322  0.0953
 4258TIP3    H234266   3.313   4.324   2.594  1.2347  0.9884 -0.8498
 4259TIP3   OH234267   3.918   4.497  11.002  0.0895  0.0081 -0.0111
 4259TIP3    H134268   3.982   4.428  10.985  1.1425  0.9169  0.1319
 4259TIP3    H234269   3.906   4.540  10.918  0.3934  0.4278  0.1538
 4260TIP3   OH234270   1.609   6.434   6.629 -0.4119  0.0657  0.3425
 4260TIP3    H134271   1.556   6.478   6.562 -0.2479 -0.7240 -0.3118
 4260TIP3    H234272   1.575   6.345   6.631  0.2681 -0.1880  0.5905
 4261TIP3   OH234273   4.465   6.261  16.405 -0.6636  0.0645 -0.1030
 4261TIP3    H134274   4.465   6.332  16.470  1.0468 -0.1837  0.2192
 4261TIP3    H234275   4.373   6.241  16.392 -1.0724 -0.2555  2.6672
 4262TIP3   OH234276   1.612   2.024  15.862  0.1082 -0.4244 -0.9470
 4262TIP3    H134277   1.594   1.962  15.792  0.9339 -1.0843 -0.5798
 4262TIP3    H234278   1.670   1.977  15.922  0.4085  0.5550 -0.4536
 4263TIP3   OH234279   2.179   3.064  12.478 -0.3889 -0.0035 -0.0954
 4263TIP3    H134280   2.239   3.009  12.528 -1.2592  0.0300  1.0104
 4263TIP3    H234281   2.215   3.063  12.389  0.9410 -0.4151  0.4177
 4264TIP3   OH234282   2.330   5.727   3.174  0.1083 -0.0665  0.6319
 4264TIP3    H134283   2.259   5.671   3.206  0.2543 -0.3530  0.4621
 4264TIP3    H234284   2.402   5.666   3.159 -0.3707 -0.1685 -1.5438
 4265TIP3   OH234285   5.456   3.968  12.261 -0.0083 -0.1634  0.1938
 4265TIP3    H134286   5.395   3.896  12.276 -0.9444  0.3466 -0.9931
 4265TIP3    H234287   5.542   3.925  12.251 -0.3837 -1.0109  0.5433
 4266TIP3   OH234288   3.516   3.189  15.496 -0.0561 -0.5947  0.3374
 4266TIP3    H134289   3.449   3.198  15.428  0.0632  2.3668  0.4788
 4266TIP3    H234290   3.572   3.118  15.465 -0.5743 -0.0172 -2.1939
 4267TIP3   OH234291   2.602   5.451  15.629 -0.7731 -0.2762  0.3448
 4267TIP3    H134292   2.673   5.515  15.630  0.9988 -2.1331  0.2676
 4267TIP3    H234293   2.646   5.366  15.633 -3.0216 -1.5157  0.6186
 4268TIP3   OH234294   0.049   1.152   2.084 -0.0146 -0.2161  0.7833
 4268TIP3    H134295   0.124   1.138   2.025 -1.3018  0.1758 -1.0387
 4268TIP3    H234296   0.030   1.246   2.076 -1.0960 -0.4307  0.7197
 4269TIP3   OH234297   0.096   0.994   4.574 -0.0967  0.1827 -0.1983
 4269TIP3    H134298   0.076   1.005   4.481  1.7799 -0.7463 -0.7639
 4269TIP3    H234299   0.140   0.909   4.580  2.5081  1.4792  1.0267
 4270TIP3   OH234300   2.731   0.257   4.815  0.0104 -0.0436 -0.2140
 4270TIP3    H134301   2.827   0.251   4.811 -0.0001  0.0133 -0.5993
 4270TIP3    H234302   2.704   0.264   4.724 -0.4337 -1.0010 -0.1665
 4271TIP3   OH234303   3.829   5.055   4.297  0.2847  0.1140 -0.0369
 4271TIP3    H134304   3.887   5.101   4.236  1.1951  0.5103  1.0900
 4271TIP3    H234305   3.888   5.001   4.350 -0.3602  0.5571  1.1663
 4272TIP3   OH234306   6.740   0.478   1.899  0.3950  0.4468  0.3641
 4272TIP3    H134307   6.775   0.532   1.970  0.5848 -1.7751  2.0906
 4272TIP3    H234308   6.755   0.388   1.929 -1.2744 -0.5763 -1.6556
 4273TIP3   OH234309   5.393   3.794  15.257  0.4992 -0.4642  0.2039
 4273TIP3    H134310   5.427   3.829  15.174 -0.4307  1.2376  0.5160
 4273TIP3    H234311   5.320   3.850  15.279  1.3846 -0.1890  2.7503
 4274TIP3   OH234312   5.311   2.188   1.503 -0.6663 -0.6154 -0.0402
 4274TIP3    H134313   5.282   2.097   1.498 -2.1903 -0.1417 -0.2258
 4274TIP3    H234314   5.406   2.182   1.512 -0.5404 -2.2010 -1.7235
 4275TIP3   OH234315   4.829   5.190   5.479  0.0044  0.3559  0.4179
 4275TIP3    H134316   4.919   5.160   5.490  0.5464  1.2636 -1.2585
 4275TIP3    H234317   4.806   5.227   5.565  0.9252 -0.5955  1.1008
 4276TIP3   OH234318   3.829   3.964  12.257  0.1226  0.0469  0.4239
 4276TIP3    H134319   3.840   3.899  12.326  1.4328  0.5606  0.7451
 4276TIP3    H234320   3.864   4.045  12.295 -0.7134  0.7440 -0.2496
 4277TIP3   OH234321   0.605   2.028   1.958  0.2731 -0.1121 -0.3467
 4277TIP3    H134322   0.518   2.022   1.918  0.1003  2.0462 -0.4186
 4277TIP3    H234323   0.643   1.941   1.946 -2.3955 -1.5863  0.9616
 4278TIP3   OH234324   2.817   3.640  14.832 -0.3163  0.2221 -0.4344
 4278TIP3    H134325   2.857   3.722  14.860  1.1012 -0.0218 -1.6259
 4278TIP3    H234326   2.779   3.659  14.746 -1.6703  0.1049  0.1134
 4279TIP3   OH234327   6.585   6.159   0.390 -0.0578  0.3852  0.4800
 4279TIP3    H134328   6.528   6.165   0.467 -0.3868 -1.4526  0.4307
 4279TIP3    H234329   6.629   6.244   0.386  0.0759  0.5065  2.7885
 4280TIP3   OH234330   4.479   5.646   1.494  0.2148 -0.3088 -0.6903
 4280TIP3    H134331   4.434   5.562   1.497  0.3084 -0.3363  0.2983
 4280TIP3    H234332   4.543   5.637   1.423 -0.3328 -0.7764 -1.1267
 4281TIP3   OH234333   0.753   6.552   3.366  0.1214 -0.0547 -0.5948
 4281TIP3    H134334   0.843   6.564   3.336  0.1697  3.0686  0.4421
 4281TIP3    H234335   0.700   6.604   3.306 -0.7020  0.0104  0.1622
 4282TIP3   OH234336   1.226   4.365  16.597 -0.1531  0.2509 -0.0690
 4282TIP3    H134337   1.300   4.422  16.619  0.6336 -0.8055  0.1353
 4282TIP3    H234338   1.156   4.393  16.655 -0.2417  1.9034 -0.9264
 4283TIP3   OH234339   1.411   2.058  12.543  0.0798 -0.2598 -0.2307
 4283TIP3    H134340   1.401   2.055  12.448 -2.2915 -1.1924 -0.0245
 4283TIP3    H234341   1.497   2.019  12.559  0.9968  0.8886 -2.0118
 4284TIP3   OH234342   0.638   0.437  14.905  0.2652  0.8180  0.4209
 4284TIP3    H134343   0.706   0.503  14.890 -1.5978  2.9311  0.9354
 4284TIP3    H234344   0.566   0.462  14.848 -1.0380  0.0707  1.6658
 4285TIP3   OH234345   0.572   5.164  11.839  0.3042 -0.4825 -0.0396
 4285TIP3    H134346   0.648   5.107  11.850  0.3121 -0.0057  3.7104
 4285TIP3    H234347   0.609   5.252  11.832  0.1484 -0.2896  1.3847
 4286TIP3   OH234348   1.203   4.370   5.682 -0.1020  0.4235 -0.2582
 4286TIP3    H134349   1.184   4.371   5.589 -0.9295  0.9354 -0.0939
 4286TIP3    H234350   1.292   4.335   5.688  0.1939  0.9615 -1.2780
 4287TIP3   OH234351   1.608   1.782  15.034 -1.0012  0.7053 -0.2035
 4287TIP3    H134352   1.578   1.824  15.114  0.7377 -0.2475  0.9951
 4287TIP3    H234353   1.656   1.851  14.988 -0.4107  0.7552  0.4760
 4288TIP3   OH234354   0.800   2.215  10.996  0.1481  0.1301 -0.2779
 4288TIP3    H134355   0.805   2.252  11.084  0.4481 -1.3488  0.3578
 4288TIP3    H234356   0.885   2.172  10.983 -0.1233 -0.1958 -1.0444
 4289TIP3   OH234357   0.293   2.455  11.491 -0.1762 -0.4710  0.4115
 4289TIP3    H134358   0.238   2.451  11.413 -0.1031  1.7092  0.1700
 4289TIP3    H234359   0.378   2.485  11.458  0.6039 -1.9216  1.0309
 4290TIP3   OH234360   0.636   5.094   2.816 -0.6138 -0.4890 -0.5318
 4290TIP3    H134361   0.616   5.170   2.872 -0.9274 -0.5640 -0.5418
 4290TIP3    H234362   0.607   5.120   2.729  1.6205  0.3873 -1.0878
 4291TIP3   OH234363   0.607   1.097   4.867 -0.2875  0.0556 -0.3638
 4291TIP3    H134364   0.575   1.114   4.956  0.1366 -0.9848  0.0018
 4291TIP3    H234365   0.617   1.002   4.863 -0.6058  0.0582 -1.6386
 4292TIP3   OH234366   6.135   1.823   3.520 -0.1143 -0.0858  0.4443
 4292TIP3    H134367   6.076   1.779   3.581  0.7154  0.6953  1.8646
 4292TIP3    H234368   6.170   1.897   3.569  2.0614 -0.5149 -0.3371
 4293TIP3   OH234369   3.461   3.963   1.027 -0.0277  0.0827 -0.3500
 4293TIP3    H134370   3.409   3.918   0.960  1.1987 -0.5391 -0.9188
 4293TIP3    H234371   3.434   3.922   1.109 -1.3677  0.6738 -0.4691
 4294TIP3   OH234372   6.361   3.227  15.577 -0.2028  0.1947 -0.2937
 4294TIP3    H134373   6.286   3.261  15.529 -1.7613 -0.0659  1.7682
 4294TIP3    H234374   6.371   3.287  15.651  2.4489  0.9069 -1.1191
 4295TIP3   OH234375   3.888   4.915   2.926  0.9879 -0.2871 -0.1925
 4295TIP3    H134376   3.936   4.993   2.895  0.9656 -0.7704 -1.5342
 4295TIP3    H234377   3.804   4.949   2.955  2.0531  0.5787  2.1776
 4296TIP3   OH234378   2.005   1.707  14.968  0.3771 -0.1166  0.1260
 4296TIP3    H134379   1.937   1.663  14.918  0.4166  0.5390 -0.5206
 4296TIP3    H234380   1.986   1.684  15.059 -0.5867 -0.1165 -0.0589
 4297TIP3   OH234381   1.448   4.609  13.752 -0.4155 -0.0252  0.1819
 4297TIP3    H134382   1.542   4.597  13.765 -0.3551  0.4969  0.2781
 4297TIP3    H234383   1.411   4.610  13.840  0.1913  5.1004  0.7267
 4298TIP3   OH234384   0.554   3.960  12.516  0.3408 -0.6646  0.0031
 4298TIP3    H134385   0.544   4.049  12.549  1.2417 -1.1311  1.6896
 4298TIP3    H234386   0.648   3.952  12.496  0.9605 -2.1148  2.9132
 4299TIP3   OH234387   4.745   6.556  11.401 -0.0899 -0.2770  0.5173
 4299TIP3    H134388   4.661   6.568  11.357 -1.3318 -2.2267  2.1749
 4299TIP3    H234389   4.766   6.643  11.436 -0.2731  0.7330 -1.7358
 4300TIP3   OH234390   5.697   2.397   2.728  0.2282 -0.4014 -1.1091
 4300TIP3    H134391   5.605   2.418   2.709 -0.0723 -1.4555 -0.8943
 4300TIP3    H234392   5.740   2.400   2.642 -0.2975 -1.2085 -1.4234
 4301TIP3   OH234393   3.922   5.169  16.386  0.2608 -0.7704  0.1869
 4301TIP3    H134394   3.896   5.177  16.295 -3.0406  0.5848  1.1105
 4301TIP3    H234395   3.948   5.078  16.396 -1.8742 -1.6553 -1.5530
 4302TIP3   OH234396   4.936   5.929  12.114  0.7358 -0.0916  0.0974
 4302TIP3    H134397   4.988   5.861  12.070 -0.8185 -1.1016 -0.2619
 4302TIP3    H234398   4.948   6.007  12.060  1.7774 -0.3268 -0.0332
 4303TIP3   OH234399   3.874   5.637   2.032  0.1722  0.4900 -0.3558
 4303TIP3    H134400   3.812   5.607   1.965  1.5751 -0.2356 -1.3926
 4303TIP3    H234401   3.948   5.577   2.024  1.3423  1.7979  0.3150
 4304TIP3   OH234402   5.280   5.855  13.582  0.3190 -0.2411  0.2309
 4304TIP3    H134403   5.276   5.844  13.677  1.6608  1.6417  0.5543
 4304TIP3    H234404   5.191   5.881  13.557 -0.1630 -1.2151  0.8742
 4305TIP3   OH234405   5.945   0.622   2.259  0.2553 -0.2335 -0.3074
 4305TIP3    H134406   5.928   0.611   2.353  1.3315  0.9062  0.0445
 4305TIP3    H234407   5.954   0.716   2.247  3.1513 -0.4881 -0.9705
 4306TIP3   OH234408   4.058   5.381   0.037  0.3250 -0.4464  0.2112
 4306TIP3    H134409   4.146   5.343   0.036  1.2299  1.5110 -0.8560
 4306TIP3    H234410   4.043   5.405   0.128  2.1550  1.7998  0.0042
 4307TIP3   OH234411   2.665   3.240   3.095  0.1625  0.1682  0.2046
 4307TIP3    H134412   2.610   3.317   3.079 -0.5212 -0.3953 -0.1945
 4307TIP3    H234413   2.675   3.199   3.009  0.9178  0.0644  0.3356
 4308TIP3   OH234414   3.997   1.342  16.217  0.5591  0.2976 -0.4635
 4308TIP3    H134415   3.940   1.280  16.262 -0.2092  0.7514 -0.7986
 4308TIP3    H234416   3.988   1.423  16.268  1.5800  0.1503 -0.0090
 4309TIP3   OH234417   5.883   1.948   2.123 -0.0899  0.0875 -0.1304
 4309TIP3    H134418   5.888   1.962   2.218  2.7315  1.8621 -0.4185
 4309TIP3    H234419   5.853   1.858   2.114 -0.2129 -0.2219  2.4558
 4310TIP3   OH234420   6.226   1.774  13.088 -0.3257  0.8163 -0.2904
 4310TIP3    H134421   6.311   1.811  13.065 -0.1842 -0.0873 -1.2651
 4310TIP3    H234422   6.164   1.817  13.030 -0.2810  0.1884 -0.8138
 4311TIP3   OH234423   5.414   5.511   2.868 -0.0476  0.1299 -0.0562
 4311TIP3    H134424   5.381   5.472   2.949  1.5450 -0.7594  0.2161
 4311TIP3    H234425   5.342   5.503   2.806 -1.1891  0.5390  1.1674
 4312TIP3   OH234426   1.955   1.196  14.518 -0.0666 -0.3704 -0.6623
 4312TIP3    H134427   2.009   1.241  14.453 -0.5418 -0.5639 -1.1885
 4312TIP3    H234428   2.013   1.189  14.595  0.4795 -0.1056 -1.0375
 4313TIP3   OH234429   5.509   3.570  16.675  0.4542  0.4178 -0.6850
 4313TIP3    H134430   5.543   3.531  16.755 -1.2439 -1.9477 -0.9982
 4313TIP3    H234431   5.531   3.663  16.681  0.0333  0.4102  2.7055
 4314TIP3   OH234432   6.204   4.900  11.534 -0.5230  0.2442 -0.1811
 4314TIP3    H134433   6.254   4.894  11.615 -1.1249 -0.4148  0.1587
 4314TIP3    H234434   6.264   4.938  11.471 -0.0945  0.9157  0.6145
 4315TIP3   OH234435   6.316   4.867   0.981  0.1260 -0.2009 -0.0882
 4315TIP3    H134436   6.312   4.943   0.922 -1.0358 -0.2721 -0.1140
 4315TIP3    H234437   6.227   4.857   1.014  0.4908 -0.9423  0.7112
 4316TIP3   OH234438   3.226   5.227   2.959 -0.2088 -0.3100  0.5162
 4316TIP3    H134439   3.131   5.215   2.960 -0.1235 -1.0590  0.0902
 4316TIP3    H234440   3.258   5.163   3.023  0.1131 -1.1328 -0.4368
 4317TIP3   OH234441   5.952   1.006   1.110 -0.0051  0.6970  0.1750
 4317TIP3    H134442   5.893   1.080   1.119 -1.5252 -0.4278 -0.1679
 4317TIP3    H234443   5.960   0.993   1.016  0.1776  0.3566  0.2350
 4318TIP3   OH234444   4.822   2.658   4.271 -0.3796 -0.1078  0.1346
 4318TIP3    H134445   4.740   2.618   4.243 -0.2466 -0.9953  0.9458
 4318TIP3    H234446   4.828   2.739   4.221 -0.7263 -1.0367 -1.4617
 4319TIP3   OH234447   2.704   2.083   5.107 -0.1019 -0.4620 -0.0384
 4319TIP3    H134448   2.743   2.121   5.028 -0.8623  0.3248 -0.0485
 4319TIP3    H234449   2.710   2.153   5.172  0.6466 -1.1524  0.6576
 4320TIP3   OH234450   1.920   6.173   2.676  0.8379 -0.4424  0.0466
 4320TIP3    H134451   2.004   6.163   2.722  0.9364  1.8012  0.4849
 4320TIP3    H234452   1.872   6.237   2.729 -0.1946  0.0983 -1.4846
 4321TIP3   OH234453   2.105   0.338   3.311  0.2337  0.1004  0.3178
 4321TIP3    H134454   2.154   0.337   3.229 -0.5974  1.3230 -0.2220
 4321TIP3    H234455   2.136   0.261   3.359  0.8946 -0.5023 -1.0394
 4322TIP3   OH234456   2.183   0.723   3.615  0.2987 -0.1387  0.1056
 4322TIP3    H134457   2.091   0.698   3.624  0.0094  0.7468 -0.2912
 4322TIP3    H234458   2.214   0.672   3.540 -0.0385  0.0245 -0.1460
 4323TIP3   OH234459   3.351   4.327   2.108  0.0334  0.0365  0.0136
 4323TIP3    H134460   3.355   4.330   2.203  2.6174  0.9662 -0.0487
 4323TIP3    H234461   3.290   4.397   2.084  2.0537  2.2220  0.9472
 4324TIP3   OH234462   3.005   1.080  17.111  0.3615  0.0271  0.7184
 4324TIP3    H134463   2.962   1.010  17.159 -0.8791 -1.8868 -2.7595
 4324TIP3    H234464   3.048   1.134  17.178 -0.6646 -2.6427  3.7591
 4325TIP3   OH234465   0.819   5.389   3.644  0.3932  0.3117  0.2312
 4325TIP3    H134466   0.819   5.340   3.726  0.9895 -2.1362 -1.1198
 4325TIP3    H234467   0.912   5.403   3.625  0.3450 -0.3989 -0.6552
 4326TIP3   OH234468   2.721   4.829  12.508 -0.2196 -0.3240 -0.0704
 4326TIP3    H134469   2.678   4.756  12.553 -0.9865 -0.3064 -0.7483
 4326TIP3    H234470   2.811   4.827  12.539 -0.6506 -0.4988  1.2250
 4327TIP3   OH234471   4.276   3.965   6.197 -0.3012  0.3448 -0.3393
 4327TIP3    H134472   4.226   3.891   6.163  0.0397  0.1468 -0.4051
 4327TIP3    H234473   4.275   3.953   6.292  1.4595 -0.8571 -0.4347
 4328TIP3   OH234474   4.636   3.529  11.801 -0.0062 -0.2388  0.6400
 4328TIP3    H134475   4.690   3.579  11.740  1.8423 -0.5002  1.9560
 4328TIP3    H234476   4.668   3.439  11.795 -1.5756 -0.7952  0.1372
 4329TIP3   OH234477   5.624   3.607   5.207  0.0005  0.0800 -0.9342
 4329TIP3    H134478   5.546   3.625   5.259  1.5366  1.9723  0.8849
 4329TIP3    H234479   5.642   3.689   5.161  1.9273  0.3515  0.1693
 4330TIP3   OH234480   6.751   6.294  14.469 -0.2487 -0.3480 -0.2138
 4330TIP3    H134481   6.811   6.310  14.396 -1.6620 -1.7208 -1.7894
 4330TIP3    H234482   6.805   6.251  14.535  1.1198  1.1079 -0.3201
 4331TIP3   OH234483   2.026   0.774   3.293 -0.2463  0.1806 -0.4788
 4331TIP3    H134484   1.987   0.686   3.292  0.2653 -0.0585 -1.9787
 4331TIP3    H234485   1.978   0.822   3.226  0.5489  0.5497 -0.7942
 4332TIP3   OH234486   6.418   2.470  11.125 -0.1350 -0.4189  0.1968
 4332TIP3    H134487   6.459   2.543  11.079 -0.3163  0.1697  0.9492
 4332TIP3    H234488   6.460   2.392  11.089 -0.2199  0.0333 -0.8960
 4333TIP3   OH234489   6.199   2.079   3.011 -0.2216 -0.1740  0.6259
 4333TIP3    H134490   6.151   2.157   3.040 -0.3277 -1.0835  3.1020
 4333TIP3    H234491   6.152   2.006   3.049  0.7722 -1.3776 -0.3611
 4334TIP3   OH234492   6.400   2.278   1.805 -0.2619  0.0944 -0.4793
 4334TIP3    H134493   6.485   2.238   1.823 -0.2867 -0.1234 -0.8344
 4334TIP3    H234494   6.336   2.219   1.845 -0.2706  0.0329 -0.5840
 4335TIP3   OH234495   3.989   3.793   2.010  0.3512  0.1840 -0.3652
 4335TIP3    H134496   4.013   3.731   2.079 -0.6228 -1.0912 -1.1239
 4335TIP3    H234497   3.904   3.828   2.037 -1.0054 -1.8023 -1.7877
 4336TIP3   OH234498   4.113   1.725  12.595  0.2037  0.2383 -0.0508
 4336TIP3    H134499   4.169   1.757  12.524 -0.9015 -0.4066 -1.2656
 4336TIP3    H234500   4.079   1.642  12.563 -1.0977  0.4053  0.8327
 4337TIP3   OH234501   0.789   0.327  17.273  0.0586 -0.0123  0.0363
 4337TIP3    H134502   0.740   0.322  17.355 -0.2481 -0.3974 -0.1629
 4337TIP3    H234503   0.780   0.419  17.245  1.9573  0.6626  1.4914
 4338TIP3   OH234504   4.841   5.339   4.275 -0.0098  0.4109  0.2962
 4338TIP3    H134505   4.863   5.292   4.355 -0.6569 -0.8339 -0.2338
 4338TIP3    H234506   4.916   5.323   4.217 -1.2219 -2.0046 -0.7258
 4339TIP3   OH234507   3.335   1.172  11.887  0.3014  0.7026  0.4477
 4339TIP3    H134508   3.369   1.109  11.823 -1.2505  1.1528 -0.8703
 4339TIP3    H234509   3.311   1.118  11.962 -0.1355 -0.1664 -0.2985
 4340TIP3   OH234510   1.435   6.455   1.252  0.3509 -0.0853  0.6605
 4340TIP3    H134511   1.390   6.387   1.303  0.2618 -1.0174 -0.6256
 4340TIP3    H234512   1.459   6.412   1.170  2.4501  0.7617  0.7751
 4341TIP3   OH234513   2.223   6.523  16.927  0.6121  0.3196 -0.3229
 4341TIP3    H134514   2.194   6.448  16.979  0.8284  1.7142  1.9757
 4341TIP3    H234515   2.171   6.518  16.847  1.3530 -2.7983 -0.7442
 4342TIP3   OH234516   2.092   2.863  14.400  0.3024  0.1319 -0.2829
 4342TIP3    H134517   2.058   2.949  14.425 -0.3418 -0.7876  2.2809
 4342TIP3    H234518   2.178   2.859  14.442  0.2263 -0.5640 -0.1878
 4343TIP3   OH234519   2.770   5.552  11.956 -0.0482 -0.2306 -0.3149
 4343TIP3    H134520   2.817   5.603  12.022  1.2914  1.0819 -2.1955
 4343TIP3    H234521   2.839   5.504  11.910 -1.1078 -2.3777  0.2051
 4344TIP3   OH234522   0.797   6.526   2.460  0.1425 -0.3220  0.1244
 4344TIP3    H134523   0.786   6.508   2.367  0.3521 -0.4538  0.1240
 4344TIP3    H234524   0.731   6.471   2.503 -0.2558  0.0769  0.0271
 4345TIP3   OH234525   5.001   3.395  16.751  0.8503  0.1632  0.9874
 4345TIP3    H134526   5.076   3.442  16.788  0.3865  0.2613  1.8358
 4345TIP3    H234527   5.034   3.307  16.734  1.3490  0.4028  0.6721
 4346TIP3   OH234528   0.053   5.739   0.727  0.2435 -0.0349  0.1902
 4346TIP3    H134529  -0.022   5.682   0.746 -0.0700 -0.0922 -1.1243
 4346TIP3    H234530   0.102   5.693   0.660  0.2510  1.0122 -0.5448
 4347TIP3   OH234531   0.880   1.618  11.240 -0.2989  0.1077 -0.1274
 4347TIP3    H134532   0.840   1.670  11.169 -1.7082 -0.1250  0.4594
 4347TIP3    H234533   0.914   1.683  11.301 -1.1690  0.3396  0.1175
 4348TIP3   OH234534   3.608   1.434  11.184 -0.6778  0.2347 -0.0205
 4348TIP3    H134535   3.556   1.513  11.199 -0.7700  0.0715  0.5715
 4348TIP3    H234536   3.544   1.366  11.162 -0.5645  0.4101 -0.9203
 4349TIP3   OH234537   3.476   6.192  12.600  0.6099  0.4771  0.3752
 4349TIP3    H134538   3.551   6.230  12.646  0.3941  3.3443 -1.4201
 4349TIP3    H234539   3.400   6.238  12.636 -0.0368 -0.4533  0.2496
 4350TIP3   OH234540   2.878   3.890   5.641 -0.4358 -0.2523 -0.7459
 4350TIP3    H134541   2.928   3.969   5.660 -0.3763  0.0374 -2.0552
 4350TIP3    H234542   2.798   3.899   5.695  0.6504 -0.4949  0.9848
 4351TIP3   OH234543   2.660   0.270  16.607  0.4422  0.5364  0.3946
 4351TIP3    H134544   2.704   0.204  16.554  1.3307 -0.3096  2.1057
 4351TIP3    H234545   2.568   0.266  16.580  0.8127 -0.0612 -0.8310
 4352TIP3   OH234546   6.721   3.505   4.344  0.0742 -0.5236 -0.8421
 4352TIP3    H134547   6.696   3.580   4.288  0.0385  0.3771  0.3416
 4352TIP3    H234548   6.652   3.501   4.410  1.6507  0.4107  0.9857
 4353TIP3   OH234549   4.037   3.233   2.512  0.3731  0.4579 -0.0977
 4353TIP3    H134550   4.091   3.307   2.541  0.2658  0.3285  0.4362
 4353TIP3    H234551   4.075   3.157   2.555  0.2170  0.2617 -0.3042
 4354TIP3   OH234552   2.258   6.480  13.046 -0.1557  0.0890  0.1998
 4354TIP3    H134553   2.217   6.395  13.028  0.6696 -0.0677 -1.1102
 4354TIP3    H234554   2.259   6.486  13.141 -0.7695 -1.1130  0.3045
 4355TIP3   OH234555   1.183   2.651   4.297 -0.6058 -0.5848 -0.2668
 4355TIP3    H134556   1.232   2.570   4.311  0.7202  0.0827 -0.8845
 4355TIP3    H234557   1.195   2.671   4.205 -0.8895  0.3413 -0.1159
 4356TIP3   OH234558   5.954   2.917  16.334 -0.3496 -0.4087  0.7942
 4356TIP3    H134559   5.915   2.852  16.392 -1.4539 -0.5450 -0.0815
 4356TIP3    H234560   5.935   3.001  16.376 -0.9316 -0.5204  0.7614
 4357TIP3   OH234561   6.021   3.251   4.162  0.0992 -0.2955  0.8810
 4357TIP3    H134562   6.043   3.215   4.076  2.2058 -1.3446  1.7908
 4357TIP3    H234563   5.927   3.270   4.157  0.5275  1.8009 -2.3879
 4358TIP3   OH234564   3.479   0.939  13.133 -0.4327 -0.2559  0.3077
 4358TIP3    H134565   3.389   0.914  13.111 -0.4670 -2.7597  2.8402
 4358TIP3    H234566   3.485   0.929  13.228  1.8776  2.2855  0.5506
 4359TIP3   OH234567   5.730   0.493   2.468 -0.8361 -0.4666  0.0513
 4359TIP3    H134568   5.799   0.432   2.440  0.3175  0.8726 -0.1480
 4359TIP3    H234569   5.688   0.519   2.386  0.7482  1.3557 -0.2643
 4360TIP3   OH234570   3.159   5.168  13.618 -0.6233 -0.2446 -0.0890
 4360TIP3    H134571   3.103   5.245  13.625 -1.1737 -0.5640 -0.8140
 4360TIP3    H234572   3.227   5.193  13.555 -1.2494 -0.6006 -0.9201
 4361TIP3   OH234573   5.154   4.305  11.499  0.6150  0.3342  0.1221
 4361TIP3    H134574   5.158   4.346  11.586  0.3777 -0.7977  0.6963
 4361TIP3    H234575   5.244   4.277  11.482  0.8831  1.5110 -0.5027
 4362TIP3   OH234576   2.010   2.924  15.589 -0.2073 -0.0024 -0.1114
 4362TIP3    H134577   2.104   2.931  15.573 -0.2879 -0.0556 -0.6164
 4362TIP3    H234578   2.003   2.865  15.664  0.1803  0.3683  0.2295
 4363TIP3   OH234579   3.913   4.063  12.672 -0.0283  0.1064  0.2457
 4363TIP3    H134580   3.828   4.033  12.641 -0.6420  2.7134 -0.8129
 4363TIP3    H234581   3.900   4.081  12.765 -0.0733 -1.2929  0.5258
 4364TIP3   OH234582   6.039   4.447   0.688  0.3916 -0.2311  0.3199
 4364TIP3    H134583   6.016   4.354   0.690  2.0540 -0.6668  1.3780
 4364TIP3    H234584   5.989   4.486   0.760 -1.6926  0.1068 -1.2240
 4365TIP3   OH234585   4.724   2.858   1.757 -0.1506 -0.1618 -0.2035
 4365TIP3    H134586   4.754   2.883   1.844 -0.4239 -0.0610 -0.1387
 4365TIP3    H234587   4.681   2.774   1.770 -0.1796 -0.1534 -0.2461
 4366TIP3   OH234588   0.858   1.368  13.907  0.5554 -0.1567 -0.1580
 4366TIP3    H134589   0.862   1.447  13.853  1.9982 -0.4089 -0.4590
 4366TIP3    H234590   0.780   1.321  13.876 -0.3452  1.1482  0.0604
 4367TIP3   OH234591   4.949   1.816   3.590  0.2120  0.0903 -0.2441
 4367TIP3    H134592   4.895   1.852   3.520 -0.4662 -0.3139  0.0549
 4367TIP3    H234593   4.898   1.741   3.622  0.0817  0.8019  1.2742
 4368TIP3   OH234594   1.105   4.391   3.474 -0.6146 -0.0410 -0.9490
 4368TIP3    H134595   1.108   4.396   3.379 -0.9863 -0.9821 -1.0232
 4368TIP3    H234596   1.027   4.441   3.499 -0.5409  0.1701 -1.1411
 4369TIP3   OH234597   6.305   3.402  15.791 -0.6590  0.5004 -0.1282
 4369TIP3    H134598   6.214   3.429  15.797 -0.5072  0.6696  1.9543
 4369TIP3    H234599   6.342   3.421  15.877  1.3247  0.3354 -0.8815
 4370TIP3   OH234600   3.100   5.476  13.691  0.2688 -0.6706  0.3059
 4370TIP3    H134601   3.052   5.441  13.616 -0.1682  1.8876 -0.7300
 4370TIP3    H234602   3.034   5.480  13.761 -0.2821  0.1044 -0.2366
 4371TIP3   OH234603   4.495   6.610  11.675 -0.2946 -0.4221  0.1331
 4371TIP3    H134604   4.573   6.645  11.632  0.6764 -1.0299  1.3305
 4371TIP3    H234605   4.422   6.645  11.624  0.7505  0.1204 -1.0550
 4372TIP3   OH234606   3.380   4.429  14.289  0.0591 -0.4292  0.0830
 4372TIP3    H134607   3.461   4.385  14.261  0.3211  0.2210 -0.1890
 4372TIP3    H234608   3.352   4.380  14.366 -1.2659 -2.9919 -1.8398
 4373TIP3   OH234609   2.231   2.004  12.549  0.1016 -0.1633  1.0317
 4373TIP3    H134610   2.194   2.011  12.637  0.2580  0.1091  1.0750
 4373TIP3    H234611   2.216   1.912  12.524 -0.9478  0.0242  0.9010
 4374TIP3   OH234612   1.813   5.780   4.375 -0.2184  0.1348  0.6547
 4374TIP3    H134613   1.769   5.699   4.351 -0.2127 -0.4619  2.5047
 4374TIP3    H234614   1.749   5.848   4.359 -0.9553 -0.4670  0.9998
 4375TIP3   OH234615   5.059   0.055  15.350  0.5616  0.1412  0.1411
 4375TIP3    H134616   5.103   0.109  15.416 -0.2961 -1.5908  2.2743
 4375TIP3    H234617   4.988   0.110  15.317  0.9207  1.0107  0.7860
 4376TIP3   OH234618   1.299   4.843   1.525 -0.1929  0.1176  0.6412
 4376TIP3    H134619   1.251   4.864   1.605  0.3062  0.2932  0.8961
 4376TIP3    H234620   1.328   4.928   1.492  0.1709 -0.0081  0.6328
 4377TIP3   OH234621   5.678   3.474   2.810 -0.0243  0.2850  0.2928
 4377TIP3    H134622   5.664   3.398   2.866  1.3018  0.1684  0.5120
 4377TIP3    H234623   5.711   3.542   2.869 -1.7434  1.2503  0.2036
 4378TIP3   OH234624   0.562   6.625   2.058  0.1194 -0.7122 -0.0447
 4378TIP3    H134625   0.568   6.703   2.003 -1.3557 -1.1017 -0.8195
 4378TIP3    H234626   0.619   6.561   2.014  0.6880 -0.3406  0.1395
 4379TIP3   OH234627   3.612   5.271   6.232  0.0554  0.4076  0.2786
 4379TIP3    H134628   3.636   5.201   6.293 -2.8694 -0.7075  0.2791
 4379TIP3    H234629   3.561   5.333   6.284  1.4393  1.9068 -0.0545
 4380TIP3   OH234630   4.080   3.747  15.662 -0.3266  0.0964  0.3324
 4380TIP3    H134631   4.075   3.817  15.596 -0.1370 -1.0781 -0.9867
 4380TIP3    H234632   4.158   3.769  15.713 -0.4212  0.9916  0.1106
 4381TIP3   OH234633   3.933   0.974   6.592 -0.3696  0.1271  0.2393
 4381TIP3    H134634   3.984   1.043   6.549  0.2505 -0.5834 -0.1795
 4381TIP3    H234635   3.901   1.016   6.673  0.3444  0.7773  0.1990
 4382TIP3   OH234636   6.507   3.531   2.834 -0.8771  0.5004 -0.1274
 4382TIP3    H134637   6.586   3.553   2.784 -1.3826 -0.1327 -1.2555
 4382TIP3    H234638   6.539   3.481   2.909 -0.1734  0.5490 -0.3897
 4383TIP3   OH234639   0.307   0.768  13.186 -0.3914 -0.4335 -0.1296
 4383TIP3    H134640   0.257   0.774  13.105 -0.2046 -0.4376 -0.2434
 4383TIP3    H234641   0.240   0.764  13.255 -0.5528 -0.7129 -0.3007
 4384TIP3   OH234642   1.335   4.378  14.154  0.1443  0.7493 -0.2289
 4384TIP3    H134643   1.304   4.401  14.067  0.2735 -1.1826 -0.8348
 4384TIP3    H234644   1.345   4.283  14.152  1.2329  0.7739  1.5497
 4385TIP3   OH234645   2.560   1.482  15.093  0.3807 -0.2290 -0.0374
 4385TIP3    H134646   2.629   1.489  15.027  0.3943 -1.1236 -0.1393
 4385TIP3    H234647   2.581   1.401  15.140 -1.1763 -1.1008 -0.7670
 4386TIP3   OH234648   6.630   1.116   3.457 -0.1458  0.4083 -0.2131
 4386TIP3    H134649   6.573   1.113   3.533 -0.3181 -2.4649 -0.3547
 4386TIP3    H234650   6.712   1.076   3.487 -0.1141 -0.4976 -1.4252
 4387TIP3   OH234651   5.316   5.951   2.828  0.0276  0.3346 -0.6556
 4387TIP3    H134652   5.388   6.009   2.856 -0.1559  0.6068 -0.7411
 4387TIP3    H234653   5.329   5.871   2.878 -0.0494  0.6615 -0.1096
 4388TIP3   OH234654   2.731   3.950   1.831 -0.6990 -0.4390 -0.7502
 4388TIP3    H134655   2.766   4.039   1.835 -1.7388  0.0060 -1.1033
 4388TIP3    H234656   2.800   3.898   1.791  1.3218 -0.5279  2.4305
 4389TIP3   OH234657   3.549   4.826  14.430  0.1465 -0.1369 -0.0063
 4389TIP3    H134658   3.534   4.908  14.382  3.3541  0.8383  0.4333
 4389TIP3    H234659   3.507   4.759  14.376  1.6514  1.1953 -3.0694
 4390TIP3   OH234660   1.986   6.813  16.220 -0.1322 -0.1989  0.1103
 4390TIP3    H134661   2.074   6.778  16.209  0.2849  0.7435  0.3579
 4390TIP3    H234662   1.973   6.816  16.315 -1.0068 -1.6869  0.0726
 4391TIP3   OH234663   0.588   6.692  14.381 -0.2520 -0.2509 -0.3203
 4391TIP3    H134664   0.551   6.771  14.343 -1.4837 -0.0253  1.2483
 4391TIP3    H234665   0.659   6.667  14.321 -1.8681  0.2258 -2.5557
 4392TIP3   OH234666   1.743   2.233   6.929  0.5935  0.2174 -0.1869
 4392TIP3    H134667   1.748   2.144   6.961 -0.3017  0.9446  2.1519
 4392TIP3    H234668   1.753   2.288   7.006 -0.4866  2.1150 -1.2977
 4393TIP3   OH234669   3.535   0.183   2.038  0.2907  0.4611 -0.0647
 4393TIP3    H134670   3.488   0.258   2.075 -0.3990 -0.2622  0.5478
 4393TIP3    H234671   3.565   0.133   2.114 -0.5061 -0.6489 -0.4513
 4394TIP3   OH234672   6.469   1.757   3.455  0.0625 -0.0383 -0.2646
 4394TIP3    H134673   6.449   1.835   3.506  0.2077  0.2818 -0.6844
 4394TIP3    H234674   6.442   1.684   3.510  0.7986  0.2678  0.5306
 4395TIP3   OH234675   5.672   0.980  15.915  0.6479  0.5717  0.9007
 4395TIP3    H134676   5.674   1.050  15.850 -0.4146  0.4687  0.7504
 4395TIP3    H234677   5.659   0.900  15.864 -0.0981  0.4807  1.2222
 4396TIP3   OH234678   2.501   5.468   5.613 -0.1920  0.0040 -0.4696
 4396TIP3    H134679   2.431   5.484   5.676 -0.9397  0.1269 -1.3141
 4396TIP3    H234680   2.470   5.395   5.560 -0.5511  1.2500 -2.0620
 4397TIP3   OH234681   3.812   1.633   3.145  0.7775  0.5781  0.1664
 4397TIP3    H134682   3.842   1.694   3.077 -1.2576  0.5130 -0.8620
 4397TIP3    H234683   3.717   1.631   3.135  0.3813  0.6202  3.0978
 4398TIP3   OH234684   5.232   6.250  10.687  0.2688 -0.2938  0.0266
 4398TIP3    H134685   5.224   6.211  10.600  1.9107 -2.2351  0.6715
 4398TIP3    H234686   5.309   6.306  10.681 -0.9767  1.4577 -0.3614
 4399TIP3   OH234687   1.232   5.959  14.037  0.1325  0.7607 -0.2280
 4399TIP3    H134688   1.271   6.017  14.102  1.7004 -1.6633  1.1514
 4399TIP3    H234689   1.146   5.936  14.074 -0.3302  1.8606 -0.5981
 4400TIP3   OH234690   0.846   4.651  17.239  0.2144  0.6825  0.0813
 4400TIP3    H134691   0.922   4.612  17.195 -0.3658 -0.8343  0.3504
 4400TIP3    H234692   0.793   4.687  17.168  1.7601  2.9647 -0.0280
 4401TIP3   OH234693   5.250   3.195   0.708 -0.1523 -0.0661  0.3169
 4401TIP3    H134694   5.162   3.169   0.734 -0.2593 -2.7621 -2.2206
 4401TIP3    H234695   5.237   3.279   0.663 -1.1528  0.3507  1.3360
 4402TIP3   OH234696   2.487   2.462   5.072  0.0850  0.7332  0.3576
 4402TIP3    H134697   2.569   2.475   5.121 -1.0767 -1.5410  3.2128
 4402TIP3    H234698   2.440   2.395   5.122 -2.4742  0.1630 -2.5436
 4403TIP3   OH234699   3.474   5.105   5.069  0.0365 -0.2906  0.1716
 4403TIP3    H134700   3.467   5.192   5.110 -0.2165  0.1614 -0.8081
 4403TIP3    H234701   3.398   5.057   5.103  0.3469 -0.2400  0.9576
 4404TIP3   OH234702   3.010   5.077  10.431 -0.3228 -0.0036  0.1529
 4404TIP3    H134703   3.101   5.104  10.437 -0.4616  0.4239  0.4173
 4404TIP3    H234704   2.969   5.141  10.373 -0.7513  0.6329  1.1239
 4405TIP3   OH234705   0.684   4.220   4.697  0.1505 -0.8919 -0.1573
 4405TIP3    H134706   0.658   4.239   4.787 -2.3096 -0.9571 -0.7572
 4405TIP3    H234707   0.649   4.294   4.646 -1.0215 -2.2178 -1.3593
 4406TIP3   OH234708   5.684   1.163  11.424 -0.1900 -0.0593 -0.0679
 4406TIP3    H134709   5.603   1.211  11.407  0.1467  0.2934 -0.7302
 4406TIP3    H234710   5.659   1.071  11.417 -0.3951  0.0569 -0.9509
 4407TIP3   OH234711   0.923   3.469  11.136  0.5277  0.1497 -0.7459
 4407TIP3    H134712   0.964   3.503  11.216 -2.0025 -0.6537  1.0196
 4407TIP3    H234713   0.953   3.378  11.132  0.6651  0.1933 -0.7342
 4408TIP3   OH234714   5.034   0.958   6.039  0.4636 -0.3526  0.6085
 4408TIP3    H134715   4.956   0.944   5.985  0.8853 -1.9202  0.3354
 4408TIP3    H234716   5.106   0.929   5.983  1.1109 -0.1069  1.3046
 4409TIP3   OH234717   6.065   5.610  14.317 -0.0941 -0.4540 -0.3649
 4409TIP3    H134718   6.051   5.541  14.252 -1.0223  0.2753 -0.9684
 4409TIP3    H234719   6.142   5.657  14.284 -0.2870 -0.3685 -0.7034
 4410TIP3   OH234720   2.117   2.991   4.561  0.2571  0.7329 -0.4061
 4410TIP3    H134721   2.152   3.078   4.579  0.2820  0.4140  1.2845
 4410TIP3    H234722   2.194   2.935   4.554  0.2076  0.6675 -0.4268
 4411TIP3   OH234723   4.183   4.325  14.474  0.3312  0.3925 -0.1405
 4411TIP3    H134724   4.174   4.389  14.404  1.6628  0.7529 -0.0099
 4411TIP3    H234725   4.164   4.373  14.554 -0.1827  0.2376 -0.1695
 4412TIP3   OH234726   4.197   3.449   2.565  0.6630 -0.3151  0.2232
 4412TIP3    H134727   4.208   3.540   2.536 -1.0857 -0.1508 -0.0135
 4412TIP3    H234728   4.138   3.455   2.640  1.2419 -1.1982  0.7693
 4413TIP3   OH234729   1.062   3.269  15.734  0.2997  0.1664 -0.5910
 4413TIP3    H134730   1.111   3.336  15.781 -2.1317 -0.8041  3.8804
 4413TIP3    H234731   0.986   3.315  15.699 -1.0116  0.0662  1.8900
 4414TIP3   OH234732   3.814   3.924  15.780 -0.3513 -0.3659  0.1366
 4414TIP3    H134733   3.797   3.880  15.863  2.1351 -0.6480  0.5939
 4414TIP3    H234734   3.863   3.860  15.729  1.9040  1.2161  0.1704
 4415TIP3   OH234735   6.201   0.187   1.827  0.1078 -0.2213  0.1033
 4415TIP3    H134736   6.107   0.175   1.816 -0.1152  1.5325 -0.1843
 4415TIP3    H234737   6.216   0.171   1.921 -0.7691  1.1392  0.4964
 4416TIP3   OH234738   1.992   1.836   6.233 -0.3919 -0.3992 -0.3492
 4416TIP3    H134739   1.999   1.929   6.255  0.8479  0.0356 -2.3114
 4416TIP3    H234740   2.049   1.792   6.295 -0.6923  0.1821  0.3519
 4417TIP3   OH234741   4.083   4.476  14.673  0.1172  0.3421  0.8499
 4417TIP3    H134742   4.016   4.436  14.729 -1.2186  2.3786  0.8116
 4417TIP3    H234743   4.042   4.556  14.640  2.3942  1.4023  0.3885
 4418TIP3   OH234744   2.031   4.767  12.196  0.1012  0.0640  0.5401
 4418TIP3    H134745   2.048   4.861  12.189  0.9876 -0.1426 -0.5433
 4418TIP3    H234746   1.946   4.761  12.238 -0.5133  1.3973 -0.4095
 4419TIP3   OH234747   2.531   3.400  12.264 -0.2467  0.1103 -0.2702
 4419TIP3    H134748   2.542   3.317  12.216 -0.1846 -0.3064  0.4477
 4419TIP3    H234749   2.440   3.425  12.249 -0.5892 -0.6763  0.4148
 4420TIP3   OH234750   5.543   6.114   0.542  0.1675 -0.3790  0.1765
 4420TIP3    H134751   5.574   6.058   0.470 -0.5944 -1.3414  0.5759
 4420TIP3    H234752   5.610   6.182   0.550  0.4728 -0.4915 -1.1746
 4421TIP3   OH234753   2.457   0.764  11.504  0.2507 -0.1996 -0.3032
 4421TIP3    H134754   2.506   0.835  11.462  0.8570 -0.8665 -0.7580
 4421TIP3    H234755   2.491   0.760  11.593 -1.0033  1.1899  0.2878
 4422TIP3   OH234756   5.566   1.696  17.279  0.2629 -0.2881 -0.0261
 4422TIP3    H134757   5.578   1.603  17.259  0.9258  0.4724 -3.9234
 4422TIP3    H234758   5.503   1.726  17.213 -0.6170  1.9151  1.7010
 4423TIP3   OH234759   5.738   2.971  13.117 -0.1421  0.1311 -0.7071
 4423TIP3    H134760   5.783   2.890  13.142 -1.7927 -0.9604 -1.1000
 4423TIP3    H234761   5.645   2.947  13.115 -0.7614  2.2514 -0.0739
 4424TIP3   OH234762   3.949   6.286  17.217  0.9386  0.3662  0.2293
 4424TIP3    H134763   3.986   6.372  17.200 -0.6479  0.6099 -2.4386
 4424TIP3    H234764   3.856   6.294  17.196  0.5692 -1.7764  0.7490
 4425TIP3   OH234765   4.368   2.488  12.422 -0.1693  0.2912  0.6774
 4425TIP3    H134766   4.429   2.492  12.496 -1.5830 -0.7495  1.9432
 4425TIP3    H234767   4.351   2.580  12.401 -0.7622  0.6433  2.5419
 4426TIP3   OH234768   2.088   6.146  10.567 -0.0949 -0.2173  0.1392
 4426TIP3    H134769   2.071   6.210  10.636 -0.9928  2.3778 -2.2913
 4426TIP3    H234770   2.179   6.163  10.542  0.1118 -0.8870  0.4385
 4427TIP3   OH234771   3.511   1.057   4.782  0.3351  0.3587 -0.4027
 4427TIP3    H134772   3.505   1.127   4.716  0.4192  1.1934  0.4612
 4427TIP3    H234773   3.421   1.036   4.803  0.3059  0.0507 -0.8027
 4428TIP3   OH234774   1.610   6.127   6.606 -0.1289  0.2106 -0.3063
 4428TIP3    H134775   1.520   6.095   6.602 -0.6872  1.3654  1.7015
 4428TIP3    H234776   1.659   6.056   6.647 -0.8954  0.9148  1.9692
 4429TIP3   OH234777   0.028   1.446   4.291 -0.0219 -0.1050  0.2119
 4429TIP3    H134778   0.076   1.526   4.268 -0.0835  0.1629  1.0001
 4429TIP3    H234779   0.031   1.393   4.211 -1.0930  1.2156 -0.7416
 4430TIP3   OH234780   5.829   1.407   2.453 -0.0375  0.1100  0.3403
 4430TIP3    H134781   5.872   1.487   2.485 -1.1754  0.0640  2.1507
 4430TIP3    H234782   5.835   1.346   2.526 -0.3316 -1.0159 -0.5495
 4431TIP3   OH234783   3.028   3.498  11.688  0.0188  0.5372  0.4427
 4431TIP3    H134784   2.948   3.496  11.636  1.1261  0.6505 -1.3712
 4431TIP3    H234785   3.023   3.581  11.736 -0.4673  1.0730 -0.4994
 4432TIP3   OH234786   2.438   4.495  13.569  0.2388  0.1203  0.5899
 4432TIP3    H134787   2.489   4.428  13.614  1.3345  0.8523  0.4919
 4432TIP3    H234788   2.426   4.461  13.481  2.8276  1.0089 -0.1898
 4433TIP3   OH234789   5.767   0.461  12.303 -0.6230 -0.1156 -0.0999
 4433TIP3    H134790   5.757   0.529  12.236  0.5108  0.1033 -0.0645
 4433TIP3    H234791   5.741   0.380  12.259  1.4285 -0.2034 -1.2903
 4434TIP3   OH234792   5.224   3.635  15.629  0.0483  0.4190  0.7136
 4434TIP3    H134793   5.236   3.615  15.536 -1.4579  1.4851  0.2570
 4434TIP3    H234794   5.291   3.700  15.649 -0.3155  0.9951  0.0802
 4435TIP3   OH234795   1.085   0.523   5.921  0.0327  0.0113  0.2054
 4435TIP3    H134796   1.063   0.496   6.011  1.8063  0.4676  0.8148
 4435TIP3    H234797   1.110   0.443   5.877  2.0989  0.1401  1.0442
 4436TIP3   OH234798   6.797   5.809  16.272 -0.2606  0.4698 -0.0168
 4436TIP3    H134799   6.758   5.729  16.306  3.7550 -1.6904  0.0910
 4436TIP3    H234800   6.812   5.791  16.179  0.1264  1.3229 -0.1304
 4437TIP3   OH234801   4.618   0.009   3.102  0.8200 -0.2232  0.1158
 4437TIP3    H134802   4.539   0.026   3.153  0.2977 -0.8859 -0.4583
 4437TIP3    H234803   4.667   0.091   3.106  0.4746 -0.0505  1.1179
 4438TIP3   OH234804   1.503   3.900  16.538 -0.2488  0.2117 -0.3601
 4438TIP3    H134805   1.504   3.969  16.471  2.9296 -0.9360 -1.6985
 4438TIP3    H234806   1.528   3.945  16.619  0.8579  0.8436 -1.0216
 4439TIP3   OH234807   6.606   3.334  12.592 -0.3071  0.1469  0.5278
 4439TIP3    H134808   6.524   3.286  12.584 -0.9609  1.2538  0.3456
 4439TIP3    H234809   6.643   3.307  12.676 -1.7897  0.9961  1.5014
 4440TIP3   OH234810   0.641   4.987   3.942 -0.0482 -0.1524 -0.6667
 4440TIP3    H134811   0.659   4.989   3.848  0.2421  0.2521 -0.6062
 4440TIP3    H234812   0.700   4.920   3.977  0.6178  0.4518 -0.6184
 4441TIP3   OH234813   0.420   1.997   3.973  0.6314 -0.0482  0.3055
 4441TIP3    H134814   0.476   1.933   4.015  0.5269  0.8531  1.9051
 4441TIP3    H234815   0.479   2.050   3.920  1.2484  0.5714  1.5698
 4442TIP3   OH234816   6.765   2.255  13.932 -0.0702 -0.1429  0.0899
 4442TIP3    H134817   6.782   2.182  13.873 -2.2939 -1.5053  0.9888
 4442TIP3    H234818   6.725   2.322  13.877  2.1445  0.5481 -0.7776
 4443TIP3   OH234819   2.671   1.714   3.999  0.1095 -0.2756  0.0037
 4443TIP3    H134820   2.615   1.679   4.069  1.5775  1.9178  2.4841
 4443TIP3    H234821   2.759   1.714   4.038  0.5697  3.6995 -0.6278
 4444TIP3   OH234822   1.162   5.549  11.539  0.6654  0.3977  0.4998
 4444TIP3    H134823   1.117   5.509  11.465 -2.6210  1.6667  1.6643
 4444TIP3    H234824   1.213   5.478  11.577 -0.4079 -1.1827 -0.8611
 4445TIP3   OH234825   2.426   3.380  12.525 -0.2971  0.2347 -0.3928
 4445TIP3    H134826   2.457   3.396  12.436 -0.4410  0.8438 -0.3348
 4445TIP3    H234827   2.425   3.466  12.566  0.3503 -0.1141  0.3929
 4446TIP3   OH234828   4.217   5.726   5.111  0.6178  0.3609 -0.1968
 4446TIP3    H134829   4.162   5.697   5.183 -0.3344 -0.0112 -1.0395
 4446TIP3    H234830   4.175   5.689   5.033  0.7400  2.0070 -1.0873
 4447TIP3   OH234831   0.543   1.208  15.206  1.0726  0.0537 -0.0851
 4447TIP3    H134832   0.475   1.147  15.234 -0.4329  1.6362 -0.1540
 4447TIP3    H234833   0.621   1.180  15.254  0.2798 -1.5059  0.3718
 4448TIP3   OH234834   4.157   2.347  13.870  0.0657  0.2924 -0.1224
 4448TIP3    H134835   4.210   2.279  13.910 -0.8142  0.2160  0.9635
 4448TIP3    H234836   4.089   2.365  13.934 -0.7953  0.8965 -1.1686
 4449TIP3   OH234837   6.494   3.661   1.481 -0.1567 -0.1056  0.3997
 4449TIP3    H134838   6.512   3.622   1.395 -1.7828  0.4841 -0.2624
 4449TIP3    H234839   6.568   3.634   1.536  0.1200 -1.8465 -0.7383
 4450TIP3   OH234840   1.689   6.241   5.899 -0.4002 -0.0699  0.2909
 4450TIP3    H134841   1.701   6.335   5.886 -0.3912 -0.0204  0.6588
 4450TIP3    H234842   1.740   6.201   5.829  3.4436  0.0867  2.7323
 4451TIP3   OH234843   5.567   5.971  15.145 -0.6037  0.2223 -0.1244
 4451TIP3    H134844   5.495   5.909  15.151 -0.5403 -0.1540 -2.2478
 4451TIP3    H234845   5.646   5.918  15.155 -0.5812  0.2506 -0.1504
 4452TIP3   OH234846   2.618   3.492  14.918 -0.1159 -0.2269 -0.2617
 4452TIP3    H134847   2.692   3.537  14.878 -0.8568  1.8998  0.6172
 4452TIP3    H234848   2.544   3.550  14.903 -0.7862 -0.2737  2.4317
 4453TIP3   OH234849   1.665   0.404  16.461 -0.7529  0.1094 -0.4782
 4453TIP3    H134850   1.724   0.407  16.386 -0.0217  1.3858  0.1248
 4453TIP3    H234851   1.679   0.486  16.508 -0.6007 -0.9597  1.5026
 4454TIP3   OH234852   3.212   6.305  12.698  0.4950  0.0902  0.1963
 4454TIP3    H134853   3.144   6.268  12.642  1.4604 -0.2390 -0.7801
 4454TIP3    H234854   3.164   6.354  12.765 -0.6792  0.3741 -0.8278
 4455TIP3   OH234855   1.474   5.407   1.853 -0.1194  0.3456  0.2242
 4455TIP3    H134856   1.395   5.460   1.861  0.0023  0.4283  0.9129
 4455TIP3    H234857   1.473   5.349   1.929  2.6326  3.2801  2.7782
 4456TIP3   OH234858   6.613   6.523  14.045 -0.7732 -0.1561 -0.2546
 4456TIP3    H134859   6.567   6.468  13.982  0.7568 -1.5462 -0.2230
 4456TIP3    H234860   6.579   6.495  14.130  0.6431 -1.8148 -0.1630
 4457TIP3   OH234861   6.632   4.134  17.000  0.7226  0.3876  0.0535
 4457TIP3    H134862   6.551   4.099  16.962 -0.0926 -0.0991  2.0785
 4457TIP3    H234863   6.631   4.227  16.978 -1.9907  1.0898  2.4432
 4458TIP3   OH234864   5.847   2.524  12.036 -0.0303 -0.7113 -0.0062
 4458TIP3    H134865   5.792   2.593  12.073  0.5493  0.6788 -1.6078
 4458TIP3    H234866   5.851   2.543  11.943  1.8841 -1.6729 -0.1795
 4459TIP3   OH234867   5.716   4.677   2.726 -0.1168  0.6656 -0.1754
 4459TIP3    H134868   5.727   4.764   2.765 -0.4429 -0.5268  2.8163
 4459TIP3    H234869   5.627   4.651   2.749  0.9819 -1.6934  1.8803
 4460TIP3   OH234870   2.146   4.767  12.855  0.2113  0.2876  0.1978
 4460TIP3    H134871   2.130   4.678  12.825  0.2920 -0.1787  1.4524
 4460TIP3    H234872   2.205   4.805  12.790 -0.5249 -0.2679 -0.8211
 4461TIP3   OH234873   1.488   1.479   5.376 -0.4079  0.3496 -0.3288
 4461TIP3    H134874   1.483   1.522   5.290  0.8383  1.1133 -0.0492
 4461TIP3    H234875   1.434   1.533   5.433 -0.4431  0.4105 -0.4188
 4462TIP3   OH234876   6.675   4.803  16.027  0.0893  0.4485 -0.1918
 4462TIP3    H134877   6.631   4.756  16.098  0.4238 -0.5191 -0.6031
 4462TIP3    H234878   6.761   4.761  16.021 -0.0699  0.2644 -1.4158
 4463TIP3   OH234879   0.774   3.600   0.008  0.2543 -0.1563 -0.2335
 4463TIP3    H134880   0.822   3.570  -0.070 -1.4650 -1.5739 -0.8147
 4463TIP3    H234881   0.743   3.519   0.049 -2.9289  0.6546 -0.7715
 4464TIP3   OH234882   5.072   3.712   0.224 -0.4940  1.0055 -0.0803
 4464TIP3    H134883   5.132   3.669   0.285 -0.8748 -0.8394 -0.9315
 4464TIP3    H234884   5.087   3.668   0.140 -2.2652  1.2285 -0.5616
 4465TIP3   OH234885   2.569   4.324   2.357  0.7182  0.3510 -0.2333
 4465TIP3    H134886   2.622   4.328   2.436 -0.3771 -0.1751  0.5519
 4465TIP3    H234887   2.479   4.317   2.388  0.3068 -0.5525 -1.5162
 4466TIP3   OH234888   5.038   5.193   0.283 -0.3376  0.2705 -0.0827
 4466TIP3    H134889   4.998   5.139   0.351 -0.3675  1.7921  1.1779
 4466TIP3    H234890   4.966   5.246   0.249 -0.0456  0.5973 -0.2025
 4467TIP3   OH234891   2.877   6.232  15.419  0.0024  0.5137 -0.2455
 4467TIP3    H134892   2.869   6.271  15.332  2.4971  0.9772 -0.3573
 4467TIP3    H234893   2.935   6.157  15.406 -1.2508 -0.6620  0.7078
 4468TIP3   OH234894   3.584   0.551   0.449  0.6797  0.2684 -0.1295
 4468TIP3    H134895   3.607   0.555   0.357  0.8095  1.5395 -0.0626
 4468TIP3    H234896   3.518   0.481   0.455  0.6126  0.2336 -1.1925
 4469TIP3   OH234897   3.558   3.674   5.487 -0.2603 -0.6638  0.4201
 4469TIP3    H134898   3.525   3.654   5.400  1.0130  0.7347 -0.4490
 4469TIP3    H234899   3.567   3.770   5.488  0.3770 -0.7049  1.8517
 4470TIP3   OH234900   0.591   3.528   4.939 -0.0644 -0.0435 -0.5873
 4470TIP3    H134901   0.539   3.462   4.894 -0.3283 -0.0834 -0.2315
 4470TIP3    H234902   0.623   3.585   4.869  1.4533 -1.4273 -1.0550
 4471TIP3   OH234903   2.089   2.947   5.103 -0.1695 -0.2007  0.0873
 4471TIP3    H134904   2.075   2.995   5.184 -0.6602  0.1166 -0.1790
 4471TIP3    H234905   2.044   2.999   5.036  0.0063 -0.5941 -0.3427
 4472TIP3   OH234906   0.357   0.725  16.934  0.3568  0.0577 -0.6591
 4472TIP3    H134907   0.389   0.668  17.005 -1.6878 -0.0703  0.2360
 4472TIP3    H234908   0.279   0.766  16.971  0.4580  1.6496 -2.1327
 4473TIP3   OH234909   4.344   0.861   1.928 -0.1269 -0.5159 -0.0234
 4473TIP3    H134910   4.276   0.905   1.980 -0.3311  0.0027 -0.7215
 4473TIP3    H234911   4.417   0.923   1.927 -0.2650 -0.3572 -0.6698
 4474TIP3   OH234912   2.600   3.706  16.839 -0.4140 -0.5580  0.1965
 4474TIP3    H134913   2.637   3.646  16.773  0.1894  0.5473 -0.5151
 4474TIP3    H234914   2.665   3.707  16.909  0.0196 -0.0747 -0.1974
 4475TIP3   OH234915   3.306   1.520  13.721 -0.5304  0.0353  0.2977
 4475TIP3    H134916   3.276   1.525  13.812 -1.1030 -0.7356  0.1503
 4475TIP3    H234917   3.262   1.444  13.684  0.5464 -0.3203 -0.3184
 4476TIP3   OH234918   6.165   6.552   0.154  0.2880  0.3426  0.1244
 4476TIP3    H134919   6.166   6.497   0.233 -0.2395  0.5981  0.3158
 4476TIP3    H234920   6.105   6.623   0.175  2.4807  2.1612  0.6460
 4477TIP3   OH234921   5.925   4.682  11.830  0.2074  0.1605 -0.3789
 4477TIP3    H134922   5.885   4.603  11.794  1.4980 -0.7201  0.0212
 4477TIP3    H234923   5.852   4.737  11.858 -0.7419 -0.3969 -1.6835
 4478TIP3   OH234924   2.272   2.317  12.799  0.2055  0.0017 -0.1157
 4478TIP3    H134925   2.334   2.323  12.727  0.2040  0.0181 -0.1156
 4478TIP3    H234926   2.205   2.382  12.779 -0.3346 -0.6979 -0.6284
 4479TIP3   OH234927   3.473   1.135  15.893  0.1804 -0.0079 -0.1315
 4479TIP3    H134928   3.552   1.121  15.946  0.3391 -0.4489 -0.4712
 4479TIP3    H234929   3.488   1.219  15.850  0.6946 -0.3099 -0.5687
 4480TIP3   OH234930   2.383   0.608  17.063  0.0254 -0.1608  0.1229
 4480TIP3    H134931   2.450   0.608  17.131 -0.3976 -1.5363  0.5767
 4480TIP3    H234932   2.346   0.696  17.065  1.1743  0.3258  0.5056
 4481TIP3   OH234933   3.826   6.033   1.255 -0.1357 -0.6572  0.1859
 4481TIP3    H134934   3.750   5.976   1.241 -1.2875  0.7013  0.6355
 4481TIP3    H234935   3.793   6.121   1.237  1.5777 -0.1010 -0.4481
 4482TIP3   OH234936   1.917   0.743  12.755  0.0205  0.4105 -0.3331
 4482TIP3    H134937   1.963   0.713  12.676 -0.4360  0.0415 -0.4619
 4482TIP3    H234938   1.906   0.837  12.741 -1.8340  0.0407 -1.6575
 4483TIP3   OH234939   0.569   0.022   3.336 -0.3331  0.0394 -0.0472
 4483TIP3    H134940   0.652   0.016   3.288 -0.1720 -1.0521  0.3399
 4483TIP3    H234941   0.594   0.046   3.425 -0.5065  0.6068 -0.1532
 4484TIP3   OH234942   3.018   2.979   5.433 -0.1366 -0.6699  0.2020
 4484TIP3    H134943   3.090   2.930   5.394  0.0545 -0.9780  0.9285
 4484TIP3    H234944   2.980   2.920   5.498 -0.7409 -0.3358  0.1693
 4485TIP3   OH234945   6.368   3.121  15.075 -0.4215 -0.1962  0.3564
 4485TIP3    H134946   6.319   3.126  14.993  0.9873 -3.9632 -0.9103
 4485TIP3    H234947   6.452   3.162  15.055 -0.3156 -0.5277  0.1153
 4486TIP3   OH234948   6.756   4.661  14.208 -0.5044 -0.1188  0.1535
 4486TIP3    H134949   6.718   4.743  14.240 -0.9157 -0.2005 -0.1191
 4486TIP3    H234950   6.849   4.667  14.232 -0.2550  0.9834 -0.9853
 4487TIP3   OH234951   2.692   0.261  12.141  0.0906  0.0720 -0.2736
 4487TIP3    H134952   2.769   0.270  12.085  0.0612  1.2970 -0.1434
 4487TIP3    H234953   2.670   0.350  12.166 -0.3243 -0.3948  1.1208
 4488TIP3   OH234954   0.955   1.593  16.141  0.0047 -0.5920 -0.0516
 4488TIP3    H134955   0.895   1.569  16.070 -1.7713 -0.0828  1.2042
 4488TIP3    H234956   1.016   1.655  16.101  0.0308 -1.4986 -1.4876
 4489TIP3   OH234957   6.703   3.909   2.231  0.5119  1.0095  0.0945
 4489TIP3    H134958   6.762   3.850   2.183  1.9349  3.5118 -1.5005
 4489TIP3    H234959   6.618   3.865   2.228  1.3883 -0.7497 -1.4043
 4490TIP3   OH234960   2.411   6.641  15.204 -0.3714 -0.0191 -0.2865
 4490TIP3    H134961   2.488   6.691  15.230 -1.9580  1.6970  1.3684
 4490TIP3    H234962   2.429   6.615  15.113  0.9489  2.7915 -0.9366
 4491TIP3   OH234963   6.409   2.196   0.031 -0.0961 -0.3110 -0.0663
 4491TIP3    H134964   6.374   2.131  -0.030 -1.3532  0.5737 -0.3229
 4491TIP3    H234965   6.484   2.153   0.072 -1.3604 -2.2194  0.3615
 4492TIP3   OH234966   5.236   4.121   0.984 -0.4998  0.2070 -0.2148
 4492TIP3    H134967   5.230   4.028   0.963 -1.0172  0.1348  0.2453
 4492TIP3    H234968   5.185   4.165   0.916 -0.9791  0.0837  0.0627
 4493TIP3   OH234969   3.779   1.072  11.761  0.1480 -0.5024  0.2790
 4493TIP3    H134970   3.770   0.976  11.760  1.8338 -0.6943  0.6297
 4493TIP3    H234971   3.708   1.102  11.818 -0.8922 -1.4656 -0.4664
 4494TIP3   OH234972   3.035   1.215   6.242 -0.0504 -0.0541  0.1061
 4494TIP3    H134973   3.081   1.297   6.227  0.1521 -0.0601  0.6824
 4494TIP3    H234974   3.100   1.157   6.282 -0.2201 -0.4616 -0.1902
 4495TIP3   OH234975   0.066   0.806  15.167  0.2324  0.0309  0.1170
 4495TIP3    H134976   0.146   0.764  15.136  0.0003 -0.3107 -0.0219
 4495TIP3    H234977   0.082   0.900  15.152  0.8351  0.0184  0.6326
 4496TIP3   OH234978   2.415   6.224  15.761 -0.1722 -0.9313 -0.3087
 4496TIP3    H134979   2.411   6.309  15.719 -1.9817  0.3774  2.2247
 4496TIP3    H234980   2.328   6.212  15.799  0.7645 -2.8117  1.4424
 4497TIP3   OH234981   1.701   0.223  12.717 -0.3665 -0.6378  0.0466
 4497TIP3    H134982   1.772   0.185  12.666 -0.1868 -0.3608  0.0891
 4497TIP3    H234983   1.670   0.298  12.665  1.4023  1.1410  1.3987
 4498TIP3   OH234984   0.511   3.038   4.608  0.4707  0.2025 -0.1535
 4498TIP3    H134985   0.491   3.129   4.590 -0.0487  0.5308  1.9086
 4498TIP3    H234986   0.426   2.998   4.627  0.8135 -0.4658  0.0014
 4499TIP3   OH234987   6.676   6.254   6.343  0.2683  0.0600  0.1002
 4499TIP3    H134988   6.604   6.214   6.295  2.5119 -1.5561 -2.1008
 4499TIP3    H234989   6.661   6.349   6.334 -1.4868 -0.2227 -0.3502
 4500TIP3   OH234990   3.222   1.053  16.698  0.1559 -0.3045 -0.2020
 4500TIP3    H134991   3.192   1.144  16.701 -2.0028 -0.8794 -1.8175
 4500TIP3    H234992   3.153   1.003  16.740  0.6054 -1.3516 -0.6838
 4501TIP3   OH234993   6.132   1.296   1.132 -0.1008 -0.3891  0.1543
 4501TIP3    H134994   6.221   1.285   1.097  0.2253  0.9383  0.5174
 4501TIP3    H234995   6.129   1.238   1.208  0.8949  0.4510  0.8733
 4502TIP3   OH234996   4.332   6.233   4.099 -0.0451 -0.1518  0.8485
 4502TIP3    H134997   4.346   6.147   4.059 -1.9120 -0.0395 -0.1102
 4502TIP3    H234998   4.238   6.246   4.097  0.2754  3.1443 -1.6392
 4503TIP3   OH234999   0.886   0.532   6.140  0.5410 -0.5402 -0.0881
 4503TIP3    H135000   0.812   0.565   6.190  1.6140 -0.9961  1.9104
 4503TIP3    H235001   0.847   0.474   6.074 -0.9237 -0.0547  0.3270
 4504TIP3   OH235002   6.120   2.745   1.823  0.6276 -0.2472  1.0260
 4504TIP3    H135003   6.115   2.790   1.738  1.5689  0.8507  1.5306
 4504TIP3    H235004   6.056   2.673   1.815  0.3405  0.1203 -0.4266
 4505TIP3   OH235005   4.394   3.701   6.233  0.1831 -0.1330 -0.3402
 4505TIP3    H135006   4.363   3.718   6.144 -0.3756  2.3729  0.2407
 4505TIP3    H235007   4.479   3.745   6.237  0.3040 -0.4196  0.2981
 4506TIP3   OH235008   3.055   6.644   0.593  0.4613  0.0673 -0.0556
 4506TIP3    H135009   3.135   6.606   0.557  1.4062  0.9164  1.0612
 4506TIP3    H235010   2.986   6.582   0.570  1.5894 -1.1515 -0.2439
 4507TIP3   OH235011   0.431   4.673  13.715  0.3146 -0.2655 -0.4081
 4507TIP3    H135012   0.487   4.604  13.679  0.1951 -0.3178 -0.4941
 4507TIP3    H235013   0.342   4.638  13.708  0.2744 -0.1980 -0.2361
 4508TIP3   OH235014   0.949   0.520  12.337  0.0509 -0.4281 -0.0300
 4508TIP3    H135015   0.979   0.534  12.248 -0.7983  0.8175 -0.1438
 4508TIP3    H235016   1.021   0.473  12.380  1.0059  0.1141 -1.0099
 4509TIP3   OH235017   4.124   2.509  16.268  0.5288 -0.0958 -0.1023
 4509TIP3    H135018   4.208   2.550  16.289  0.5563  0.1156 -0.5924
 4509TIP3    H235019   4.143   2.456  16.190  0.2785 -0.2945 -0.0276
 4510TIP3   OH235020   0.050   2.283  12.291 -0.5612 -0.4666  0.5043
 4510TIP3    H135021   0.018   2.199  12.256  0.6251 -0.3030 -1.1199
 4510TIP3    H235022  -0.027   2.323  12.332 -1.7527 -1.2937 -0.8273
 4511TIP3   OH235023   6.262   3.140  17.219  0.1138 -0.1055 -0.8250
 4511TIP3    H135024   6.191   3.143  17.283  0.3967  2.3147 -0.5283
 4511TIP3    H235025   6.281   3.047  17.209 -0.8517 -0.6450  1.5733
 4512TIP3   OH235026   1.711   4.160  12.721 -0.0943  0.1178 -0.6055
 4512TIP3    H135027   1.775   4.109  12.672 -1.0219  0.0146 -1.7718
 4512TIP3    H235028   1.646   4.096  12.751 -0.0886  0.3243 -0.1367
 4513TIP3   OH235029   2.747   6.120  16.548 -0.5042 -0.4673 -0.0239
 4513TIP3    H135030   2.718   6.060  16.616 -0.7791 -1.7765 -1.2596
 4513TIP3    H235031   2.806   6.068  16.493 -0.2110  0.5819 -0.7380
 4514TIP3   OH235032   0.810   4.735  10.839  0.0642  0.0991 -0.7019
 4514TIP3    H135033   0.799   4.659  10.896 -0.2291  2.0685  2.1152
 4514TIP3    H235034   0.900   4.763  10.854 -0.0832  0.7721 -1.0211
 4515TIP3   OH235035   5.030   3.983  17.282 -0.2487 -0.8040  0.0191
 4515TIP3    H135036   5.114   3.947  17.309 -0.6426 -2.2223 -0.5402
 4515TIP3    H235037   5.044   4.012  17.192 -0.3148 -0.8939 -0.0200
 4516TIP3   OH235038   5.002   2.227  14.027 -0.2707  0.1799 -0.3463
 4516TIP3    H135039   4.987   2.186  14.112  0.7651 -2.1189 -1.1897
 4516TIP3    H235040   4.990   2.321  14.044 -0.2749 -0.1966  2.2794
 4517TIP3   OH235041   1.742   0.399  16.191 -0.3474 -0.2034 -0.3172
 4517TIP3    H135042   1.650   0.396  16.163 -0.5055  0.0050  0.1569
 4517TIP3    H235043   1.756   0.490  16.218 -0.4978 -0.5875  1.1882
 4518TIP3   OH235044   6.629   2.236   6.231  0.0714  0.4737 -0.1584
 4518TIP3    H135045   6.676   2.198   6.305 -0.4374  1.7818  0.8680
 4518TIP3    H235046   6.683   2.310   6.204 -1.3321  2.0161  1.0592
 4519TIP3   OH235047   5.240   4.660  13.445 -0.6180  0.3744 -0.3180
 4519TIP3    H135048   5.214   4.730  13.504  3.0142  1.9615 -0.3309
 4519TIP3    H235049   5.220   4.694  13.357 -1.5342  0.0933 -0.2293
 4520TIP3   OH235050   5.840   0.613  16.046 -0.0737  0.1497 -0.4969
 4520TIP3    H135051   5.752   0.595  16.015  0.2408 -2.0181 -0.3250
 4520TIP3    H235052   5.845   0.568  16.131  1.1807  0.2028 -0.5203
 4521TIP3   OH235053   5.386   4.269  12.898 -0.5877  0.7570 -0.2723
 4521TIP3    H135054   5.465   4.322  12.885  0.2166 -0.7189 -1.6487
 4521TIP3    H235055   5.332   4.288  12.821 -0.8905  0.5707 -0.1052
 4522TIP3   OH235056   5.049   3.525   4.570  0.0366 -0.1564  0.1488
 4522TIP3    H135057   4.967   3.536   4.618  0.2340  1.0836  0.2239
 4522TIP3    H235058   5.040   3.582   4.493 -0.3967 -2.2937 -1.5029
 4523TIP3   OH235059   5.749   5.850   5.286  0.2076  0.3408 -0.2014
 4523TIP3    H135060   5.829   5.805   5.261  0.6694  1.0898 -0.1002
 4523TIP3    H235061   5.694   5.782   5.325  1.3966  0.1087  1.1516
 4524TIP3   OH235062   0.108   2.398  14.096  0.4194 -0.5757 -0.7080
 4524TIP3    H135063   0.031   2.366  14.050  1.9472 -1.9011 -2.4829
 4524TIP3    H235064   0.180   2.347  14.060  2.0881  0.3274  1.1877
 4525TIP3   OH235065   1.966   6.655  14.400 -0.2030 -0.0502 -0.3397
 4525TIP3    H135066   1.877   6.681  14.376  0.0980 -0.3367 -1.9249
 4525TIP3    H235067   1.955   6.579  14.456 -0.9659  0.0699 -0.3168
 4526TIP3   OH235068   5.288   1.467  12.238 -0.2929 -0.1052 -0.1821
 4526TIP3    H135069   5.241   1.443  12.318 -0.0657  0.7705  0.2309
 4526TIP3    H235070   5.226   1.448  12.167  0.2321 -2.8426 -0.0182
 4527TIP3   OH235071   5.002   4.869  12.690  0.1780  0.0691  0.3948
 4527TIP3    H135072   5.001   4.964  12.705 -0.0823 -0.1757  2.1093
 4527TIP3    H235073   4.914   4.841  12.714 -0.4558 -0.3813 -2.1156
 4528TIP3   OH235074   5.625   3.060   5.330 -0.5143 -0.4617 -0.0649
 4528TIP3    H135075   5.631   3.045   5.424  2.1648 -1.0447 -0.2468
 4528TIP3    H235076   5.560   3.129   5.321 -1.6329 -1.1491  2.1078
 4529TIP3   OH235077   5.254   0.547   4.630  0.4971 -0.2962  0.1086
 4529TIP3    H135078   5.161   0.525   4.631  0.4065  0.0691  1.4048
 4529TIP3    H235079   5.297   0.472   4.671  0.4387  0.7688  2.2451
 4530TIP3   OH235080   0.755   0.451   1.106  0.2246 -0.1910 -0.9626
 4530TIP3    H135081   0.667   0.421   1.087 -0.4423  0.4425  0.9438
 4530TIP3    H235082   0.786   0.393   1.176  0.4709  0.9142 -0.1220
 4531TIP3   OH235083   5.993   1.930   2.400  0.4965  0.1825  0.5526
 4531TIP3    H135084   6.073   1.952   2.447  0.0584 -0.1853  1.5121
 4531TIP3    H235085   5.923   1.972   2.450 -0.1105 -1.2872  1.0175
 4532TIP3   OH235086   0.296   3.187  11.756  0.0884  0.4500 -0.0578
 4532TIP3    H135087   0.365   3.253  11.760  1.7183 -0.7691 -3.7187
 4532TIP3    H235088   0.321   3.122  11.821 -0.0367  2.0453  1.6561
 4533TIP3   OH235089   4.598   4.805  14.796  0.4317  0.4163  0.0580
 4533TIP3    H135090   4.565   4.868  14.861  0.3895  2.2142 -1.6352
 4533TIP3    H235091   4.677   4.845  14.761 -0.0580 -0.0294 -1.6680
 4534TIP3   OH235092   3.635   2.992   2.434  1.1695  0.0451  0.7313
 4534TIP3    H135093   3.545   2.978   2.463  1.0323 -0.5523  0.0343
 4534TIP3    H235094   3.657   3.079   2.467  0.4646  0.0537  1.2091
 4535TIP3   OH235095   0.778   1.161   3.071  0.0151  0.3637 -0.5248
 4535TIP3    H135096   0.824   1.182   2.990  0.5454  1.1376 -0.0275
 4535TIP3    H235097   0.712   1.096   3.044 -0.6596  1.5303 -1.8085
 4536TIP3   OH235098   4.808   3.682  17.283  0.1081  0.2101  0.5321
 4536TIP3    H135099   4.773   3.669  17.371  1.8505 -1.6670  1.0191
 4536TIP3    H235100   4.885   3.625  17.279  0.7221  1.0922 -1.8414
 4537TIP3   OH235101   1.212   6.678   2.344 -0.2801 -0.6020 -0.5200
 4537TIP3    H135102   1.303   6.705   2.335 -0.0239 -1.8183 -1.9807
 4537TIP3    H235103   1.162   6.743   2.294  0.2811 -2.3392 -3.5755
 4538TIP3   OH235104   0.393   4.393   6.287  0.4922  0.3300  0.6703
 4538TIP3    H135105   0.398   4.298   6.284 -1.8293  0.1511  0.6312
 4538TIP3    H235106   0.352   4.413   6.371  2.3150  1.4369  1.3768
 4539TIP3   OH235107   1.001   3.037  15.582 -0.4809 -0.1590 -0.1841
 4539TIP3    H135108   1.044   3.068  15.503  1.0838 -1.0629  0.2685
 4539TIP3    H235109   1.022   3.103  15.648 -1.5543  0.4519 -0.4252
 4540TIP3   OH235110   4.640   0.917   5.641 -0.4055 -0.7744  0.1719
 4540TIP3    H135111   4.588   0.988   5.602 -1.2686 -1.8923 -0.8046
 4540TIP3    H235112   4.602   0.905   5.728  0.3877  0.5824  0.7428
 4541TIP3   OH235113   5.812   4.171   3.121  0.0298 -0.0441 -0.3585
 4541TIP3    H135114   5.902   4.146   3.143  0.5163  0.0428 -2.1017
 4541TIP3    H235115   5.767   4.089   3.103  0.2631  0.0147 -1.2357
 4542TIP3   OH235116   5.518   3.991  17.088 -0.1966  0.4205 -0.0198
 4542TIP3    H135117   5.578   3.931  17.133 -1.4095 -1.0854 -0.2988
 4542TIP3    H235118   5.541   4.078  17.122 -0.0074 -0.4619  2.3359
 4543TIP3   OH235119   4.379   4.722  15.187 -0.1987  0.9557 -0.4637
 4543TIP3    H135120   4.389   4.797  15.128  0.4431 -0.1716 -1.8707
 4543TIP3    H235121   4.420   4.650  15.139  1.6213  0.2538  1.9708
 4544TIP3   OH235122   5.076   5.271  12.151 -0.3046 -0.1412  0.3707
 4544TIP3    H135123   5.158   5.222  12.153 -0.6190 -0.7945  3.9969
 4544TIP3    H235124   5.101   5.359  12.180 -0.8543 -0.3803  1.6181
 4545TIP3   OH235125   2.990   4.611   4.816  0.2541  0.3792  0.0151
 4545TIP3    H135126   2.945   4.530   4.793 -1.6788  0.2415  3.5454
 4545TIP3    H235127   3.052   4.585   4.885  2.1502  1.4156 -1.2197
 4546TIP3   OH235128   0.662   1.624  11.492  0.0089 -0.1548  0.3044
 4546TIP3    H135129   0.622   1.609  11.407  1.9384 -1.9790 -0.3675
 4546TIP3    H235130   0.619   1.561  11.550 -0.5214  0.3207  0.4388
 4547TIP3   OH235131   4.565   0.195  10.942 -0.3137  0.0956 -0.5685
 4547TIP3    H135132   4.566   0.260  11.012 -1.7012 -1.7930  1.3318
 4547TIP3    H235133   4.657   0.180  10.921  0.0607  1.9027 -0.3554
 4548TIP3   OH235134   5.444   5.695   0.236 -0.1095 -0.1079  0.4593
 4548TIP3    H135135   5.478   5.644   0.309  0.3120 -1.2824 -0.5239
 4548TIP3    H235136   5.408   5.630   0.176  0.1907  0.7594 -0.7016
 4549TIP3   OH235137   5.495   1.184   5.660 -0.0059 -0.5388  0.4985
 4549TIP3    H135138   5.451   1.189   5.575  1.9142 -0.5312 -0.5637
 4549TIP3    H235139   5.426   1.199   5.724 -1.4593 -0.2276 -1.0676
 4550TIP3   OH235140   0.241   5.427   4.752  0.7079  0.1838  0.4507
 4550TIP3    H135141   0.256   5.335   4.730  2.1296  0.3839  0.4993
 4550TIP3    H235142   0.170   5.454   4.695 -0.5811 -1.2556  1.2746
 4551TIP3   OH235143   3.851   3.044  14.624  0.1357 -0.3453 -0.3994
 4551TIP3    H135144   3.869   3.000  14.541  0.5037 -0.6786 -0.1491
 4551TIP3    H235145   3.852   3.137  14.603  1.5950 -0.3664 -0.5170
 4552TIP3   OH235146   4.227   3.734   4.137 -0.4323 -0.4610  0.1526
 4552TIP3    H135147   4.194   3.785   4.063 -0.7919 -3.2963 -1.8116
 4552TIP3    H235148   4.283   3.795   4.186 -1.2784  1.9056 -1.6441
 4553TIP3   OH235149   1.153   4.136   0.859  0.0402 -0.1665  0.2464
 4553TIP3    H135150   1.156   4.079   0.781 -0.5519 -0.9923  0.8126
 4553TIP3    H235151   1.181   4.221   0.826 -2.0983  0.0246 -1.3541
 4554TIP3   OH235152   6.547   0.873  11.120 -0.4708 -0.1245 -0.0075
 4554TIP3    H135153   6.492   0.931  11.173  2.0303  1.2567  1.2576
 4554TIP3    H235154   6.530   0.901  11.030 -1.1352  0.8854  0.4074
 4555TIP3   OH235155   1.439   2.912   3.295  0.5174 -0.1579 -0.8939
 4555TIP3    H135156   1.387   2.879   3.368  2.5175 -1.0887  0.2059
 4555TIP3    H235157   1.398   2.873   3.217 -0.4955 -0.7231 -0.1060
 4556TIP3   OH235158   3.613   6.145   4.488  0.0424  0.2401 -0.4088
 4556TIP3    H135159   3.705   6.136   4.512 -0.1720  0.5415  0.5795
 4556TIP3    H235160   3.613   6.156   4.393  1.1718  2.3933 -0.1998
 4557TIP3   OH235161   6.334   0.517   4.769  0.0779 -0.2188  0.3043
 4557TIP3    H135162   6.367   0.594   4.816 -1.8738 -0.0352  1.4780
 4557TIP3    H235163   6.363   0.530   4.679 -0.5747  2.1498  0.3699
 4558TIP3   OH235164   4.275   4.234  12.692  0.4180  0.0426  0.0478
 4558TIP3    H135165   4.209   4.274  12.636 -0.2832 -1.4175 -0.2246
 4558TIP3    H235166   4.290   4.297  12.762 -0.2200  0.9944 -0.6583
 4559TIP3   OH235167   6.727   4.128  14.195 -0.1718  0.3670 -0.0955
 4559TIP3    H135168   6.637   4.147  14.168 -0.7314 -2.3896 -0.5049
 4559TIP3    H235169   6.728   4.144  14.289 -1.3500 -0.3260  0.0536
 4560TIP3   OH235170   4.064   3.164  13.553 -0.1569  0.3239 -0.0783
 4560TIP3    H135171   4.082   3.210  13.635 -1.7069 -1.7528  1.5278
 4560TIP3    H235172   4.128   3.200  13.491  0.8306  2.2291  1.9063
 4561TIP3   OH235173   6.804   5.124   1.634  0.0503 -0.0581  0.3177
 4561TIP3    H135174   6.807   5.215   1.602 -1.4429 -0.0763  0.0534
 4561TIP3    H235175   6.794   5.133   1.729  0.8575  0.0227  0.4083
 4562TIP3   OH235176   1.317   0.645   5.948 -0.2212  0.2195 -0.2271
 4562TIP3    H135177   1.279   0.649   5.861  0.4812 -0.6818 -0.5841
 4562TIP3    H235178   1.253   0.596   6.000 -0.6780  0.8273 -0.2053
 4563TIP3   OH235179   5.650   3.085  12.570 -0.2204 -0.5042  0.5289
 4563TIP3    H135180   5.683   3.004  12.608 -1.3344 -0.4091  1.7615
 4563TIP3    H235181   5.574   3.108  12.623 -1.3276  0.1171 -1.2454
 4564TIP3   OH235182   1.890   2.053   5.171 -0.0915 -0.1056  0.0014
 4564TIP3    H135183   1.844   2.126   5.214  0.7347  2.3991 -3.0179
 4564TIP3    H235184   1.821   2.004   5.127 -0.8724 -2.3463  3.3424
 4565TIP3   OH235185   6.111   4.762   3.137  0.3839  0.0322  0.2251
 4565TIP3    H135186   6.181   4.749   3.202  1.0572 -0.4331 -0.5824
 4565TIP3    H235187   6.081   4.674   3.116  0.7849  0.1133 -0.7483
 4566TIP3   OH235188   0.979   0.751   5.805 -0.6364  0.1893 -0.3915
 4566TIP3    H135189   1.032   0.830   5.808 -1.8848  1.0235  1.0169
 4566TIP3    H235190   1.042   0.679   5.813  0.3276  1.1339  0.9487
 4567TIP3   OH235191   3.742   5.754  12.882 -0.4467 -0.0963  0.0252
 4567TIP3    H135192   3.765   5.729  12.792 -0.7255  0.5792 -0.2434
 4567TIP3    H235193   3.779   5.684  12.936  2.8424  1.1694 -0.3108
 4568TIP3   OH235194   2.888   4.305   0.403 -0.1340 -0.1535  0.0231
 4568TIP3    H135195   2.968   4.253   0.391  0.2681  0.5696 -0.5351
 4568TIP3    H235196   2.867   4.295   0.496 -0.1396 -1.4059 -0.0960
 4569TIP3   OH235197   3.515   5.166   1.866 -0.4313  0.0943 -0.8047
 4569TIP3    H135198   3.421   5.161   1.884 -0.3115 -1.2698 -0.5111
 4569TIP3    H235199   3.539   5.255   1.894 -1.6050  0.4359 -0.8064
 4570TIP3   OH235200   4.528   3.745  15.580 -0.5264  0.5047 -0.2467
 4570TIP3    H135201   4.600   3.808  15.578  0.2789 -0.3141  1.3424
 4570TIP3    H235202   4.514   3.723  15.488 -0.0734  2.1269 -0.7476
 4571TIP3   OH235203   3.148   4.334  16.819 -0.5385 -0.2488  0.6881
 4571TIP3    H135204   3.105   4.264  16.770  0.3861  0.3920 -1.1652
 4571TIP3    H235205   3.136   4.412  16.763  1.4220  0.3145  0.9903
 4572TIP3   OH235206   0.685   3.924  14.159 -0.0273 -0.1079 -0.3816
 4572TIP3    H135207   0.705   3.878  14.077  0.6925  0.1514 -0.3502
 4572TIP3    H235208   0.698   3.858  14.227 -1.2514 -0.5104 -0.5124
 4573TIP3   OH235209   0.416   1.875   3.334 -0.7464 -0.2074  0.7606
 4573TIP3    H135210   0.348   1.899   3.272 -0.7715 -1.8182  0.1021
 4573TIP3    H235211   0.493   1.924   3.307 -1.5853  1.5843  1.4718
 4574TIP3   OH235212   6.161   4.796   4.760 -0.0703 -0.0977 -0.1184
 4574TIP3    H135213   6.180   4.767   4.671 -0.6279 -2.8639  0.5715
 4574TIP3    H235214   6.238   4.770   4.811 -0.7581 -0.8309  0.5981
 4575TIP3   OH235215   6.200   2.378   0.083  0.4643  0.0078  0.2163
 4575TIP3    H135216   6.143   2.324   0.136  0.1609  0.8670  0.7957
 4575TIP3    H235217   6.278   2.324   0.068 -1.0014 -1.7205 -1.7710
 4576TIP3   OH235218   2.939   3.514  12.163 -0.0608 -0.0200  0.0611
 4576TIP3    H135219   2.860   3.497  12.113  0.3947  0.4865 -0.8404
 4576TIP3    H235220   2.930   3.604  12.194  1.6392  1.2853 -2.8951
 4577TIP3   OH235221   1.391   1.109  11.623  0.3178 -0.2376 -0.6366
 4577TIP3    H135222   1.362   1.070  11.540 -1.2628 -0.9578  0.2100
 4577TIP3    H235223   1.363   1.047  11.690  1.0050  0.6311  0.4952
 4578TIP3   OH235224   6.578   1.378   0.776 -0.0099 -0.7077 -0.4753
 4578TIP3    H135225   6.598   1.295   0.819 -0.0341 -0.1986  0.5265
 4578TIP3    H235226   6.662   1.404   0.736  0.3175 -0.6048  0.2619
 4579TIP3   OH235227   2.975   1.944   4.596 -0.0807  0.0917 -0.7081
 4579TIP3    H135228   2.938   1.874   4.541  0.1036 -0.0215 -0.6885
 4579TIP3    H235229   3.050   1.903   4.639 -1.0515 -0.2523  0.7179
 4580TIP3   OH235230   3.328   6.817  11.519 -0.2248 -0.1007  0.4429
 4580TIP3    H135231   3.300   6.844  11.431 -1.7989 -0.4529  0.8081
 4580TIP3    H235232   3.421   6.796  11.509 -0.4989 -0.6589 -1.2560
 4581TIP3   OH235233   2.396   0.426  13.644 -0.4014 -0.1141 -0.3489
 4581TIP3    H135234   2.425   0.338  13.620  0.0179  0.5128 -2.2885
 4581TIP3    H235235   2.389   0.473  13.561 -0.7610  1.6487  0.6253
 4582TIP3   OH235236   6.202   6.789  10.593 -0.2547 -0.0090 -0.0403
 4582TIP3    H135237   6.152   6.869  10.603 -1.2441 -0.6117 -0.0085
 4582TIP3    H235238   6.139   6.719  10.610  0.5148 -0.7999 -0.3555
 4583TIP3   OH235239   1.208   3.962   0.340  0.7078 -0.2500  0.4439
 4583TIP3    H135240   1.243   3.887   0.387 -0.9072 -1.9596 -0.9477
 4583TIP3    H235241   1.171   4.018   0.409  0.9403 -1.2569  1.4193
 4584TIP3   OH235242   4.489   5.910   6.418  0.3323 -0.0534 -0.1298
 4584TIP3    H135243   4.480   6.005   6.413 -0.3668 -0.0990  0.1239
 4584TIP3    H235244   4.400   5.878   6.433  0.4677 -0.7920 -0.8289
 4585TIP3   OH235245   3.681   4.872  17.191  0.2271 -0.4595  0.2342
 4585TIP3    H135246   3.603   4.927  17.196  1.4707  1.3161  1.0358
 4585TIP3    H235247   3.712   4.883  17.101 -0.1041 -0.7069  0.0858
 4586TIP3   OH235248   5.421   4.359  13.661 -0.1317  0.8601 -0.6959
 4586TIP3    H135249   5.371   4.287  13.624  0.2591  0.8295 -1.1770
 4586TIP3    H235250   5.492   4.374  13.598  1.3510 -0.0759  0.6764
 4587TIP3   OH235251   6.594   5.720   2.234  0.4852  0.6145 -0.0123
 4587TIP3    H135252   6.650   5.718   2.312  0.5191 -0.0750 -0.0485
 4587TIP3    H235253   6.656   5.717   2.160  0.4242  0.6061 -0.0632
 4588TIP3   OH235254   3.076   4.373  15.145 -0.2670 -0.5053  0.7921
 4588TIP3    H135255   3.085   4.445  15.082  0.7291 -0.8648  0.5059
 4588TIP3    H235256   3.030   4.305  15.097 -1.1430 -0.0934  1.0393
 4589TIP3   OH235257   4.832   4.339  15.712 -0.0740  0.2194  0.5278
 4589TIP3    H135258   4.781   4.270  15.753  0.6007 -0.5547  0.0801
 4589TIP3    H235259   4.776   4.371  15.641 -0.7264  0.7219  1.2389
 4590TIP3   OH235260   0.048   0.025   3.950  0.1189 -0.2505  0.4578
 4590TIP3    H135261  -0.028  -0.030   3.937  0.3974 -1.0861  2.1562
 4590TIP3    H235262   0.121  -0.025   3.913  0.0039  0.1133 -0.2760
 4591TIP3   OH235263   4.616   4.356   1.829 -0.6775  0.2057 -0.3771
 4591TIP3    H135264   4.689   4.384   1.885  0.2864 -0.2311 -1.3959
 4591TIP3    H235265   4.541   4.352   1.889 -0.1394  1.7452  0.4754
 4592TIP3   OH235266   5.305   4.145  13.516  0.9659 -0.8057  0.2699
 4592TIP3    H135267   5.301   4.095  13.598  0.2247 -1.6454 -0.2624
 4592TIP3    H235268   5.350   4.087  13.455 -0.1060 -0.9353 -0.4215
 4593TIP3   OH235269   6.648   6.019  11.822  0.4784 -0.1363  0.3491
 4593TIP3    H135270   6.590   6.094  11.809  1.1235  0.5096  1.1452
 4593TIP3    H235271   6.665   5.987  11.733  1.0019  1.2708 -0.0859
 4594TIP3   OH235272   4.825   0.663   0.694 -1.2003 -0.2790  0.3944
 4594TIP3    H135273   4.835   0.673   0.599 -0.0659 -0.6654  0.4565
 4594TIP3    H235274   4.783   0.578   0.705 -1.1013 -0.3472  0.2489
 4595TIP3   OH235275   4.238   3.445  14.442 -0.3797  0.2013 -0.7628
 4595TIP3    H135276   4.220   3.367  14.389 -0.8958  0.4537 -0.9691
 4595TIP3    H235277   4.333   3.449  14.448 -0.3582 -0.8236 -0.1858
 4596TIP3   OH235278   2.757   4.808   1.037  0.2335  0.4057 -0.2133
 4596TIP3    H135279   2.707   4.796   1.117  1.8665 -1.1073  0.6472
 4596TIP3    H235280   2.783   4.900   1.039 -0.4184  0.5868  0.5618
 4597TIP3   OH235281   0.011   4.207   4.871  0.0928  0.7234 -0.4410
 4597TIP3    H135282  -0.058   4.140   4.871 -0.1461  0.8897  1.7882
 4597TIP3    H235283   0.082   4.169   4.819 -1.0998 -0.0729 -1.5468
 4598TIP3   OH235284   6.125   5.196  13.823 -0.0043 -0.2906 -0.5819
 4598TIP3    H135285   6.172   5.259  13.769 -0.7101 -1.4419 -2.6692
 4598TIP3    H235286   6.034   5.223  13.818 -0.0051 -0.0521  0.5794
 4599TIP3   OH235287   6.662   5.013  17.233  0.2550  0.0448  0.2350
 4599TIP3    H135288   6.588   5.053  17.280 -0.1164  1.2758 -1.3004
 4599TIP3    H235289   6.656   4.920  17.254 -2.3269 -0.0517 -0.5604
 4600TIP3   OH235290   5.373   5.512   1.758  0.3600  0.0133 -0.9776
 4600TIP3    H135291   5.468   5.527   1.751  0.3591 -0.2804 -1.7116
 4600TIP3    H235292   5.335   5.571   1.692 -0.1276  1.5731  0.6206
 4601TIP3   OH235293   2.425   4.520   4.465 -0.0788 -0.1898 -0.2876
 4601TIP3    H135294   2.382   4.593   4.509  0.1338  0.5812 -1.3155
 4601TIP3    H235295   2.510   4.512   4.508 -0.5090 -0.5360  0.5303
 4602TIP3   OH235296   1.369   6.066   1.574 -0.6556 -0.2778 -0.3193
 4602TIP3    H135297   1.398   6.087   1.486 -1.3374 -0.5530 -0.6221
 4602TIP3    H235298   1.350   6.150   1.615  1.4377 -0.0090  0.2300
 4603TIP3   OH235299   4.672   2.147   1.106 -0.1701  0.6288  0.2429
 4603TIP3    H135300   4.578   2.156   1.121 -0.2819 -1.2873  0.9568
 4603TIP3    H235301   4.713   2.185   1.184 -0.2981  2.0333 -0.3463
 4604TIP3   OH235302   2.866   3.451  15.876  0.1293 -0.3276  0.7070
 4604TIP3    H135303   2.866   3.355  15.880 -0.2114 -0.3399  0.4643
 4604TIP3    H235304   2.910   3.472  15.795  3.5823 -0.1657  2.4415
 4605TIP3   OH235305   0.366   4.526   5.614 -0.0464 -0.1680  0.4721
 4605TIP3    H135306   0.422   4.528   5.537  2.0092  2.3945  1.8607
 4605TIP3    H235307   0.349   4.433   5.629  2.6072 -0.9831 -0.8943
 4606TIP3   OH235308   4.240   2.795   1.840 -0.4649 -0.5696  0.4534
 4606TIP3    H135309   4.260   2.863   1.776 -1.1642 -1.5535 -0.8653
 4606TIP3    H235310   4.316   2.736   1.836 -1.1553 -1.4327 -0.6173
 4607TIP3   OH235311   0.832   4.683  13.549 -0.1645 -0.1300 -0.3000
 4607TIP3    H135312   0.823   4.593  13.578  1.4938 -0.5450 -0.9844
 4607TIP3    H235313   0.898   4.721  13.606 -0.4976  0.5234 -0.3305
 4608TIP3   OH235314   1.016   6.508   3.285  0.2227  0.0780 -0.0151
 4608TIP3    H135315   0.983   6.422   3.258  0.4131  0.5991 -2.0929
 4608TIP3    H235316   1.107   6.492   3.309 -0.3000 -0.6254  1.6507
 4609TIP3   OH235317   0.642   1.888   4.156  0.4148  0.7477 -0.0472
 4609TIP3    H135318   0.687   1.908   4.238 -0.8355 -0.1030  0.8864
 4609TIP3    H235319   0.704   1.913   4.088  1.6159  1.1712  1.1567
 4610TIP3   OH235320   6.809   1.510   1.478  0.2057  0.4810 -0.5945
 4610TIP3    H135321   6.780   1.532   1.390 -1.5827  0.4727 -0.0450
 4610TIP3    H235322   6.775   1.422   1.493 -0.9952  1.1343  0.7020
 4611TIP3   OH235323   4.739   5.332   4.579  0.4251  0.3984  0.2992
 4611TIP3    H135324   4.704   5.244   4.593  0.9612  0.1501  0.0869
 4611TIP3    H235325   4.832   5.325   4.599  0.4951  0.8905  0.1712
 4612TIP3   OH235326   2.724   0.584  17.146 -0.4557 -0.7976  0.6412
 4612TIP3    H135327   2.667   0.563  17.220 -1.5739  1.6703  0.5704
 4612TIP3    H235328   2.666   0.622  17.080  0.7534 -1.5085 -0.9320
 4613TIP3   OH235329   6.255   4.986   2.957 -0.5035  0.3201  0.0487
 4613TIP3    H135330   6.185   4.977   3.020 -1.4605 -0.9614 -1.1298
 4613TIP3    H235331   6.335   4.996   3.009 -1.4184  0.6352  1.4095
 4614TIP3   OH235332   4.698   4.033  12.416  1.0077  0.6081  0.0411
 4614TIP3    H135333   4.654   4.003  12.496  0.6201  0.6298 -0.1630
 4614TIP3    H235334   4.674   4.125  12.409  2.1922  0.9885  0.6626
 4615TIP3   OH235335   1.411   3.678  17.009 -0.2830 -0.4002  0.3585
 4615TIP3    H135336   1.323   3.655  17.040 -0.1400  0.5957  1.5768
 4615TIP3    H235337   1.470   3.628  17.065 -0.0360  0.6625  1.0643
 4616TIP3   OH235338   3.189   6.468   3.969 -0.0985  0.3758  0.1428
 4616TIP3    H135339   3.153   6.382   3.994  0.0023  0.2338 -0.1973
 4616TIP3    H235340   3.205   6.512   4.052 -0.5025  0.2086  0.3113
 4617TIP3   OH235341   3.960   5.985  14.010  0.7225 -0.0653  0.0722
 4617TIP3    H135342   4.019   6.009  14.082  0.4623 -0.7914  0.5391
 4617TIP3    H235343   3.983   6.046  13.939  0.4443  1.1963  1.0234
 4618TIP3   OH235344   6.217   2.315   1.154  0.0346 -0.3270  0.3943
 4618TIP3    H135345   6.217   2.411   1.154  3.9104 -0.1759  0.8881
 4618TIP3    H235346   6.153   2.291   1.221 -0.2080  1.9538  1.0565
 4619TIP3   OH235347   4.936   1.901  13.564 -0.0914  0.6358  0.5107
 4619TIP3    H135348   4.980   1.816  13.559 -1.2539  0.0672 -0.8392
 4619TIP3    H235349   4.936   1.922  13.657  0.9205 -0.4614  0.7868
 4620TIP3   OH235350   1.345   2.579   6.098 -0.7441 -0.3684  0.4881
 4620TIP3    H135351   1.366   2.653   6.040 -0.3708  0.3230  1.4802
 4620TIP3    H235352   1.426   2.528   6.101  0.0673  0.8973  2.2547
 4621TIP3   OH235353   3.838   1.084   2.315 -0.0212  0.0698  0.2352
 4621TIP3    H135354   3.885   1.162   2.286  0.9283 -1.2048 -1.9204
 4621TIP3    H235355   3.763   1.078   2.255  0.6616 -1.3656 -0.5168
 4622TIP3   OH235356   3.136   0.163   5.533  0.1674  0.4172  0.6637
 4622TIP3    H135357   3.133   0.189   5.625 -0.2011  1.7184  0.3006
 4622TIP3    H235358   3.064   0.211   5.492  0.6523  0.2544 -0.4050
 4623TIP3   OH235359   4.126   1.248   4.879 -0.5174  0.2303  0.1737
 4623TIP3    H135360   4.051   1.201   4.841  0.8519  0.4867 -3.1635
 4623TIP3    H235361   4.166   1.184   4.938 -2.1125 -0.6294  0.3933
 4624TIP3   OH235362   5.231   2.717  14.564  0.3002 -0.1145 -0.1034
 4624TIP3    H135363   5.200   2.629  14.585  2.0927 -0.8649 -0.3665
 4624TIP3    H235364   5.222   2.724  14.469 -1.3545  0.6432  0.0754
 4625TIP3   OH235365   1.713   1.827  14.157  0.0282 -0.3850 -0.2667
 4625TIP3    H135366   1.705   1.844  14.063  0.8836 -0.7949 -0.4232
 4625TIP3    H235367   1.713   1.732  14.165 -0.3827 -0.3501  0.1813
 4626TIP3   OH235368   2.837   4.011   4.084 -0.1951  0.1850 -0.1251
 4626TIP3    H135369   2.920   3.980   4.121 -1.1485 -1.1202  1.0415
 4626TIP3    H235370   2.815   4.089   4.134  0.2157  0.4251 -0.3108
 4627TIP3   OH235371   5.500   2.054   5.595  0.1906  0.5403  0.4825
 4627TIP3    H135372   5.533   2.140   5.567  0.7975  0.5503  1.2071
 4627TIP3    H235373   5.442   2.027   5.524 -1.7992  2.5635  1.2502
 4628TIP3   OH235374   5.003   5.159  12.642  0.0383  0.3066 -0.3863
 4628TIP3    H135375   4.970   5.188  12.558 -3.2705 -0.8837  0.3651
 4628TIP3    H235376   5.010   5.239  12.694 -0.4267  0.7460 -0.9882
 4629TIP3   OH235377   2.420   1.774  12.308  0.2554 -0.8684  0.3991
 4629TIP3    H135378   2.423   1.731  12.223 -0.4114  0.5079 -0.3465
 4629TIP3    H235379   2.443   1.705  12.370  1.3991 -1.7418 -0.9348
 4630TIP3   OH235380   4.962   5.267  15.469  0.1690  0.6175  0.1802
 4630TIP3    H135381   5.027   5.255  15.538  1.6284  3.8047 -0.4471
 4630TIP3    H235382   4.885   5.304  15.514  0.9808  2.3330  0.2467
 4631TIP3   OH235383   0.166   6.735  15.362  0.0802  0.2050  0.0330
 4631TIP3    H135384   0.080   6.699  15.343  0.4535 -1.6448  1.4563
 4631TIP3    H235385   0.160   6.763  15.454  0.2668  2.4958 -0.6037
 4632TIP3   OH235386   4.923   3.530  16.524  0.2164  1.1096  0.0169
 4632TIP3    H135387   4.941   3.463  16.459 -0.1998  0.3694  0.6495
 4632TIP3    H235388   4.950   3.491  16.608 -0.5752  1.4911  0.4637
 4633TIP3   OH235389   3.187   4.315  13.592  0.4807 -0.2475 -0.0490
 4633TIP3    H135390   3.153   4.361  13.668 -0.7851  0.3822 -0.9506
 4633TIP3    H235391   3.271   4.356  13.574  0.7512 -0.3541  0.9588
 4634TIP3   OH235392   0.721   5.480   3.274 -0.0192  0.2851 -0.0542
 4634TIP3    H135393   0.707   5.458   3.366  3.0438 -0.1827  0.3991
 4634TIP3    H235394   0.653   5.543   3.254 -0.9492  0.1789  2.4513
 4635TIP3   OH235395   3.770   2.743  15.876 -0.8958 -0.3518 -0.0508
 4635TIP3    H135396   3.708   2.798  15.924 -0.6156  1.7968 -1.9832
 4635TIP3    H235397   3.716   2.673  15.839 -1.3009 -1.3457  2.2207
 4636TIP3   OH235398   4.411   2.734  15.494 -0.0597 -0.5571  0.4334
 4636TIP3    H135399   4.459   2.810  15.527 -2.5823  1.2199  0.3444
 4636TIP3    H235400   4.369   2.696  15.571 -2.3549  0.9110  0.0166
 4637TIP3   OH235401   2.171   3.558  14.838  0.3325 -0.4822 -0.4046
 4637TIP3    H135402   2.111   3.594  14.904 -0.3196 -3.8400  1.0672
 4637TIP3    H235403   2.255   3.601  14.856 -0.2038 -0.1872  1.6605
 4638TIP3   OH235404   3.248   1.191  14.104 -0.2442 -0.4506  0.1935
 4638TIP3    H135405   3.308   1.151  14.042 -2.0970 -2.4888 -0.4543
 4638TIP3    H235406   3.162   1.155  14.080 -1.4368  0.8575  2.2086
 4639TIP3   OH235407   5.066   6.277  14.146  0.2010  0.1166  0.3422
 4639TIP3    H135408   5.084   6.259  14.239  0.5346  1.3127  0.5246
 4639TIP3    H235409   5.145   6.247  14.101  1.7219  2.9570  0.8725
 4640TIP3   OH235410   6.729   6.784   4.433  0.2330  0.1618  0.4327
 4640TIP3    H135411   6.645   6.770   4.477 -0.3120  2.7469  0.3437
 4640TIP3    H235412   6.723   6.730   4.354  0.6823 -3.4826  2.6408
 4641TIP3   OH235413   4.605   2.991   2.104  0.2099  0.0560  0.0986
 4641TIP3    H135414   4.541   3.026   2.167 -0.8751  0.2726 -1.0985
 4641TIP3    H235415   4.571   3.016   2.018  2.4339  1.0884 -0.5736
 4642TIP3   OH235416   6.132   3.320  14.064  0.1244  0.1930 -0.1388
 4642TIP3    H135417   6.207   3.293  14.116  0.3939  1.2732  0.0575
 4642TIP3    H235418   6.057   3.309  14.122  0.3935  1.1456  0.4134
 4643TIP3   OH235419   0.178   2.934  13.812  0.1790  0.1764  0.4768
 4643TIP3    H135420   0.196   2.924  13.718 -0.8591  0.0957  0.2742
 4643TIP3    H235421   0.265   2.941  13.852  0.6317  2.3520 -0.7038
 4644TIP3   OH235422   0.769   6.047   3.113  0.3262 -0.4058  0.5482
 4644TIP3    H135423   0.686   6.019   3.151 -0.3381 -1.4940 -1.5542
 4644TIP3    H235424   0.745   6.093   3.033  1.7232 -1.4621 -0.5401
 4645TIP3   OH235425   5.055   1.120  12.720  0.3026  0.7374 -0.5723
 4645TIP3    H135426   4.966   1.138  12.689 -0.0125  0.9919  0.4430
 4645TIP3    H235427   5.076   1.192  12.779  1.0688  0.5209 -0.5616
 4646TIP3   OH235428   3.408   5.810   5.222  0.0231 -0.6386 -0.2925
 4646TIP3    H135429   3.436   5.901   5.216  0.2173 -0.4710  2.2224
 4646TIP3    H235430   3.489   5.759   5.215 -0.1149 -0.6939 -1.9965
 4647TIP3   OH235431   6.432   6.304  10.987  0.5263 -0.2303  0.4366
 4647TIP3    H135432   6.465   6.392  11.006  0.2731 -0.1604  0.5602
 4647TIP3    H235433   6.403   6.308  10.896  1.1126 -0.3718  0.2394
 4648TIP3   OH235434   0.582   1.324  13.400 -0.1035 -0.0125 -0.5932
 4648TIP3    H135435   0.634   1.402  13.422  1.0694 -0.8724 -0.2169
 4648TIP3    H235436   0.491   1.354  13.404  0.1098  0.6378  2.6880
 4649TIP3   OH235437   2.275   1.082  12.905  0.8083 -0.2514 -0.3438
 4649TIP3    H135438   2.214   1.151  12.934 -1.2438 -1.4387 -1.5685
 4649TIP3    H235439   2.303   1.111  12.818  0.5318 -0.5916 -0.5480
 4650TIP3   OH235440   1.287   6.180  11.962 -0.5165  0.5391 -0.4814
 4650TIP3    H135441   1.278   6.135  11.878 -1.9464  0.1604 -0.1452
 4650TIP3    H235442   1.215   6.147  12.016 -1.5252  3.0276 -0.1313
 4651TIP3   OH235443   6.199   4.263   6.136  0.1788  0.0332  0.1175
 4651TIP3    H135444   6.111   4.300   6.141  0.0073 -0.2224 -0.8294
 4651TIP3    H235445   6.247   4.306   6.207 -0.8213 -0.1556  0.9258
 4652TIP3   OH235446   5.417   2.521   5.118 -0.1122  0.5623 -0.0210
 4652TIP3    H135447   5.388   2.493   5.031 -0.4576  0.4107  0.1393
 4652TIP3    H235448   5.341   2.565   5.156  0.3680  1.5712 -0.1987
 4653TIP3   OH235449   3.445   6.281  12.060 -0.0008  0.4478 -0.8421
 4653TIP3    H135450   3.529   6.320  12.036 -0.1334  0.9459 -0.4968
 4653TIP3    H235451   3.461   6.238  12.144 -0.0804  0.5123 -0.7939
 4654TIP3   OH235452   4.620   3.096  15.810  0.0894  0.1166  0.0159
 4654TIP3    H135453   4.569   3.159  15.860  0.8101  1.1169 -0.4701
 4654TIP3    H235454   4.711   3.120  15.828  0.3632  0.0836 -1.2495
 4655TIP3   OH235455   0.235   1.804  15.754 -0.1816 -0.0291 -0.4629
 4655TIP3    H135456   0.161   1.821  15.696  0.2028  2.7305 -0.3043
 4655TIP3    H235457   0.196   1.769  15.834 -1.2118  0.4493 -0.7383
 4656TIP3   OH235458   0.535   0.600   5.374  0.5291  0.1931  0.1483
 4656TIP3    H135459   0.611   0.651   5.401  0.9190 -0.9420  1.2400
 4656TIP3    H235460   0.483   0.589   5.453  0.7435 -1.5941  0.0647
 4657TIP3   OH235461   0.872   6.097   6.666 -0.7989 -0.4434 -0.0649
 4657TIP3    H135462   0.902   6.024   6.612 -0.7845 -1.3250  1.0973
 4657TIP3    H235463   0.792   6.128   6.623  0.8453  0.9750 -2.3596
 4658TIP3   OH235464   3.752   3.824  16.030 -0.2909  0.4226  0.6883
 4658TIP3    H135465   3.767   3.850  16.121 -0.1721  2.3294  0.1657
 4658TIP3    H235466   3.667   3.781  16.031  0.7177 -1.7045  2.0592
 4659TIP3   OH235467   5.974   2.376   2.113  0.2793  0.6042  0.1883
 4659TIP3    H135468   5.898   2.434   2.121  0.9619  1.7627 -1.3165
 4659TIP3    H235469   5.956   2.323   2.035 -0.4103 -1.4173  1.6212
 4660TIP3   OH235470   4.110   5.884   3.841 -0.4046  0.2009 -0.2579
 4660TIP3    H135471   4.022   5.891   3.802 -1.2534  1.3623  1.7085
 4660TIP3    H235472   4.103   5.932   3.924  2.8374  2.7044 -1.2306
 4661TIP3   OH235473   5.708   1.811   3.080  0.1906 -0.0343  0.0037
 4661TIP3    H135474   5.639   1.766   3.130  1.0970 -0.6867  0.7214
 4661TIP3    H235475   5.686   1.904   3.087 -1.9652 -0.3197 -1.8656
 4662TIP3   OH235476   4.461   3.865  12.231 -0.0746  0.0154  0.1518
 4662TIP3    H135477   4.410   3.797  12.187 -0.4791 -0.0996  0.7981
 4662TIP3    H235478   4.419   3.877  12.315  0.2246  0.8016  0.2019
 4663TIP3   OH235479   5.761   3.897  17.249  0.7214 -0.1383 -0.3855
 4663TIP3    H135480   5.787   3.874  17.160  0.0523 -1.9905 -0.1395
 4663TIP3    H235481   5.787   3.823  17.302  0.6857  0.7420  0.9065
 4664TIP3   OH235482   3.229   5.789  13.386  0.1749 -0.1884 -0.1934
 4664TIP3    H135483   3.188   5.827  13.464 -1.2237  1.8527 -1.7972
 4664TIP3    H235484   3.280   5.861  13.349 -1.0045 -0.3653 -2.3246
 4665TIP3   OH235485   0.594   6.716   0.125  0.3042  0.7551  0.5170
 4665TIP3    H135486   0.515   6.683   0.080  0.4668  4.2014 -2.7417
 4665TIP3    H235487   0.665   6.661   0.091 -0.0724  0.9246 -0.5859
 4666TIP3   OH235488   4.925   3.386  13.023 -0.6586 -0.4604 -0.0475
 4666TIP3    H135489   4.951   3.400  12.932  0.0051  0.5304  0.2859
 4666TIP3    H235490   4.959   3.299  13.044  1.8126  0.4707  0.1394
 4667TIP3   OH235491   0.851   0.968  14.441 -0.2407  0.1006 -0.6421
 4667TIP3    H135492   0.804   0.975  14.525 -1.2335 -0.3483 -1.1424
 4667TIP3    H235493   0.876   0.876  14.435 -1.1732 -0.1181 -1.3470
 4668TIP3   OH235494   4.384   4.031   2.261 -0.0969  0.1112  0.3827
 4668TIP3    H135495   4.394   3.954   2.318 -0.8858  0.9814  1.7642
 4668TIP3    H235496   4.291   4.033   2.240 -0.1544  0.9147  0.6984
 4669TIP3   OH235497   1.582   2.422   1.983 -0.2870 -0.0392  0.4234
 4669TIP3    H135498   1.555   2.485   1.916 -0.2456  0.0416  0.4823
 4669TIP3    H235499   1.665   2.455   2.015  0.2746 -0.7058 -0.3056
 4670TIP3   OH235500   2.445   6.518  14.606  0.3338 -0.4769 -0.1436
 4670TIP3    H135501   2.432   6.426  14.584  0.0489 -0.4151 -0.2419
 4670TIP3    H235502   2.540   6.531  14.601  0.5012 -1.0697  1.1031
 4671TIP3   OH235503   5.099   5.474  15.922  0.2587 -0.1356  0.0349
 4671TIP3    H135504   5.151   5.396  15.901  2.7266  1.4474 -0.0866
 4671TIP3    H235505   5.015   5.458  15.881  0.5572 -2.8622  0.2722
 4672TIP3   OH235506   0.565   5.055  15.557  0.1483 -0.0790 -0.6254
 4672TIP3    H135507   0.596   5.042  15.647 -1.0920 -0.1800 -0.1932
 4672TIP3    H235508   0.622   5.122  15.521 -0.7690  1.6433  0.9986
 4673TIP3   OH235509   6.022   3.778  14.897  0.2305 -0.9338  0.1733
 4673TIP3    H135510   5.942   3.826  14.875  0.4700 -0.8613 -0.5945
 4673TIP3    H235511   6.011   3.692  14.857  0.6003 -0.8696 -0.0768
 4674TIP3   OH235512   0.116   3.160   2.211  0.4939 -0.3386 -0.2066
 4674TIP3    H135513   0.057   3.155   2.286  0.7861  1.5127  0.1891
 4674TIP3    H235514   0.198   3.121   2.241  0.2966 -0.5175  0.0959
 4675TIP3   OH235515   1.409   2.188  16.614  0.1351  0.2371 -0.8248
 4675TIP3    H135516   1.425   2.282  16.600  0.3373  0.4421  0.6166
 4675TIP3    H235517   1.492   2.154  16.648 -0.0884 -0.3613 -0.8609
 4676TIP3   OH235518   3.352   4.483   3.776  0.4926  0.4996  0.5544
 4676TIP3    H135519   3.416   4.416   3.801 -1.0974 -0.0738  3.6386
 4676TIP3    H235520   3.304   4.445   3.703 -0.1645 -1.7353  2.0320
 4677TIP3   OH235521   6.644   3.243   6.100  0.3937 -0.5310 -0.3130
 4677TIP3    H135522   6.629   3.259   6.007 -0.7908 -1.8688 -0.3789
 4677TIP3    H235523   6.610   3.155   6.115  2.6617 -1.2988  0.9085
 4678TIP3   OH235524   2.815   2.479  14.935 -0.3437  0.3220 -0.0920
 4678TIP3    H135525   2.849   2.530  15.009 -0.7169  1.4828 -0.7019
 4678TIP3    H235526   2.888   2.476  14.873  0.6377 -2.2359  1.0187
 4679TIP3   OH235527   3.704   4.399  16.753 -0.5485  0.2218 -0.1013
 4679TIP3    H135528   3.672   4.475  16.704 -2.1746 -0.1611  0.2891
 4679TIP3    H235529   3.684   4.420  16.844  2.6825  1.0445  0.5216
 4680TIP3   OH235530   1.810   6.701   5.870  0.1115 -0.0059 -0.1253
 4680TIP3    H135531   1.831   6.635   5.804 -0.8530  0.1276 -0.5911
 4680TIP3    H235532   1.720   6.727   5.850  0.0295  0.5139  0.8487
 4681TIP3   OH235533   3.711   3.807   2.106 -0.5166  0.7357 -0.0097
 4681TIP3    H135534   3.723   3.835   2.196  1.6721 -3.0535  1.0977
 4681TIP3    H235535   3.664   3.724   2.113 -0.4315  0.4195 -2.3964
 4682TIP3   OH235536   6.631   3.003  16.239  0.5180  0.3006 -0.2362
 4682TIP3    H135537   6.718   3.006  16.200 -0.3265 -0.7199 -2.3307
 4682TIP3    H235538   6.584   3.077  16.201  0.6098  1.2486  1.3846
 4683TIP3   OH235539   0.628   4.965   6.658  0.3248  0.0536 -0.5194
 4683TIP3    H135540   0.561   4.928   6.600 -0.7871 -1.1801  1.4318
 4683TIP3    H235541   0.584   5.037   6.703  0.4885 -0.3446  0.3018
 4684TIP3   OH235542   5.758   5.631   3.247  0.1319  0.4161 -0.2206
 4684TIP3    H135543   5.777   5.683   3.169  0.8642 -1.1886 -1.1673
 4684TIP3    H235544   5.844   5.614   3.285 -0.1881  0.7681  0.6771
 4685TIP3   OH235545   2.741   2.153   6.100 -0.3367  0.1052 -0.1723
 4685TIP3    H135546   2.655   2.112   6.092 -0.9696  0.9940  1.4380
 4685TIP3    H235547   2.787   2.100   6.165 -0.3831  0.6716  0.3422
 4686TIP3   OH235548   1.241   6.351  14.174  0.8508 -0.0947  0.0370
 4686TIP3    H135549   1.300   6.379  14.244  0.0227 -0.0521  0.7322
 4686TIP3    H235550   1.300   6.325  14.103  1.7248 -0.6869  0.9490
 4687TIP3   OH235551   1.539   6.067   4.879 -0.3693 -0.1433  0.1491
 4687TIP3    H135552   1.457   6.115   4.889 -0.1969 -0.0424  1.1786
 4687TIP3    H235553   1.600   6.112   4.938  0.7070  0.3828 -1.3128
 4688TIP3   OH235554   2.028   1.696  13.342  0.2013  0.7253 -0.4182
 4688TIP3    H135555   1.935   1.693  13.321  0.4870 -0.8478 -1.7505
 4688TIP3    H235556   2.037   1.763  13.409 -2.2771 -0.9611  1.7941
 4689TIP3   OH235557   6.351   6.813   1.552 -0.4270 -0.0487  0.5682
 4689TIP3    H135558   6.370   6.801   1.459  0.7848 -0.2473  0.8245
 4689TIP3    H235559   6.369   6.905   1.569 -1.5629  0.2209  0.4253
 4690TIP3   OH235560   3.294   4.313  15.293  0.1975  0.9887 -0.1340
 4690TIP3    H135561   3.215   4.325  15.241 -0.1510  0.3309  0.2336
 4690TIP3    H235562   3.263   4.314  15.384  0.3616 -0.9806 -0.0237
 4691TIP3   OH235563   2.286   0.117  13.017 -0.1845  0.0055  0.5719
 4691TIP3    H135564   2.280   0.074  12.932  2.4028 -0.3355  0.4928
 4691TIP3    H235565   2.250   0.053  13.079  0.4387 -0.8816  0.0410
 4692TIP3   OH235566   1.683   5.032   4.809  0.4573 -0.6646  0.1817
 4692TIP3    H135567   1.724   4.978   4.742  3.1179  0.2936  0.8948
 4692TIP3    H235568   1.709   5.121   4.787 -1.8140  0.1028  0.3924
 4693TIP3   OH235569   3.097   1.854  14.086 -0.6364  0.4637  1.1149
 4693TIP3    H135570   3.177   1.824  14.042  0.6049 -0.1458  3.5690
 4693TIP3    H235571   3.055   1.913  14.023  1.1400 -0.0854 -0.6993
 4694TIP3   OH235572   6.394   5.711   6.939  0.1648 -0.3175 -0.2793
 4694TIP3    H135573   6.344   5.639   6.977 -0.1961  0.3470  0.5252
 4694TIP3    H235574   6.329   5.771   6.903  0.2840  0.9583  1.4962
 4695TIP3   OH235575   5.957   5.011  15.099 -0.1762  0.7575 -0.3661
 4695TIP3    H135576   6.028   4.961  15.060 -2.0119 -1.8259 -0.6366
 4695TIP3    H235577   6.001   5.082  15.147  2.4678 -0.0658 -1.3948
 4696TIP3   OH235578   5.391   2.871   2.580 -0.2158  0.3327 -0.2631
 4696TIP3    H135579   5.326   2.854   2.512 -1.8664  0.5188  1.1751
 4696TIP3    H235580   5.471   2.830   2.548 -1.6770 -2.1426 -1.0405
 4697TIP3   OH235581   2.394   0.678   4.219 -0.3357 -0.1927 -0.4016
 4697TIP3    H135582   2.450   0.685   4.142  0.4885  1.2569  0.2936
 4697TIP3    H235583   2.305   0.681   4.184  0.0172 -0.4833 -1.3520
 4698TIP3   OH235584   3.560   6.210  16.070  0.4860  0.0890 -0.4405
 4698TIP3    H135585   3.505   6.216  16.148 -2.8771 -0.7516 -2.5536
 4698TIP3    H235586   3.596   6.298  16.060 -0.8153  0.8122  0.8556
 4699TIP3   OH235587   2.468   0.964   2.313  0.5921  0.1767  0.2634
 4699TIP3    H135588   2.524   0.920   2.249 -0.1110 -1.4756  0.7384
 4699TIP3    H235589   2.495   0.927   2.398 -0.4283  0.1961  0.6104
 4700TIP3   OH235590   6.291   3.546   1.641 -0.6502 -0.2831 -0.2283
 4700TIP3    H135591   6.361   3.548   1.575 -2.0132 -1.7310 -1.7865
 4700TIP3    H235592   6.307   3.465   1.690 -2.5636 -1.9330 -2.1879
 4701TIP3   OH235593   6.319   3.360  16.505 -0.3811  0.6665 -0.1650
 4701TIP3    H135594   6.298   3.405  16.586 -0.5674  2.4968 -1.1778
 4701TIP3    H235595   6.365   3.281  16.532 -0.4962  1.2047  1.7063
 4702TIP3   OH235596   2.846   3.178   0.864  0.2772  0.4390  0.0221
 4702TIP3    H135597   2.875   3.089   0.883 -2.4873 -1.0511 -1.9082
 4702TIP3    H235598   2.762   3.186   0.908 -0.0181  1.7001 -0.7004
 4703TIP3   OH235599   1.450   2.198  13.415  0.2231  0.2144  0.0510
 4703TIP3    H135600   1.498   2.278  13.395  0.2715  0.3269  0.5836
 4703TIP3    H235601   1.504   2.127  13.381  1.5669  0.2303  2.0080
 4704TIP3   OH235602   2.557   1.178  15.546 -0.1249  0.1206 -0.2963
 4704TIP3    H135603   2.479   1.128  15.524  0.6495 -0.9375 -0.7328
 4704TIP3    H235604   2.619   1.159  15.476  1.2885 -0.7894  1.1251
 4705TIP3   OH235605   3.770   0.551   2.357 -0.3571 -0.3125 -0.0253
 4705TIP3    H135606   3.859   0.523   2.333 -0.5311 -0.5167 -0.4323
 4705TIP3    H235607   3.774   0.646   2.356 -0.7360 -0.2494 -2.3773
 4706TIP3   OH235608   0.268   2.017   4.995  0.1973 -0.3494 -0.1224
 4706TIP3    H135609   0.265   2.047   4.904 -2.0217 -0.4687 -0.1449
 4706TIP3    H235610   0.323   1.939   4.993 -0.0339 -0.4979 -1.4120
 4707TIP3   OH235611   1.039   1.137   4.948  0.2200  0.6034  0.4136
 4707TIP3    H135612   0.980   1.211   4.962 -1.5423 -0.6605  0.0369
 4707TIP3    H235613   1.028   1.083   5.027  1.1669  0.5409  0.5056
 4708TIP3   OH235614   1.581   5.821  11.068 -0.4614  0.4193  0.3754
 4708TIP3    H135615   1.515   5.762  11.104  0.5722  0.0433  1.7895
 4708TIP3    H235616   1.600   5.785  10.981 -0.0827 -1.2019  1.0731
 4709TIP3   OH235617   6.220   0.675  13.368 -0.6767  0.0910  0.5196
 4709TIP3    H135618   6.214   0.718  13.282  0.7190  1.4595  1.0505
 4709TIP3    H235619   6.166   0.729  13.425 -0.4432  0.0348  0.7960
 4710TIP3   OH235620   4.275   6.444   1.602  0.1996  0.8182  0.2411
 4710TIP3    H135621   4.320   6.399   1.531  0.6932 -0.3211  1.2410
 4710TIP3    H235622   4.311   6.405   1.682 -0.0046  2.3781  1.1358
 4711TIP3   OH235623   2.514   1.775   5.749  0.3778 -0.5598  0.3973
 4711TIP3    H135624   2.482   1.864   5.735 -0.0575 -0.7769 -0.0059
 4711TIP3    H235625   2.574   1.782   5.824  0.2764  0.0524  0.4204
 4712TIP3   OH235626   1.493   5.659   5.608 -0.1881 -0.2569 -0.5231
 4712TIP3    H135627   1.552   5.585   5.592  2.4728  1.1553  1.8800
 4712TIP3    H235628   1.420   5.621   5.656  1.6121 -1.2877  1.5608
 4713TIP3   OH235629   0.110   5.488   5.167  0.2133  0.0585  0.0658
 4713TIP3    H135630   0.091   5.436   5.088 -0.0645  2.3981 -1.5058
 4713TIP3    H235631   0.204   5.500   5.166  0.2977 -0.5154  0.5229
 4714TIP3   OH235632   6.650   0.922   4.260  0.0916 -0.4513 -0.5865
 4714TIP3    H135633   6.695   1.004   4.243 -0.4645  0.0040  0.0788
 4714TIP3    H235634   6.634   0.922   4.355 -1.4227 -0.5247 -0.8128
 4715TIP3   OH235635   1.492   5.211  13.094  0.4979 -0.4413  0.1165
 4715TIP3    H135636   1.406   5.241  13.124  0.6590  0.3168 -0.1391
 4715TIP3    H235637   1.531   5.289  13.055  1.3042 -0.7818  0.2336
 4716TIP3   OH235638   3.094   4.297  13.217  0.0745 -0.2298 -0.0890
 4716TIP3    H135639   3.019   4.309  13.160 -0.7361  1.2641  1.1848
 4716TIP3    H235640   3.088   4.207  13.248 -1.7487  0.1124  0.6770
 4717TIP3   OH235641   3.175   1.629   2.273 -0.0257  0.5457 -0.3957
 4717TIP3    H135642   3.202   1.651   2.184 -0.1221  0.1417 -0.5276
 4717TIP3    H235643   3.202   1.538   2.284 -2.0885 -0.1795 -0.8522
 4718TIP3   OH235644   4.828   4.788   0.516  0.4231 -0.3542  0.3114
 4718TIP3    H135645   4.736   4.799   0.493  0.5670 -1.0884 -0.7460
 4718TIP3    H235646   4.835   4.695   0.540  0.6590 -0.0198  1.5574
 4719TIP3   OH235647   0.160   1.357  16.904 -0.7808 -0.5969 -0.1385
 4719TIP3    H135648   0.143   1.353  16.810 -1.7003  0.1438 -0.0107
 4719TIP3    H235649   0.165   1.451  16.923  1.8106 -0.7053  0.1468
 4720TIP3   OH235650   0.009   1.735   0.352 -0.5542  0.4309  0.7372
 4720TIP3    H135651  -0.020   1.794   0.422 -2.0514  2.7478 -1.6850
 4720TIP3    H235652   0.103   1.751   0.345 -0.3002 -0.1117  2.3726
 4721TIP3   OH235653   1.915   1.755  15.589 -0.2729 -0.2239 -0.8082
 4721TIP3    H135654   1.848   1.819  15.614  0.0351  0.3284 -1.3898
 4721TIP3    H235655   1.868   1.689  15.539 -0.5937 -0.4652 -0.1994
 4722TIP3   OH235656   2.864   4.789  14.819 -0.2262 -0.1334  0.0177
 4722TIP3    H135657   2.881   4.820  14.908 -0.8263 -2.8337  1.1845
 4722TIP3    H235658   2.876   4.866  14.764 -1.9336  2.2033  2.6163
 4723TIP3   OH235659   2.853   5.887   3.557  0.6167 -0.6664  0.1289
 4723TIP3    H135660   2.892   5.847   3.479  0.0864  0.4099 -0.7127
 4723TIP3    H235661   2.774   5.930   3.524  0.9586  0.7249  1.0727
 4724TIP3   OH235662   1.265   4.902   1.196  0.0684  0.5366 -0.0656
 4724TIP3    H135663   1.293   4.821   1.154  1.4338  0.2770  1.2627
 4724TIP3    H235664   1.272   4.969   1.128  2.0997  0.1007 -0.3465
 4725TIP3   OH235665   4.993   3.862   3.323 -0.0695 -0.5935 -0.3271
 4725TIP3    H135666   4.934   3.806   3.273  0.9082  0.3587 -2.7096
 4725TIP3    H235667   5.079   3.821   3.311  0.4070  0.4959 -0.7605
 4726TIP3   OH235668   0.826   1.563   3.634  0.3542 -0.0056 -0.3186
 4726TIP3    H135669   0.830   1.467   3.636  2.3935  0.0578  0.7197
 4726TIP3    H235670   0.855   1.590   3.721  1.0386  1.5828 -1.0082
 4727TIP3   OH235671   3.688   3.306  17.035 -0.3745  0.0111  0.1606
 4727TIP3    H135672   3.612   3.357  17.063 -0.7868 -0.5189  0.0366
 4727TIP3    H235673   3.714   3.257  17.114 -2.1695 -2.2703 -0.5441
 4728TIP3   OH235674   0.125   6.800  16.108  0.2345 -0.5403  0.4894
 4728TIP3    H135675   0.204   6.851  16.088 -1.2269  1.3331 -0.9139
 4728TIP3    H235676   0.136   6.775  16.200  2.1493  0.2427  0.5279
 4729TIP3   OH235677   3.532   6.449  12.422 -0.2771 -0.2144  0.6467
 4729TIP3    H135678   3.506   6.420  12.509 -1.0084 -0.1420  0.4520
 4729TIP3    H235679   3.489   6.534  12.411  0.7894  0.3598  0.6906
 4730TIP3   OH235680   0.602   3.280   0.939  0.3855 -0.6913 -0.4530
 4730TIP3    H135681   0.650   3.238   0.868  0.6170 -0.9625 -0.1374
 4730TIP3    H235682   0.510   3.268   0.916  0.4267  1.3117 -1.9408
 4731TIP3   OH235683   0.854   4.258  17.108 -0.2002  0.0187 -0.3243
 4731TIP3    H135684   0.778   4.288  17.059 -1.1172  2.6012  2.4138
 4731TIP3    H235685   0.820   4.185  17.161 -1.1655  1.7599  1.5963
 4732TIP3   OH235686   1.058   6.591  15.596  0.1241  0.1008 -0.2190
 4732TIP3    H135687   1.098   6.505  15.604 -0.6809 -0.1902  0.8574
 4732TIP3    H235688   0.967   6.574  15.571 -0.6044  0.4836  1.8937
 4733TIP3   OH235689   5.381   3.101  16.464 -0.3115  0.6293  0.3572
 4733TIP3    H135690   5.433   3.114  16.384 -0.9884 -0.5619 -0.3079
 4733TIP3    H235691   5.446   3.090  16.533  0.2857  1.8391  0.0070
 4734TIP3   OH235692   0.860   6.368  14.842 -0.0533  0.3109 -0.9100
 4734TIP3    H135693   0.868   6.345  14.935  0.1668  1.5816 -0.5986
 4734TIP3    H235694   0.913   6.447  14.833 -1.8860  1.4905 -1.6456
 4735TIP3   OH235695   2.462   2.393  12.579 -0.4493 -0.0221 -0.6249
 4735TIP3    H135696   2.402   2.460  12.545  0.8321  0.1783 -2.6884
 4735TIP3    H235697   2.464   2.326  12.511  1.8842  0.1582 -0.8255
 4736TIP3   OH235698   4.703   2.942   2.765  0.3608 -0.6220 -0.0501
 4736TIP3    H135699   4.638   2.890   2.813 -0.2010 -0.0059 -0.1338
 4736TIP3    H235700   4.691   2.916   2.674 -0.4359  0.1904 -0.1873
 4737TIP3   OH235701   6.244   2.408   6.135 -0.2099 -0.4135  0.3305
 4737TIP3    H135702   6.272   2.485   6.085  1.9010 -1.3628 -0.0815
 4737TIP3    H235703   6.152   2.424   6.155 -0.8294  0.6268 -2.7656
 4738TIP3   OH235704   1.605   5.773  10.810 -0.2100 -0.0968  0.1426
 4738TIP3    H135705   1.669   5.788  10.740  0.2028 -0.2134  0.4859
 4738TIP3    H235706   1.541   5.843  10.800 -2.4671 -2.3171 -2.8627
 4739TIP3   OH235707   2.462   5.141   5.791 -0.3301  0.0400  0.1786
 4739TIP3    H135708   2.398   5.201   5.753  1.0402  0.2432 -1.9133
 4739TIP3    H235709   2.522   5.197   5.841 -0.9420 -0.0061  0.9962
 4740TIP3   OH235710   2.146   2.788  15.891  0.1453 -0.0445 -0.4145
 4740TIP3    H135711   2.089   2.837  15.950  1.1222 -0.2458  0.7412
 4740TIP3    H235712   2.139   2.697  15.920  0.9729 -0.0808 -0.2993
 4741TIP3   OH235713   2.230   1.536   5.308  0.1979 -0.2687 -0.2714
 4741TIP3    H135714   2.184   1.461   5.270 -2.8206  1.9777 -1.4254
 4741TIP3    H235715   2.270   1.501   5.388 -1.8068 -2.9285 -0.2869
 4742TIP3   OH235716   0.308   1.782   5.330  0.5179  0.5371  0.4591
 4742TIP3    H135717   0.286   1.870   5.361 -1.3330 -0.5904  2.6595
 4742TIP3    H235718   0.238   1.760   5.269  0.9085  0.5519  0.0070
 4743TIP3   OH235719   6.077   4.851   3.855 -0.5053 -0.0626  0.1397
 4743TIP3    H135720   6.019   4.776   3.863 -1.0343  0.4839  1.9512
 4743TIP3    H235721   6.125   4.853   3.938  0.2390  1.0056 -0.2948
 4744TIP3   OH235722   4.022   3.255   0.236 -0.2016  0.0361 -0.5675
 4744TIP3    H135723   4.023   3.176   0.290 -1.0243  0.0688 -0.4944
 4744TIP3    H235724   4.018   3.327   0.298 -0.9232  0.0812 -0.6563
 4745TIP3   OH235725   3.866   1.935  13.124  0.6827 -0.1630  0.4274
 4745TIP3    H135726   3.823   1.851  13.110  1.2006 -0.6822  1.7779
 4745TIP3    H235727   3.916   1.950  13.044  0.6824 -1.1917  0.2233
 4746TIP3   OH235728   5.450   0.888  10.804  0.2974 -0.3585  0.1532
 4746TIP3    H135729   5.376   0.865  10.748  0.4700 -1.0032  0.1716
 4746TIP3    H235730   5.501   0.807  10.809  0.8891  0.0208  0.3114
 4747TIP3   OH235731   6.524   0.859   2.134 -0.3041 -0.1275 -0.4337
 4747TIP3    H135732   6.543   0.950   2.113 -0.3145  0.1889  0.8675
 4747TIP3    H235733   6.464   0.830   2.065 -0.7592  1.0197 -0.5325
 4748TIP3   OH235734   6.317   1.006   6.226 -0.1304  0.1155 -0.1736
 4748TIP3    H135735   6.312   1.100   6.244 -0.1053 -0.0877  0.9877
 4748TIP3    H235736   6.294   0.965   6.309 -1.7817 -0.9220 -1.0926
 4749TIP3   OH235737   5.931   2.842   2.477  0.7584 -0.7116 -0.2819
 4749TIP3    H135738   5.967   2.756   2.456 -2.2601 -2.0916 -0.3385
 4749TIP3    H235739   5.935   2.847   2.572 -0.6654 -1.7596 -0.1342
 4750TIP3   OH235740   5.872   3.198   3.416 -0.1308  0.4767 -0.0498
 4750TIP3    H135741   5.846   3.106   3.420  0.7197  0.2438  0.1327
 4750TIP3    H235742   5.793   3.243   3.387 -0.3214 -0.4078 -0.9461
 4751TIP3   OH235743   6.173   2.153   3.881 -0.0498 -0.3026  0.0513
 4751TIP3    H135744   6.163   2.068   3.924  0.1115 -1.2596 -1.7499
 4751TIP3    H235745   6.252   2.190   3.921 -0.7102 -0.4984  1.6093
 4752TIP3   OH235746   4.954   5.802  14.385 -0.3148 -0.1698 -0.0917
 4752TIP3    H135747   4.957   5.756  14.301  0.7119 -0.2735 -0.0089
 4752TIP3    H235748   4.910   5.884  14.366 -0.6790 -0.4755 -0.5934
 4753TIP3   OH235749   2.394   3.771   3.637 -0.4770  0.4396  0.3766
 4753TIP3    H135750   2.390   3.731   3.724  0.1925 -1.0179 -0.2117
 4753TIP3    H235751   2.379   3.698   3.577  0.2219  1.1869 -0.7527
 4754TIP3   OH235752   5.726   2.315  14.176  0.0375 -0.2147  0.3032
 4754TIP3    H135753   5.821   2.320  14.186  0.0809 -0.6383  0.0847
 4754TIP3    H235754   5.711   2.317  14.082 -0.1251 -0.9852  0.3114
 4755TIP3   OH235755   4.874   3.013  12.865 -0.2167 -0.3588 -0.2086
 4755TIP3    H135756   4.900   3.057  12.946  0.2649 -0.8992 -0.0590
 4755TIP3    H235757   4.859   2.922  12.892 -1.1166 -0.3086 -0.5241
 4756TIP3   OH235758   4.024   4.176   0.358  0.0303  0.1872  0.1812
 4756TIP3    H135759   3.937   4.176   0.397 -0.0182  1.4706  0.1173
 4756TIP3    H235760   4.031   4.261   0.315 -0.0523 -1.2328 -2.9212
 4757TIP3   OH235761   3.776   3.896  16.291 -0.2403 -0.2926 -0.1188
 4757TIP3    H135762   3.702   3.904  16.351 -1.2250  1.1600 -1.4338
 4757TIP3    H235763   3.846   3.857  16.343 -1.4649 -0.3071  1.5802
 4758TIP3   OH235764   1.075   6.445   2.493 -0.3862 -0.2026  0.0267
 4758TIP3    H135765   1.116   6.516   2.444  0.4035 -1.5167 -1.3064
 4758TIP3    H235766   0.981   6.460   2.484 -0.2514  1.4551  1.0152
 4759TIP3   OH235767   3.084   5.766  13.664 -0.1163 -0.0213  0.6426
 4759TIP3    H135768   3.006   5.795  13.616 -1.7287 -0.7661  2.6726
 4759TIP3    H235769   3.078   5.671  13.666  1.8346 -0.2388 -0.6455
 4760TIP3   OH235770   3.949   3.267  16.453 -0.6269  0.7695  0.5800
 4760TIP3    H135771   3.899   3.187  16.473 -0.2876  0.6519  0.9574
 4760TIP3    H235772   4.018   3.237  16.394 -0.7670  0.8695  0.3597
 4761TIP3   OH235773   2.250   1.531   0.462 -0.0846 -0.0844  0.3657
 4761TIP3    H135774   2.221   1.441   0.472  0.3603 -0.4549 -1.2883
 4761TIP3    H235775   2.289   1.554   0.546 -2.5158 -0.5102  1.6872
 4762TIP3   OH235776   0.676   4.912  11.366  0.4541  0.2626  0.5069
 4762TIP3    H135777   0.746   4.940  11.307  0.0222  0.2118 -0.0343
 4762TIP3    H235778   0.623   4.851  11.315 -0.5328  1.0172  0.5838
 4763TIP3   OH235779   5.060   3.331  10.989 -0.3213  0.2572  0.0457
 4763TIP3    H135780   5.053   3.304  10.897 -1.2168  1.2892 -0.2076
 4763TIP3    H235781   5.000   3.405  10.997  0.9681  1.2517  1.0575
 4764TIP3   OH235782   4.275   6.658  11.201 -0.0924  0.1975 -0.2314
 4764TIP3    H135783   4.229   6.733  11.164 -0.4748  0.4258  0.6792
 4764TIP3    H235784   4.209   6.611  11.252  0.6499  0.5357  1.1056
 4765TIP3   OH235785   5.001   3.800  15.529  0.3966 -0.0855  0.5921
 4765TIP3    H135786   5.070   3.778  15.591  1.3489  2.1131  0.4323
 4765TIP3    H235787   5.019   3.745  15.453  1.0875 -0.6042  1.1174
 4766TIP3   OH235788   2.617   2.349   1.162  0.5284 -0.0157 -0.4953
 4766TIP3    H135789   2.681   2.389   1.220  0.6471  0.5106 -0.9804
 4766TIP3    H235790   2.597   2.417   1.097  0.2873 -0.5363 -0.9799
 4767TIP3   OH235791   3.706   0.127  14.437 -0.3252  0.1473 -0.5416
 4767TIP3    H135792   3.646   0.059  14.407  0.5543 -0.5862 -0.6797
 4767TIP3    H235793   3.725   0.105  14.528  2.1397 -1.4823 -1.3394
 4768TIP3   OH235794   2.345   4.048  10.609 -0.3261  0.4482 -0.3465
 4768TIP3    H135795   2.371   4.117  10.548 -0.3387  0.4142 -0.3905
 4768TIP3    H235796   2.280   4.089  10.666 -0.5649  0.3841 -0.5707
 4769TIP3   OH235797   5.525   3.247   4.976  0.2739  0.0427  0.1577
 4769TIP3    H135798   5.468   3.324   4.975 -1.4469 -1.1720  0.0192
 4769TIP3    H235799   5.522   3.216   5.067  1.4615  0.4662  0.3593
 4770TIP3   OH235800   5.909   2.313  12.681  0.4102 -0.2566 -0.0736
 4770TIP3    H135801   5.819   2.317  12.648  1.0211  0.0418 -1.7715
 4770TIP3    H235802   5.900   2.273  12.768 -1.3255 -0.5401 -0.3404
 4771TIP3   OH235803   0.173   2.454   3.072  0.4829  0.0230  0.2480
 4771TIP3    H135804   0.120   2.500   3.008 -2.1065  1.7572  3.3698
 4771TIP3    H235805   0.130   2.369   3.082  2.0748 -1.0861 -1.5890
 4772TIP3   OH235806   3.278   2.147   1.077 -0.5207  0.3692 -0.3695
 4772TIP3    H135807   3.325   2.135   0.994  1.0412  0.9546  0.3958
 4772TIP3    H235808   3.193   2.183   1.051 -0.9532 -1.5028 -1.8623
 4773TIP3   OH235809   6.690   1.332  15.541  0.0734 -0.1623  0.2623
 4773TIP3    H135810   6.711   1.371  15.626 -0.0088 -0.7670  0.5589
 4773TIP3    H235811   6.773   1.330  15.494  0.0656  0.4405  0.2100
 4774TIP3   OH235812   1.745   1.892  14.425 -0.3519 -0.1316 -0.5124
 4774TIP3    H135813   1.667   1.847  14.457 -0.0908  0.1348  0.5391
 4774TIP3    H235814   1.742   1.881  14.330 -1.6541 -0.1326 -0.4848
 4775TIP3   OH235815   5.754   4.848   3.992  0.4077  0.4101 -0.1697
 4775TIP3    H135816   5.836   4.802   4.012 -0.0644 -0.4512 -0.1467
 4775TIP3    H235817   5.686   4.786   4.018 -0.2734  1.5386  0.7943
 4776TIP3   OH235818   1.585   1.560  14.102 -0.0425  0.4052 -0.0430
 4776TIP3    H135819   1.537   1.478  14.113 -0.6173  0.7554  0.0998
 4776TIP3    H235820   1.653   1.557  14.169 -0.7932  0.5589  0.7510
 4777TIP3   OH235821   6.261   0.676   2.296  0.2639  0.3413  0.2715
 4777TIP3    H135822   6.312   0.669   2.377 -0.8262 -0.7894  0.8829
 4777TIP3    H235823   6.180   0.720   2.322 -0.5401 -0.9486  0.0350
 4778TIP3   OH235824   4.984   2.328   3.358 -0.6368 -0.0390  0.8320
 4778TIP3    H135825   4.918   2.397   3.357 -0.0465  0.5327  0.5654
 4778TIP3    H235826   4.952   2.265   3.422 -1.2954  0.3715  0.9133
 4779TIP3   OH235827   2.756   1.692   0.671 -0.6669  0.1587  0.2967
 4779TIP3    H135828   2.767   1.607   0.628 -0.3481 -0.2637  1.1823
 4779TIP3    H235829   2.678   1.682   0.726 -0.0685  0.1037  1.1584
 4780TIP3   OH235830   3.419   3.840  15.337 -0.3283 -0.0163  0.3233
 4780TIP3    H135831   3.398   3.883  15.254  0.4157  0.7856  0.5390
 4780TIP3    H235832   3.514   3.827  15.334 -0.4198 -0.8412  0.6571
 4781TIP3   OH235833   0.051   2.938  14.807 -0.2508  0.0832 -0.4433
 4781TIP3    H135834   0.103   2.974  14.879 -0.3656  0.4389 -0.5348
 4781TIP3    H235835   0.037   2.847  14.831 -0.5744  0.2846  0.1534
 4782TIP3   OH235836   3.378   0.949   1.052 -0.0244 -0.5144 -0.1149
 4782TIP3    H135837   3.283   0.946   1.059 -0.1253 -2.5066 -1.2978
 4782TIP3    H235838   3.405   0.857   1.060  1.8595  0.0726  0.7913
 4783TIP3   OH235839   1.134   1.244  16.445  0.0739 -0.1131 -0.4234
 4783TIP3    H135840   1.198   1.311  16.471  0.6878 -0.6198 -0.6032
 4783TIP3    H235841   1.063   1.293  16.404  0.1075  0.5048  0.2409
 4784TIP3   OH235842   0.094   0.901   3.477 -0.3981  0.4511  0.0953
 4784TIP3    H135843   0.165   0.965   3.484  0.7897 -0.6900 -0.7864
 4784TIP3    H235844   0.128   0.823   3.520  0.3286 -1.2059 -3.1471
 4785TIP3   OH235845   5.779   5.359   0.948 -0.4258 -0.1322  0.0602
 4785TIP3    H135846   5.849   5.329   0.890 -0.6803  0.2159 -0.4453
 4785TIP3    H235847   5.702   5.363   0.891 -0.9475 -0.8948  0.7059
 4786TIP3   OH235848   0.684   1.748   1.412  0.1599 -0.5248  0.1809
 4786TIP3    H135849   0.740   1.726   1.487 -1.8038 -1.4169  1.4966
 4786TIP3    H235850   0.620   1.677   1.409 -0.6518  0.2232 -1.4998
 4787TIP3   OH235851   1.608   4.712   2.100 -0.3431 -0.3693 -0.3305
 4787TIP3    H135852   1.703   4.728   2.101 -0.2163 -0.8737 -2.1748
 4787TIP3    H235853   1.589   4.682   2.012 -2.4730  1.1387 -0.4592
 4788TIP3   OH235854   4.978   5.761   2.853  0.4540 -0.7424 -0.0050
 4788TIP3    H135855   4.936   5.678   2.829  1.6874 -1.3273 -0.2637
 4788TIP3    H235856   5.001   5.751   2.945  0.6505 -0.7167 -0.0502
 4789TIP3   OH235857   0.940   1.644  12.939 -0.4617 -0.4622  0.0503
 4789TIP3    H135858   0.927   1.700  12.863 -0.9505 -2.8938 -1.7556
 4789TIP3    H235859   1.030   1.613  12.932 -0.6803 -1.1366  0.1516
 4790TIP3   OH235860   5.352   4.873   1.670 -0.2045 -0.2231 -0.2493
 4790TIP3    H135861   5.367   4.836   1.583 -1.1632  0.8835 -0.9200
 4790TIP3    H235862   5.433   4.919   1.690  0.4661 -1.4578 -0.0214
 4791TIP3   OH235863   4.259   3.893   1.000  0.1802 -0.7248  0.0029
 4791TIP3    H135864   4.182   3.888   1.057  1.3077 -1.8406  1.5112
 4791TIP3    H235865   4.312   3.818   1.025  0.6094 -1.4305 -2.7928
 4792TIP3   OH235866   3.944   4.179   3.146 -0.4272 -0.3862 -0.1173
 4792TIP3    H135867   4.000   4.149   3.218 -0.5727 -1.4039 -0.4199
 4792TIP3    H235868   3.999   4.242   3.098 -0.0040 -0.3964  0.3428
 4793TIP3   OH235869   0.126   4.524  16.605 -0.1762  0.2878  0.4216
 4793TIP3    H135870   0.190   4.480  16.660 -1.2407 -0.3364  1.1963
 4793TIP3    H235871   0.173   4.597  16.566  1.2103 -0.6288  0.3309
 4794TIP3   OH235872   0.395   5.139   1.237 -0.6162  0.2566  0.3427
 4794TIP3    H135873   0.389   5.232   1.218  2.3052  0.3770 -0.5048
 4794TIP3    H235874   0.376   5.096   1.154 -3.8533 -0.1016  1.1494
 4795TIP3   OH235875   3.277   1.301   5.789  0.2554  0.3740 -0.0625
 4795TIP3    H135876   3.283   1.241   5.864 -0.4526 -0.0931 -0.3632
 4795TIP3    H235877   3.273   1.243   5.712 -1.4625  0.7417 -0.2969
 4796TIP3   OH235878   1.166   2.183  14.729 -0.1762 -0.5325 -0.3015
 4796TIP3    H135879   1.175   2.278  14.720  0.2407 -0.5222  0.1810
 4796TIP3    H235880   1.236   2.147  14.674 -1.0300 -0.5944 -1.3771
 4797TIP3   OH235881   3.907   1.713  15.310  0.1431 -0.1498  0.2118
 4797TIP3    H135882   3.837   1.742  15.369  0.1219 -2.3975  1.3831
 4797TIP3    H235883   3.883   1.623  15.286  1.0103  0.1218 -1.9718
 4798TIP3   OH235884   4.920   1.501   5.136  0.3922 -0.3672  0.0216
 4798TIP3    H135885   4.941   1.516   5.228 -0.6324  0.1901  0.1829
 4798TIP3    H235886   4.828   1.472   5.137  0.5733 -0.9841 -0.7717
 4799TIP3   OH235887   3.099   5.093  11.536  0.2629  0.2112  0.2614
 4799TIP3    H135888   3.066   5.004  11.545 -0.9082  0.3598 -1.9655
 4799TIP3    H235889   3.073   5.120  11.447  1.5782  2.3575  0.4557
 4800TIP3   OH235890   1.356   1.207   0.876 -0.0142 -0.6599 -0.1557
 4800TIP3    H135891   1.392   1.144   0.814 -0.3522 -0.8729 -0.1387
 4800TIP3    H235892   1.420   1.278   0.878  0.9062 -1.4890  0.6329
 4801TIP3   OH235893   1.082   0.298   5.137  0.3604  0.1364 -0.0877
 4801TIP3    H135894   0.999   0.279   5.182  0.5840  1.0604  0.7410
 4801TIP3    H235895   1.102   0.217   5.090 -2.5184  0.7796 -2.7671
 4802TIP3   OH235896   4.002   1.026   4.797  0.4997 -0.1178  0.6494
 4802TIP3    H135897   4.003   1.022   4.701  1.0498 -1.6977  0.6860
 4802TIP3    H235898   3.922   0.979   4.822  1.1980 -1.1755  0.9714
 4803TIP3   OH235899   0.551   5.606  11.768 -0.4865 -0.2054  0.3596
 4803TIP3    H135900   0.510   5.653  11.695  1.2520 -0.0585 -0.5822
 4803TIP3    H235901   0.535   5.662  11.844 -2.2006 -0.2902  0.1152
 4804TIP3   OH235902   3.586   2.743  14.478 -0.1765 -0.0456 -0.4497
 4804TIP3    H135903   3.501   2.786  14.492 -0.0159  0.0717  0.2081
 4804TIP3    H235904   3.596   2.739  14.383 -1.5766 -1.3348 -0.5822
 4805TIP3   OH235905   5.024   5.913   0.617  0.2575 -0.1171 -0.2806
 4805TIP3    H135906   5.111   5.944   0.593  1.4283 -1.5008  1.8223
 4805TIP3    H235907   4.986   5.984   0.669  1.5590 -0.7783  1.6660
 4806TIP3   OH235908   0.396   0.460  11.914  0.5365  0.0304  0.3378
 4806TIP3    H135909   0.346   0.379  11.929 -0.9150  0.4116 -1.9993
 4806TIP3    H235910   0.432   0.450  11.826 -1.2379  2.6238 -0.7907
 4807TIP3   OH235911   1.338   2.041  14.346  0.3143 -0.0243  0.7435
 4807TIP3    H135912   1.289   2.122  14.333  2.8045  2.0829  3.1661
 4807TIP3    H235913   1.362   2.013  14.258 -3.2523 -0.0075 -0.3828
 4808TIP3   OH235914   4.781   2.388   0.560 -0.1771  0.2832 -0.1128
 4808TIP3    H135915   4.707   2.353   0.610 -0.5609  1.3251  0.0672
 4808TIP3    H235916   4.840   2.425   0.626 -0.6197  1.5370 -0.3906
 4809TIP3   OH235917   6.308   5.307  11.984 -0.1408 -0.1327 -0.2279
 4809TIP3    H135918   6.384   5.311  11.927  1.0046 -0.3513  1.2299
 4809TIP3    H235919   6.266   5.393  11.975  1.9235  1.1040  1.0693
 4810TIP3   OH235920   4.909   6.494   0.840  0.1422  0.4559 -0.1154
 4810TIP3    H135921   4.833   6.439   0.818  0.4741  0.0669 -0.2901
 4810TIP3    H235922   4.881   6.582   0.817 -0.1221  0.2660 -0.5470
 4811TIP3   OH235923   1.470   6.053  16.691 -0.5100  0.3053 -0.1267
 4811TIP3    H135924   1.475   6.148  16.700 -0.5766  0.3545 -0.5680
 4811TIP3    H235925   1.402   6.038  16.626 -0.4592 -0.0427 -0.1041
 4812TIP3   OH235926   2.647   2.418  13.614 -0.5177 -0.5803  0.5221
 4812TIP3    H135927   2.693   2.348  13.567 -0.3941 -0.3540  0.3045
 4812TIP3    H235928   2.636   2.487  13.549  1.2418  0.4745  1.2585
 4813TIP3   OH235929   5.828   6.584  15.262 -0.3569  0.0368  0.3099
 4813TIP3    H135930   5.845   6.669  15.223 -3.2388  1.2217  1.4113
 4813TIP3    H235931   5.839   6.522  15.190 -0.7803  1.6057 -1.1554
 4814TIP3   OH235932   2.930   2.738   5.929  0.4758 -0.6031 -0.1978
 4814TIP3    H135933   2.974   2.813   5.888  0.0599 -0.0197  0.3965
 4814TIP3    H235934   2.983   2.717   6.005 -0.3138  0.1825  0.5924
 4815TIP3   OH235935   4.761   0.677  12.803  0.1367  0.3523  0.6073
 4815TIP3    H135936   4.856   0.667  12.807 -0.0221 -1.5668  0.1507
 4815TIP3    H235937   4.747   0.769  12.826  2.1025  0.7310  0.5196
 4816TIP3   OH235938   5.312   3.446  17.104 -0.3659  0.5214 -0.3922
 4816TIP3    H135939   5.239   3.405  17.149  0.3152  0.4337  0.6558
 4816TIP3    H235940   5.296   3.428  17.011 -0.2049 -1.9472 -0.0125
 4817TIP3   OH235941   1.563   6.704  13.713  0.2450  0.1472  0.5820
 4817TIP3    H135942   1.564   6.762  13.789  2.0210  2.5473 -1.1169
 4817TIP3    H235943   1.479   6.721  13.671 -0.2703 -0.3545  1.3965
 4818TIP3   OH235944   2.983   5.689  12.098 -0.0482 -0.1589 -0.8457
 4818TIP3    H135945   2.911   5.741  12.135  1.7521  0.3267  2.3747
 4818TIP3    H235946   3.005   5.735  12.017 -2.3701  0.5212 -1.1813
 4819TIP3   OH235947   3.019   5.682  12.789  0.2044  0.1656  0.1814
 4819TIP3    H135948   2.963   5.723  12.856  0.3704 -0.9939  1.0605
 4819TIP3    H235949   3.064   5.755  12.748  0.5032  0.8892  1.7155
 4820TIP3   OH235950   6.173   0.883   2.899  0.0039 -0.3716 -0.1996
 4820TIP3    H135951   6.159   0.970   2.862 -0.9688 -0.6971 -0.6436
 4820TIP3    H235952   6.235   0.897   2.971  2.4728  0.1600 -2.3099
 4821TIP3   OH235953   4.255   3.751   4.603 -0.5940 -0.5137  0.3224
 4821TIP3    H135954   4.177   3.738   4.657 -0.3072 -1.3813  0.5424
 4821TIP3    H235955   4.327   3.756   4.665 -0.3955 -0.3524  0.0825
 4822TIP3   OH235956   3.860   1.226  13.739  0.2550 -0.2965  0.2701
 4822TIP3    H135957   3.817   1.148  13.775 -0.3867  0.7942  1.9678
 4822TIP3    H235958   3.855   1.291  13.809 -0.2972  1.6847 -1.5077
 4823TIP3   OH235959   1.852   2.658   4.828  0.0075 -0.1174  0.2022
 4823TIP3    H135960   1.892   2.685   4.745  1.6601  0.7681  1.2317
 4823TIP3    H235961   1.765   2.697   4.826  0.4664  0.9263 -0.6106
 4824TIP3   OH235962   5.917   5.034  13.401 -0.0066  0.0226  0.1297
 4824TIP3    H135963   5.999   5.046  13.449 -0.2792  0.8420  0.3909
 4824TIP3    H235964   5.878   4.956  13.439  0.4374 -0.1198  0.3006
 4825TIP3   OH235965   5.743   0.288   1.389  0.3586  0.0508  0.0407
 4825TIP3    H135966   5.686   0.226   1.437  0.7919 -0.0532  0.4290
 4825TIP3    H235967   5.683   0.337   1.333 -0.3828  1.1331  1.6907
 4826TIP3   OH235968   2.716   0.219  13.906 -0.3343  0.2435 -0.4647
 4826TIP3    H135969   2.759   0.260  13.831 -0.4659 -0.0133 -0.6824
 4826TIP3    H235970   2.725   0.125  13.891 -1.1613  0.1787 -0.6361
 4827TIP3   OH235971   3.780   3.537   5.796 -0.8660 -0.5030 -0.1579
 4827TIP3    H135972   3.753   3.474   5.729 -0.1172  0.1185 -1.0780
 4827TIP3    H235973   3.697   3.573   5.829 -1.3404  1.3734 -2.9331
 4828TIP3   OH235974   1.473   5.497  14.899  0.5467  0.5860 -0.0408
 4828TIP3    H135975   1.495   5.404  14.909 -1.1247  0.3305  1.9736
 4828TIP3    H235976   1.441   5.505  14.810 -3.5163 -1.8471  0.9536
 4829TIP3   OH235977   3.838   4.226  17.230 -0.3981 -0.1414 -0.3707
 4829TIP3    H135978   3.784   4.175  17.292 -1.8423  2.4276  0.6264
 4829TIP3    H235979   3.776   4.282  17.185  1.1109  0.6422 -1.5449
 4830TIP3   OH235980   1.495   3.614   3.551 -0.2395  0.2620 -0.4468
 4830TIP3    H135981   1.499   3.536   3.606  1.1843 -0.3626 -1.3880
 4830TIP3    H235982   1.497   3.687   3.613  0.0456 -0.4281  0.3749
 4831TIP3   OH235983   4.088   4.458   0.358  0.7230  0.1273 -0.2678
 4831TIP3    H135984   4.104   4.525   0.424 -0.8180  1.0507 -0.7668
 4831TIP3    H235985   4.023   4.498   0.300  1.4873 -0.9279 -1.9222
 4832TIP3   OH235986   1.067   5.479  17.192 -0.7188  0.3482  0.0864
 4832TIP3    H135987   1.114   5.451  17.114  1.0278  0.7160  0.9529
 4832TIP3    H235988   0.974   5.477  17.167 -0.2379 -0.0992 -1.7827
 4833TIP3   OH235989   6.093   2.988   0.361 -0.0975 -0.1742  0.1171
 4833TIP3    H135990   6.048   2.908   0.388  1.1064 -0.9500 -0.1166
 4833TIP3    H235991   6.065   3.054   0.425 -0.7345 -0.8974  0.5968
 4834TIP3   OH235992   6.712   2.315  11.504 -0.3583 -0.3965  0.4661
 4834TIP3    H135993   6.777   2.353  11.444  0.4271  0.3054  1.7050
 4834TIP3    H235994   6.693   2.229  11.467  2.4889 -1.3155  0.8622
 4835TIP3   OH235995   0.972   1.817   4.824  0.3136 -0.3304 -0.0226
 4835TIP3    H135996   0.895   1.761   4.834  0.0802  0.3703  2.7035
 4835TIP3    H235997   1.044   1.756   4.809 -0.2499 -1.2324  0.8249
 4836TIP3   OH235998   5.126   3.288  16.517 -0.6651 -0.0111 -0.3271
 4836TIP3    H135999   5.065   3.303  16.445  2.5044  2.1226 -2.8539
 4836TIP3    H236000   5.209   3.325  16.487  1.7800 -2.0404  3.1180
 4837TIP3   OH236001   2.416   5.985   6.526 -0.0410 -0.2661  0.0929
 4837TIP3    H136002   2.325   6.011   6.539 -0.2211 -1.4908  1.4585
 4837TIP3    H236003   2.465   6.039   6.589  0.0179 -0.6039  0.3351
 4838TIP3   OH236004   2.744   4.000   6.240 -0.1119 -0.1695 -0.0272
 4838TIP3    H136005   2.752   3.923   6.183 -1.2079  0.4646 -1.0855
 4838TIP3    H236006   2.801   4.065   6.201 -0.7114  0.2034 -0.2876
 4839TIP3   OH236007   2.131   3.557  13.290  0.3433 -0.1203 -0.4038
 4839TIP3    H136008   2.078   3.586  13.216 -1.2495 -0.7630  0.4278
 4839TIP3    H236009   2.211   3.522  13.251 -0.8221 -1.2490 -1.9157
 4840TIP3   OH236010   0.146   4.218  11.732 -0.5010  0.2417 -0.2745
 4840TIP3    H136011   0.121   4.165  11.807  1.5199 -1.2417 -0.5478
 4840TIP3    H236012   0.159   4.306  11.768  1.2126 -0.5962  1.3531
 4841TIP3   OH236013   3.676   5.755  15.488 -0.1115 -0.3686 -0.2129
 4841TIP3    H136014   3.741   5.704  15.439 -1.4431 -1.3129 -1.0622
 4841TIP3    H236015   3.592   5.714  15.466 -1.2244  2.0030 -0.6595
 4842TIP3   OH236016   0.873   0.553  13.194  0.1784 -0.2022  0.7535
 4842TIP3    H136017   0.852   0.461  13.176 -0.6667  0.2863 -0.9136
 4842TIP3    H236018   0.864   0.597  13.110  0.3785  1.4564  1.5598
 4843TIP3   OH236019   1.703   2.219  14.850 -0.3114  0.2546 -0.2094
 4843TIP3    H136020   1.679   2.268  14.928  1.4440  1.7986 -0.5676
 4843TIP3    H236021   1.745   2.139  14.882 -1.5807 -0.1844  0.3919
 4844TIP3   OH236022   4.334   6.531   4.271 -0.7206  0.3825 -0.3025
 4844TIP3    H136023   4.304   6.622   4.275  0.1715  0.6656  0.1878
 4844TIP3    H236024   4.419   6.535   4.228 -0.8518 -0.2768 -0.6471
 4845TIP3   OH236025   4.391   4.646  13.514  0.2000 -0.4419 -0.0589
 4845TIP3    H136026   4.331   4.659  13.587 -0.8442 -0.1663 -0.9409
 4845TIP3    H236027   4.360   4.565  13.472 -0.8955  0.7850 -1.7449
 4846TIP3   OH236028   1.001   3.036   5.257  0.1477 -0.2215  0.5352
 4846TIP3    H136029   1.031   3.079   5.337 -0.9502  1.7401 -0.0314
 4846TIP3    H236030   1.044   3.084   5.186  1.5602 -2.2979 -0.0909
 4847TIP3   OH236031   2.829   6.559   4.639  0.0655 -0.2619  0.3788
 4847TIP3    H136032   2.805   6.640   4.595  0.3512 -0.7198 -0.6345
 4847TIP3    H236033   2.853   6.499   4.569  1.3565 -0.7446  1.1958
 4848TIP3   OH236034   5.120   4.022  11.850 -0.4016 -0.1454  0.6434
 4848TIP3    H136035   5.169   4.060  11.777 -0.0232 -0.0210  0.9588
 4848TIP3    H236036   5.058   3.962  11.809  1.1803 -1.6517  0.3244
 4849TIP3   OH236037   6.109   1.814   1.414  0.0910  0.1588  0.4257
 4849TIP3    H136038   6.067   1.845   1.334 -0.3236 -0.3973  0.4226
 4849TIP3    H236039   6.113   1.719   1.403 -2.1111 -0.1962  2.0574
 4850TIP3   OH236040   3.416   3.610  15.116  0.1099 -0.1096  0.7874
 4850TIP3    H136041   3.505   3.637  15.138 -0.7779  3.0292  1.0648
 4850TIP3    H236042   3.397   3.658  15.035 -1.8380  0.5248  1.5862
 4851TIP3   OH236043   1.161   3.311   2.182 -0.3762 -0.5288 -0.1508
 4851TIP3    H136044   1.215   3.233   2.190 -0.6305 -1.1106 -2.9819
 4851TIP3    H236045   1.220   3.384   2.201  0.5598 -1.3070 -0.0472
 4852TIP3   OH236046   3.413   3.888   4.156 -0.1796 -0.3017  0.3273
 4852TIP3    H136047   3.341   3.945   4.185  0.2746  0.2046  0.4774
 4852TIP3    H236048   3.492   3.937   4.178  0.2691 -1.5527  1.6857
 4853TIP3   OH236049   5.213   3.936   5.504 -0.5683 -0.4275 -0.1780
 4853TIP3    H136050   5.145   3.983   5.455  0.9386 -0.4802 -2.4949
 4853TIP3    H236051   5.200   3.844   5.481 -0.0342 -0.4874 -0.2612
 4854TIP3   OH236052   3.929   2.499  12.852 -0.2006  0.6611 -0.3189
 4854TIP3    H136053   3.965   2.562  12.790 -0.2521 -1.3694 -2.5773
 4854TIP3    H236054   3.835   2.500  12.835 -0.0812 -0.7945 -1.2218
 4855TIP3   OH236055   1.041   4.650   2.142  0.5164  0.1418  0.4130
 4855TIP3    H136056   1.003   4.598   2.212  0.5789 -1.2497 -0.5583
 4855TIP3    H236057   1.095   4.715   2.187 -0.4167  0.0757  1.6845
 4856TIP3   OH236058   6.060   2.265   1.819 -0.2769  0.2815  0.2368
 4856TIP3    H136059   6.127   2.206   1.784  0.4851  0.0033  2.0898
 4856TIP3    H236060   5.993   2.207   1.855 -1.5714  0.5575 -1.5715
 4857TIP3   OH236061   0.530   1.591   3.594  0.3923 -0.0899 -0.4290
 4857TIP3    H136062   0.624   1.599   3.610  0.0521  0.1175  1.7764
 4857TIP3    H236063   0.496   1.680   3.607 -0.3068 -0.4728  0.4853
 4858TIP3   OH236064   1.179   5.710  10.931  0.4152 -0.6517  0.0167
 4858TIP3    H136065   1.188   5.620  10.900 -1.3040 -0.3847 -1.4641
 4858TIP3    H236066   1.088   5.733  10.910  0.0204  0.5914  2.6885
 4859TIP3   OH236067   6.286   2.164  15.928  0.2833  0.4335 -0.1283
 4859TIP3    H136068   6.196   2.163  15.960  0.6985  1.1187  1.1050
 4859TIP3    H236069   6.278   2.138  15.836 -1.3087  1.5374 -0.3574
 4860TIP3   OH236070   1.528   0.219   1.084 -0.7057 -0.6052  0.2915
 4860TIP3    H136071   1.448   0.204   1.134 -0.6415 -1.7593  0.0791
 4860TIP3    H236072   1.571   0.292   1.128 -1.0287 -1.1065  1.4651
 4861TIP3   OH236073   3.814   4.914  16.934 -0.3410  0.1889  0.0586
 4861TIP3    H136074   3.776   4.982  16.878  0.1187  0.6241  0.2589
 4861TIP3    H236075   3.902   4.946  16.953  0.4087 -1.1453 -0.9914
 4862TIP3   OH236076   3.754   0.263   2.525  0.1822 -0.0743 -0.0708
 4862TIP3    H136077   3.704   0.260   2.606 -0.8159 -0.1928 -0.6789
 4862TIP3    H236078   3.833   0.313   2.548 -0.7603  1.1837  0.6044
 4863TIP3   OH236079   4.378   6.807  15.298 -0.0396  0.3644 -0.2569
 4863TIP3    H136080   4.303   6.859  15.271  0.4559  0.8463 -0.7535
 4863TIP3    H236081   4.347   6.716  15.296 -0.7973  0.6103  0.2281
 4864TIP3   OH236082   3.124   3.382   4.184  0.1835 -0.2285  0.0085
 4864TIP3    H136083   3.031   3.359   4.181  0.1948 -0.9266  2.6535
 4864TIP3    H236084   3.168   3.303   4.152 -0.1031 -0.1945 -0.4820
 4865TIP3   OH236085   2.864   3.565   0.557 -0.1900 -0.7483  0.4180
 4865TIP3    H136086   2.835   3.617   0.482 -0.3280 -0.1493  0.8819
 4865TIP3    H236087   2.784   3.539   0.601 -0.0716  1.4037  2.0363
 4866TIP3   OH236088   6.297   5.924   4.090 -0.2165 -0.3170 -0.3022
 4866TIP3    H136089   6.376   5.871   4.094 -0.2756 -0.3786  0.0499
 4866TIP3    H236090   6.328   6.014   4.096 -0.0655 -0.2727 -1.4914
 4867TIP3   OH236091   4.051   2.668   5.434 -0.7222 -0.9378 -0.4679
 4867TIP3    H136092   4.000   2.599   5.478 -0.5771 -0.1125  1.0355
 4867TIP3    H236093   4.138   2.629   5.422 -1.5793 -2.3468 -3.0247
 4868TIP3   OH236094   0.698   3.831  16.159  0.6050  0.0340  0.0500
 4868TIP3    H136095   0.605   3.842  16.179  0.6699  0.4317  0.1312
 4868TIP3    H236096   0.723   3.751  16.205 -0.3343 -1.5708 -2.0921
 4869TIP3   OH236097   5.640   2.948   4.905 -0.2117  0.1232 -0.0460
 4869TIP3    H136098   5.694   2.870   4.902  1.1422  1.0343 -0.2302
 4869TIP3    H236099   5.554   2.917   4.935  0.1770 -1.4666 -0.4956
 4870TIP3   OH236100   4.094   4.499  16.090 -0.2253 -0.0786 -0.9450
 4870TIP3    H136101   4.036   4.440  16.043 -0.3210  0.5369 -1.6173
 4870TIP3    H236102   4.159   4.442  16.131 -2.2184 -0.9540  1.2212
 4871TIP3   OH236103   5.432   0.174  11.145  0.6273  0.2029  0.4595
 4871TIP3    H136104   5.470   0.098  11.102 -0.3843  1.4478 -2.9308
 4871TIP3    H236105   5.493   0.245  11.125 -0.2523  0.9670  0.4358
 4872TIP3   OH236106   3.039   6.394  12.954 -0.7962 -0.7016  0.6167
 4872TIP3    H136107   2.960   6.389  13.008 -1.2156 -1.2108 -0.0321
 4872TIP3    H236108   3.010   6.437  12.873 -0.1402  0.1943  0.8397
 4873TIP3   OH236109   3.885   4.134   1.689  0.0235 -0.0105 -0.1425
 4873TIP3    H136110   3.899   4.173   1.775  1.3293 -0.0260 -0.3355
 4873TIP3    H236111   3.789   4.129   1.680 -0.1270  0.3444  1.1367
 4874TIP3   OH236112   3.691   0.116  11.996  0.3355  0.5735  0.9217
 4874TIP3    H136113   3.693   0.188  11.933  0.3906 -1.4917 -1.5600
 4874TIP3    H236114   3.600   0.112  12.025  0.1228  1.0124  0.3358
 4875TIP3   OH236115   3.667   3.864   0.553 -0.4370  0.4803 -0.0653
 4875TIP3    H136116   3.678   3.865   0.458 -1.4214  0.7905 -0.1765
 4875TIP3    H236117   3.751   3.830   0.585 -0.3275 -0.2680 -1.0731
 4876TIP3   OH236118   4.007   6.767   2.674 -0.4461  0.4131 -0.3919
 4876TIP3    H136119   3.995   6.813   2.758 -1.3587 -1.5784  0.6318
 4876TIP3    H236120   4.067   6.695   2.694 -1.0263 -0.3561 -1.3430
 4877TIP3   OH236121   3.546   4.876  10.430  0.4812 -0.4199 -0.3700
 4877TIP3    H136122   3.522   4.937  10.500 -0.3035 -0.6394 -0.4370
 4877TIP3    H236123   3.625   4.914  10.391  0.4558  0.1335  0.0975
 4878TIP3   OH236124   1.012   4.785  12.311 -0.1312  0.1097 -0.3095
 4878TIP3    H136125   1.075   4.830  12.366 -1.4366  1.8893 -0.1736
 4878TIP3    H236126   0.941   4.761  12.370 -0.6720  0.3036 -0.8671
 4879TIP3   OH236127   6.531   1.323  15.228 -0.1310  0.0834  0.2820
 4879TIP3    H136128   6.606   1.296  15.281  1.0150  0.1352 -1.2317
 4879TIP3    H236129   6.565   1.393  15.172 -1.7184  1.1293  0.5816
 4880TIP3   OH236130   3.838   2.382   4.067  0.1470  0.4849 -0.0341
 4880TIP3    H136131   3.877   2.409   3.983 -0.8355  1.1152 -0.3051
 4880TIP3    H236132   3.881   2.437   4.132 -0.8023  1.7133 -0.4170
 4881TIP3   OH236133   0.011   0.462   2.304 -0.4735  0.4605  0.2984
 4881TIP3    H136134   0.043   0.517   2.233 -1.2148  0.4689 -0.0456
 4881TIP3    H236135  -0.043   0.395   2.260  0.3871 -0.5305  0.7072
 4882TIP3   OH236136   4.197   2.486   3.682  0.0495  0.0651  0.3442
 4882TIP3    H136137   4.274   2.431   3.665 -0.3968 -0.8930  1.2857
 4882TIP3    H236138   4.233   2.569   3.712  0.7271 -0.4026  0.8584
 4883TIP3   OH236139   3.821   3.756   4.221 -0.0329  0.4734 -0.4406
 4883TIP3    H136140   3.872   3.682   4.188 -0.9655  0.4659 -1.9226
 4883TIP3    H236141   3.809   3.814   4.146  0.2010  1.8863  0.5520
 4884TIP3   OH236142   2.959   1.662   2.605  0.1694  0.7028  0.0403
 4884TIP3    H136143   2.981   1.718   2.531 -0.7688 -0.3241 -1.0480
 4884TIP3    H236144   3.027   1.595   2.606 -0.4426  0.0679 -0.5954
 4885TIP3   OH236145   6.406   0.251  17.079 -0.2884  0.4288 -0.1739
 4885TIP3    H136146   6.329   0.306  17.079 -0.5216  0.1220  0.6236
 4885TIP3    H236147   6.372   0.162  17.092  0.2552  0.4080  1.2421
 4886TIP3   OH236148   5.481   5.076  11.995 -0.1226 -0.5495 -0.1123
 4886TIP3    H136149   5.523   5.053  12.078 -1.8891  0.3546  1.1128
 4886TIP3    H236150   5.442   4.995  11.965 -0.7504 -0.5826  0.7482
 4887TIP3   OH236151   5.287   0.579   2.254 -0.1693  0.1280  0.0281
 4887TIP3    H136152   5.317   0.537   2.173  0.5355  0.3967  0.1441
 4887TIP3    H236153   5.192   0.582   2.245 -0.0104  2.5802 -2.0386
 4888TIP3   OH236154   6.472   3.769   2.273 -0.2926 -0.3686  0.1987
 4888TIP3    H136155   6.401   3.708   2.250  0.0048 -0.7346  0.2443
 4888TIP3    H236156   6.490   3.751   2.365  1.1839 -1.6568 -0.2955
 4889TIP3   OH236157   2.767   0.195  10.807  0.7071  0.2387 -0.1452
 4889TIP3    H136158   2.818   0.248  10.746 -1.3291 -0.1347 -2.3160
 4889TIP3    H236159   2.811   0.109  10.806  0.9318  0.3522 -0.8073
 4890TIP3   OH236160   5.686   5.997  14.016 -0.0740 -0.1787 -0.1773
 4890TIP3    H136161   5.623   6.046  13.962  0.0036 -0.1662 -0.2567
 4890TIP3    H236162   5.758   6.058  14.030  0.6456 -0.7096 -1.4081
 4891TIP3   OH236163   2.443   0.363   2.679  0.6429  0.1778 -0.5435
 4891TIP3    H136164   2.506   0.434   2.668 -0.2523  0.9258 -0.9109
 4891TIP3    H236165   2.367   0.390   2.629 -0.0708 -0.6111  0.0863
 4892TIP3   OH236166   0.162   2.888  17.286 -0.1541 -0.0003  0.0086
 4892TIP3    H136167   0.196   2.806  17.320 -2.4053 -1.1144 -0.2479
 4892TIP3    H236168   0.101   2.919  17.354 -0.9121  0.3501 -0.8082
 4893TIP3   OH236169   2.591   0.578  13.814  0.2216  0.1904  0.8923
 4893TIP3    H136170   2.557   0.552  13.728 -0.0696 -0.6074  1.2397
 4893TIP3    H236171   2.575   0.672  13.818  1.0454  0.4085 -0.2841
 4894TIP3   OH236172   4.449   0.642  10.659 -0.4187  0.3917 -1.0521
 4894TIP3    H136173   4.361   0.677  10.669 -0.7806 -0.4229 -1.2782
 4894TIP3    H236174   4.452   0.567  10.719 -0.1859 -0.1253 -1.7010
 4895TIP3   OH236175   0.418   2.028   5.708  0.1175  0.4682  0.6424
 4895TIP3    H136176   0.463   2.106   5.739 -1.0362  0.9529  1.1549
 4895TIP3    H236177   0.326   2.043   5.729 -0.7244  0.6106 -2.5250
 4896TIP3   OH236178   3.661   5.697  16.178 -1.2027 -0.2526  0.2009
 4896TIP3    H136179   3.755   5.713  16.171 -0.9107 -0.8143  2.0974
 4896TIP3    H236180   3.620   5.776  16.142 -0.0217  0.0011 -0.6371
 4897TIP3   OH236181   4.681   1.781  16.178  0.2783  0.7308 -0.0718
 4897TIP3    H136182   4.617   1.774  16.250  0.4889 -0.6668  0.0073
 4897TIP3    H236183   4.766   1.784  16.222  0.3623  0.6799 -0.2323
 4898TIP3   OH236184   6.342   2.175   6.243  0.4594 -0.3346 -0.1603
 4898TIP3    H136185   6.312   2.259   6.210  0.0848 -0.5300 -0.3189
 4898TIP3    H236186   6.438   2.179   6.235  0.4613  0.1757  0.0893
 4899TIP3   OH236187   4.957   0.078   0.588 -0.3020  0.3813 -0.4887
 4899TIP3    H136188   4.960   0.154   0.647  1.2407 -0.2611  0.3058
 4899TIP3    H236189   5.040   0.079   0.542 -1.1037  0.3178 -2.0004
 4900TIP3   OH236190   5.734   5.142   2.859 -0.4036 -0.4041 -0.5743
 4900TIP3    H136191   5.773   5.103   2.780 -1.8957 -0.6321 -1.2366
 4900TIP3    H236192   5.665   5.199   2.826  0.2061  1.0226  0.5074
 4901TIP3   OH236193   2.172   5.850   5.020  0.1410 -0.1472  0.3858
 4901TIP3    H136194   2.165   5.917   4.952 -1.1906 -2.5059 -1.9787
 4901TIP3    H236195   2.266   5.842   5.037  0.3727  1.7813  0.2781
 4902TIP3   OH236196   6.391   1.276   1.054 -0.1490 -0.1402 -0.4892
 4902TIP3    H136197   6.362   1.363   1.026  0.1706  0.1404  0.0279
 4902TIP3    H236198   6.486   1.281   1.054 -0.1144 -0.6801 -1.0214
 4903TIP3   OH236199   5.078   4.033   3.505 -0.6871  0.2618  0.4627
 4903TIP3    H136200   5.024   4.108   3.529  0.5218  1.3417 -0.1062
 4903TIP3    H236201   5.027   3.988   3.437  0.0586  2.5963 -1.8086
 4904TIP3   OH236202   6.628   5.520   4.412 -0.3589  0.1478  0.3656
 4904TIP3    H136203   6.658   5.430   4.401  0.7160  0.5398 -0.0576
 4904TIP3    H236204   6.595   5.523   4.502  2.3627  0.0631  1.4658
 4905TIP3   OH236205   3.540   2.182   3.093 -0.3823  0.0005 -0.0292
 4905TIP3    H136206   3.610   2.238   3.060 -0.7930 -1.8156 -4.7965
 4905TIP3    H236207   3.467   2.197   3.033 -1.6075 -3.1651  0.4718
 4906TIP3   OH236208   2.426   4.072   4.623  0.1083  0.0924 -0.1757
 4906TIP3    H136209   2.360   4.052   4.557  0.1228 -0.5812  0.0094
 4906TIP3    H236210   2.379   4.124   4.689  0.0247  0.5146 -0.5660
 4907TIP3   OH236211   2.620   4.476  11.409  0.5577 -0.3757  0.5915
 4907TIP3    H136212   2.577   4.415  11.469  0.9423 -1.9130 -0.6086
 4907TIP3    H236213   2.558   4.547  11.397  0.2545 -0.3123  2.3581
 4908TIP3   OH236214   3.462   0.626  15.592 -0.1304  0.1680 -0.0273
 4908TIP3    H136215   3.386   0.680  15.611  0.5416  0.5118  1.8999
 4908TIP3    H236216   3.517   0.680  15.535 -1.0182  0.1526 -0.9211
 4909TIP3   OH236217   6.734   6.573   4.255  0.4556  0.0512  0.0244
 4909TIP3    H136218   6.700   6.526   4.332  0.1513 -0.9535 -0.7058
 4909TIP3    H236219   6.671   6.555   4.186  1.6433 -0.5560 -0.9469
 4910TIP3   OH236220   6.289   5.140   4.901  0.1342  0.2981  0.4114
 4910TIP3    H136221   6.369   5.103   4.862 -0.9201 -1.5674 -0.1233
 4910TIP3    H236222   6.283   5.098   4.987 -0.8936 -0.5375 -0.0481
 4911TIP3   OH236223   0.623   2.457   2.272 -0.2463 -0.3600 -0.0672
 4911TIP3    H136224   0.652   2.548   2.273 -1.6187  0.1043  0.4640
 4911TIP3    H236225   0.584   2.444   2.359  2.2396 -2.2799  0.8782
 4912TIP3   OH236226   4.581   1.668   5.595  0.1184 -0.0248  0.0036
 4912TIP3    H136227   4.499   1.715   5.612 -0.1486  0.3822 -2.1442
 4912TIP3    H236228   4.584   1.600   5.662 -2.1176 -0.2152 -0.0214
 4913TIP3   OH236229   6.498   5.730   1.525 -0.5629  0.2023  0.1055
 4913TIP3    H136230   6.477   5.697   1.612  0.8784  1.0686  0.8174
 4913TIP3    H236231   6.513   5.652   1.472  2.6034 -0.4360  1.6922
 4914TIP3   OH236232   5.065   5.723   4.129 -0.2073 -0.2344  0.7779
 4914TIP3    H136233   5.073   5.749   4.037 -0.7767 -1.2582  0.4198
 4914TIP3    H236234   5.149   5.682   4.150  0.8700  2.1888  1.4829
 4915TIP3   OH236235   3.197   2.032   5.909 -0.2419 -0.4725 -0.7998
 4915TIP3    H136236   3.173   2.090   5.981 -0.3698 -2.1316  0.5605
 4915TIP3    H236237   3.123   1.973   5.899  0.4345 -1.2835 -1.2090
 4916TIP3   OH236238   4.736   6.010  14.855  0.7429  0.0111  0.7999
 4916TIP3    H136239   4.698   6.095  14.880  0.6817 -0.3590  2.0545
 4916TIP3    H236240   4.704   5.994  14.766  0.6078  1.2140  0.6209
 4917TIP3   OH236241   3.420   1.733  12.264  0.1983  0.0758  0.2123
 4917TIP3    H136242   3.493   1.795  12.275  0.2930 -0.1665  1.0157
 4917TIP3    H236243   3.416   1.718  12.170 -0.2731  1.8378 -0.0796
 4918TIP3   OH236244   1.450   6.121  14.802 -0.3914  0.8872  0.3533
 4918TIP3    H136245   1.398   6.069  14.740 -1.0762  0.9965  0.8204
 4918TIP3    H236246   1.403   6.113  14.885  0.5096  0.7490  0.8662
 4919TIP3   OH236247   1.074   6.510  12.516  0.2570  0.0175  0.0075
 4919TIP3    H136248   1.002   6.456  12.548  1.5870 -2.0823 -0.3861
 4919TIP3    H236249   1.132   6.520  12.592  0.6960 -0.2914 -0.2828
 4920TIP3   OH236250   2.483   0.765  12.862 -0.0053 -0.0388 -0.0996
 4920TIP3    H136251   2.515   0.676  12.879 -0.3440 -0.4941 -1.7494
 4920TIP3    H236252   2.473   0.804  12.950  1.4890 -1.1330  0.5892
 4921TIP3   OH236253   1.824   5.608   5.086 -0.4311 -0.5493  0.0072
 4921TIP3    H136254   1.749   5.627   5.029 -1.1589 -0.8856  0.8402
 4921TIP3    H236255   1.812   5.517   5.112  0.1343 -0.5315  0.3457
 4922TIP3   OH236256   0.850   5.813  14.069 -0.1401  0.1837 -0.2074
 4922TIP3    H136257   0.795   5.869  14.014 -0.1467  0.0050 -0.3812
 4922TIP3    H236258   0.833   5.724  14.038  0.3234  0.1341 -0.3321
 4923TIP3   OH236259   3.958   6.796  11.597  0.7912 -0.4578  0.0789
 4923TIP3    H136260   4.050   6.775  11.611  0.4659 -0.8206  1.9122
 4923TIP3    H236261   3.910   6.725  11.641 -0.3911 -0.9554 -1.8927
 4924TIP3   OH236262   5.667   6.297   2.635 -0.0738 -0.2302  0.4238
 4924TIP3    H136263   5.576   6.266   2.638 -0.0661 -0.5066 -1.3500
 4924TIP3    H236264   5.659   6.392   2.623 -0.1195 -0.2430  0.3524
 4925TIP3   OH236265   4.580   3.359  11.191 -0.4514 -0.0317 -0.3021
 4925TIP3    H136266   4.506   3.342  11.134 -1.3029 -0.8172  0.9995
 4925TIP3    H236267   4.614   3.272  11.213 -0.5304  0.2152  0.8618
 4926TIP3   OH236268   0.623   3.007   4.181 -0.0724  0.4408 -0.1394
 4926TIP3    H136269   0.661   2.936   4.232 -1.4951 -0.1122  0.1881
 4926TIP3    H236270   0.633   3.084   4.237  4.1022  1.2690 -1.6153
 4927TIP3   OH236271   4.517   6.402  10.235 -0.1252  0.2765 -0.1710
 4927TIP3    H136272   4.430   6.401  10.195 -1.4418  1.3061  2.4305
 4927TIP3    H236273   4.528   6.314  10.271 -0.6027  0.4550  0.4339
 4928TIP3   OH236274   5.682   3.548  13.719 -0.2782  0.2827 -0.3730
 4928TIP3    H136275   5.735   3.470  13.732 -0.7366 -0.0164 -0.2803
 4928TIP3    H236276   5.682   3.592  13.804  1.2174  1.1823 -0.7992
 4929TIP3   OH236277   0.758   3.480   1.466  0.3277  0.3901  0.1967
 4929TIP3    H136278   0.764   3.506   1.558 -0.8782  1.0912  0.1056
 4929TIP3    H236279   0.753   3.563   1.418 -0.1894  0.0238 -0.3992
 4930TIP3   OH236280   6.372   4.510  16.677  0.3596 -0.2965 -0.3362
 4930TIP3    H136281   6.440   4.447  16.700  1.6781  0.8867 -0.8233
 4930TIP3    H236282   6.343   4.546  16.760  0.6680 -0.4808 -0.1466
 4931TIP3   OH236283   5.230   5.812  12.938 -0.1223 -0.0454  0.5244
 4931TIP3    H136284   5.314   5.858  12.935  0.6976 -1.5122 -0.0745
 4931TIP3    H236285   5.247   5.734  12.990 -0.6862 -1.1378 -0.8595
 4932TIP3   OH236286   0.732   4.816  16.573 -0.0825 -0.2769  0.4544
 4932TIP3    H136287   0.736   4.854  16.485  0.1072  0.4387  0.7671
 4932TIP3    H236288   0.639   4.809  16.592 -0.1300 -0.7363  0.0724
 4933TIP3   OH236289   4.883   2.152   5.165  0.5158  0.7735  0.3927
 4933TIP3    H136290   4.869   2.240   5.200 -0.0652  0.8754 -0.0633
 4933TIP3    H236291   4.929   2.105   5.235 -0.7967  0.9013  1.3887
 4934TIP3   OH236292   3.825   1.454   6.782  0.0785 -0.0691 -0.2030
 4934TIP3    H136293   3.903   1.495   6.819 -0.0893  0.1184 -0.0469
 4934TIP3    H236294   3.772   1.528   6.752 -1.0165 -0.0242  1.6349
 4935TIP3   OH236295   6.285   2.192  11.321 -0.2156  0.3132  0.0865
 4935TIP3    H136296   6.226   2.144  11.263  0.5394 -0.1197 -0.3508
 4935TIP3    H236297   6.292   2.279  11.282 -0.4650  0.3221  0.0632
 4936TIP3   OH236298   6.347   5.132   2.027  0.1659 -0.1959  0.1481
 4936TIP3    H136299   6.367   5.045   1.991  1.2417  0.0440  0.1194
 4936TIP3    H236300   6.377   5.128   2.118  2.2095  0.7657 -0.4176
 4937TIP3   OH236301   5.417   3.553   3.941 -0.4107 -0.4592 -0.0810
 4937TIP3    H136302   5.388   3.586   3.856 -1.9063 -2.6838 -0.5309
 4937TIP3    H236303   5.390   3.620   4.004  0.2720  0.9855 -1.2794
 4938TIP3   OH236304   6.535   1.761   1.520  0.0616 -0.2362  0.4786
 4938TIP3    H136305   6.621   1.772   1.480  0.1062 -0.6043  0.4667
 4938TIP3    H236306   6.506   1.675   1.489 -0.8834  0.4433 -0.5956
 4939TIP3   OH236307   6.330   1.737   6.219  0.2929 -0.0752  0.3022
 4939TIP3    H136308   6.325   1.711   6.127 -1.9540 -0.3212  0.4336
 4939TIP3    H236309   6.415   1.705   6.249  0.1237 -1.9953 -1.1000
 4940TIP3   OH236310   1.866   1.482  12.094  0.2983  0.6398 -0.1550
 4940TIP3    H136311   1.885   1.395  12.129  0.6597  0.2834 -1.2046
 4940TIP3    H236312   1.782   1.505  12.132  0.4569  0.0728  0.5687
 4941TIP3   OH236313   6.052   4.178  13.742  0.3721  0.3369 -0.1428
 4941TIP3    H136314   5.958   4.181  13.728  0.1852  0.4032  1.0133
 4941TIP3    H236315   6.089   4.227  13.668 -0.5185  0.6289 -0.4021
 4942TIP3   OH236316   2.384   3.802  15.657  0.3069 -0.0724 -0.2745
 4942TIP3    H136317   2.380   3.714  15.695  0.6113 -0.0294 -0.1403
 4942TIP3    H236318   2.470   3.805  15.613  1.3463  0.9609  1.6966
 4943TIP3   OH236319   3.041   6.280  11.267 -0.0873  0.0694 -0.4098
 4943TIP3    H136320   3.001   6.331  11.196 -1.9709  0.4540  0.8523
 4943TIP3    H236321   3.083   6.345  11.323  1.5558 -0.2495 -1.2109
 4944TIP3   OH236322   2.823   4.972   5.455  0.2343 -0.2339 -0.2076
 4944TIP3    H136323   2.874   5.051   5.436 -1.1334  0.6596 -0.2765
 4944TIP3    H236324   2.852   4.946   5.542 -0.8359  1.6404  0.7857
 4945TIP3   OH236325   3.782   3.220   3.635 -0.0009 -0.1707  0.1136
 4945TIP3    H136326   3.773   3.288   3.702  1.2391 -0.7698  0.9065
 4945TIP3    H236327   3.875   3.221   3.612 -0.2750 -0.4652 -1.1069
 4946TIP3   OH236328   3.558   2.755  13.102  1.0077 -0.1364  0.4949
 4946TIP3    H136329   3.462   2.749  13.097  0.9312  1.5032 -0.7132
 4946TIP3    H236330   3.583   2.681  13.157 -0.6527 -2.8601 -2.1205
 4947TIP3   OH236331   5.473   2.435   1.231 -0.5563 -0.5798  0.1166
 4947TIP3    H136332   5.411   2.486   1.179  0.7405  0.7109 -0.2114
 4947TIP3    H236333   5.482   2.352   1.183 -2.9834 -1.3652  0.8673
 4948TIP3   OH236334   3.277   4.328   4.024  0.0815 -0.1674 -0.2506
 4948TIP3    H136335   3.231   4.384   3.961  1.4733  1.2379 -0.0778
 4948TIP3    H236336   3.263   4.371   4.109 -0.4395 -1.1677  0.1870
 4949TIP3   OH236337   6.172   6.785  15.684  0.2348 -0.7144 -0.3110
 4949TIP3    H136338   6.171   6.691  15.670 -1.1912 -0.7372 -0.1870
 4949TIP3    H236339   6.084   6.814  15.661  0.2331  0.3864  0.9388
 4950TIP3   OH236340   0.379   6.810  11.795  0.1692 -0.2092  0.3576
 4950TIP3    H136341   0.439   6.771  11.732  1.0269 -0.5154  1.3261
 4950TIP3    H236342   0.368   6.743  11.863  0.9084  0.8425  1.5679
 4951TIP3   OH236343   5.009   1.951   0.278  0.0929 -0.0191 -1.0531
 4951TIP3    H136344   5.050   1.958   0.364 -1.2325  0.4749 -0.4368
 4951TIP3    H236345   5.072   1.990   0.218  0.8469  0.0320 -0.2479
 4952TIP3   OH236346   2.829   1.889  13.620  0.1730 -0.7305  0.4613
 4952TIP3    H136347   2.797   1.868  13.532 -0.4382 -0.7645  0.6844
 4952TIP3    H236348   2.780   1.968  13.645  2.7935  1.3394 -0.5613
 4953TIP3   OH236349   4.755   3.392  15.847  0.0394 -0.0126 -0.3666
 4953TIP3    H136350   4.700   3.457  15.889 -2.1134 -2.6078  1.0976
 4953TIP3    H236351   4.810   3.358  15.917  1.4010  0.3828 -1.1926
 4954TIP3   OH236352   0.066   3.755  14.503 -0.4881 -0.0136 -0.2200
 4954TIP3    H136353   0.009   3.825  14.470  0.2707  0.4441 -0.5849
 4954TIP3    H236354   0.128   3.739  14.432 -0.1754 -0.5251  0.1585
 4955TIP3   OH236355   6.565   0.584   7.234 -0.3547  0.3068 -0.4351
 4955TIP3    H136356   6.606   0.648   7.292  0.3402 -1.2897  0.9365
 4955TIP3    H236357   6.472   0.587   7.258 -0.2324  0.3927  0.0547
 4956TIP3   OH236358   5.139   6.151   2.568  0.3172 -0.3199  0.5430
 4956TIP3    H136359   5.123   6.062   2.600  0.5247  0.3201  2.5561
 4956TIP3    H236360   5.055   6.180   2.534  0.2315 -1.2403 -0.0839
 4957TIP3   OH236361   6.067   6.114  11.684  0.5772  0.1444  0.6015
 4957TIP3    H136362   6.058   6.177  11.613  1.1189  2.2781  2.2947
 4957TIP3    H236363   6.155   6.078  11.673  0.2388 -0.3895 -0.4283
 4958TIP3   OH236364   1.222   1.308  13.896  0.3032 -0.4038  0.8461
 4958TIP3    H136365   1.134   1.275  13.910  0.3784 -0.7296  0.5573
 4958TIP3    H236366   1.223   1.337  13.805  0.4647 -0.3017  0.8776
 4959TIP3   OH236367   2.123   2.540  14.496 -0.1490  0.5631 -0.3621
 4959TIP3    H136368   2.035   2.568  14.518 -0.3836  0.1991 -0.8263
 4959TIP3    H236369   2.153   2.604  14.431 -0.2280  0.4354 -0.5228
 4960TIP3   OH236370   0.105   5.458  14.519 -0.0937  0.2659  0.1813
 4960TIP3    H136371   0.155   5.400  14.577 -1.0657 -1.4150 -0.6006
 4960TIP3    H236372   0.078   5.402  14.446 -1.3161  1.6463 -0.4781
 4961TIP3   OH236373   0.438   3.251   3.721 -0.1284  0.8144 -0.5967
 4961TIP3    H136374   0.487   3.326   3.755 -1.8591  2.9341 -2.4573
 4961TIP3    H236375   0.484   3.227   3.640  1.8915 -1.9168  1.1663
 4962TIP3   OH236376   0.294   2.241  13.993  0.2086 -0.1706 -0.4195
 4962TIP3    H136377   0.366   2.227  14.055  1.3328  0.6936 -1.4806
 4962TIP3    H236378   0.266   2.153  13.968  1.4846 -0.5430 -0.6262
 4963TIP3   OH236379   1.186   3.529  12.862 -0.3683 -0.2048  0.2458
 4963TIP3    H136380   1.197   3.561  12.951  1.2602  0.5924 -0.1988
 4963TIP3    H236381   1.126   3.592  12.820 -1.3727 -0.7469  0.8254
 4964TIP3   OH236382   0.125   0.803   5.366  0.1301 -0.1485  0.4747
 4964TIP3    H136383   0.147   0.829   5.455  1.3401  0.5797 -0.0057
 4964TIP3    H236384   0.113   0.885   5.319  0.3310 -0.5098 -0.2251
 4965TIP3   OH236385   3.975   2.029   2.295  0.5148 -0.2003 -0.4222
 4965TIP3    H136386   3.993   1.975   2.372  1.8672 -0.2201 -0.7253
 4965TIP3    H236387   3.949   2.114   2.331  2.3982  0.2064  0.1192
 4966TIP3   OH236388   4.586   5.369  10.722 -0.1874  0.3531 -0.2439
 4966TIP3    H136389   4.553   5.429  10.789  0.2143  0.1661  0.1206
 4966TIP3    H236390   4.509   5.318  10.697 -0.8328  1.8350 -1.4570
 4967TIP3   OH236391   4.118   0.402  12.797 -0.3691  0.2156  0.3941
 4967TIP3    H136392   4.152   0.327  12.846 -0.0824 -1.8961 -2.7045
 4967TIP3    H236393   4.195   0.455  12.778  0.9879 -2.6757 -3.5283
 4968TIP3   OH236394   4.258   1.601   2.010 -0.1548 -0.0174  0.0094
 4968TIP3    H136395   4.197   1.667   1.980  0.7410  0.3656 -1.0317
 4968TIP3    H236396   4.284   1.554   1.931 -0.3721 -1.2773  0.6618
 4969TIP3   OH236397   1.084   2.354   2.990 -0.5843  0.2820  0.0461
 4969TIP3    H136398   1.175   2.356   3.018 -0.6881 -0.0291  0.4150
 4969TIP3    H236399   1.036   2.322   3.066 -0.7208 -1.9295 -0.8815
 4970TIP3   OH236400   3.720   2.672  17.077 -0.3488 -0.0623 -0.1623
 4970TIP3    H136401   3.763   2.730  17.140 -0.7298 -2.2811  2.3334
 4970TIP3    H236402   3.627   2.691  17.086 -0.3198  0.6958 -1.2734
 4971TIP3   OH236403   5.240   6.016   0.832  0.6126  0.2585  0.0335
 4971TIP3    H136404   5.173   5.983   0.892  0.3655  0.2576 -0.2381
 4971TIP3    H236405   5.197   6.088   0.785  0.3187 -0.6534 -1.1602
 4972TIP3   OH236406   6.036   0.041   3.566 -0.2947  0.0563 -0.7754
 4972TIP3    H136407   6.004   0.129   3.547 -0.5869  0.0161 -0.4749
 4972TIP3    H236408   6.113   0.031   3.510 -0.0181  0.6622 -0.5142
 4973TIP3   OH236409   0.464   0.864   1.101  0.1048  0.1023 -0.2269
 4973TIP3    H136410   0.495   0.949   1.070  1.2508 -0.4968 -0.7746
 4973TIP3    H236411   0.536   0.804   1.085  0.0725 -0.6193  1.9705
 4974TIP3   OH236412   4.234   0.800   2.950 -0.2499 -0.1305 -0.5973
 4974TIP3    H136413   4.294   0.743   2.902 -1.8517 -1.7607 -0.8079
 4974TIP3    H236414   4.269   0.802   3.039  1.5865  1.2067 -1.3086
 4975TIP3   OH236415   6.299   5.936  15.460  0.4084  0.2310 -0.5765
 4975TIP3    H136416   6.325   5.865  15.519  1.7526  0.3352 -1.0050
 4975TIP3    H236417   6.374   5.995  15.459  0.0683  0.6753 -1.7285
 4976TIP3   OH236418   0.037   0.973  11.471 -0.5468 -0.2053  0.0019
 4976TIP3    H136419   0.031   0.978  11.376 -0.4003  2.1650  0.0639
 4976TIP3    H236420   0.069   0.884  11.488  0.5714 -0.2973 -2.2046
 4977TIP3   OH236421   6.702   4.630  17.055  1.2206 -0.2955  0.6195
 4977TIP3    H136422   6.667   4.665  16.973  2.1155  2.1697  1.1928
 4977TIP3    H236423   6.787   4.673  17.065  1.0655 -0.3785  2.9197
 4978TIP3   OH236424   5.660   3.801  12.258 -0.1457 -0.6779  0.3534
 4978TIP3    H136425   5.703   3.788  12.173  2.2934 -0.8575  1.5332
 4978TIP3    H236426   5.659   3.714  12.298  0.0196 -0.3630  1.0572
 4979TIP3   OH236427   0.867   1.180   3.850 -0.3207 -0.0824 -0.1805
 4979TIP3    H136428   0.817   1.213   3.924  0.7933  0.3292  0.4060
 4979TIP3    H236429   0.954   1.161   3.885  0.0692 -0.4107 -1.2565
 4980TIP3   OH236430   4.576   6.656   5.637  0.1235 -0.4290  0.2588
 4980TIP3    H136431   4.595   6.730   5.696 -1.5137 -0.4088  0.8015
 4980TIP3    H236432   4.581   6.694   5.549 -1.3631  0.5401  0.5496
 4981TIP3   OH236433   1.025   0.092  12.915  0.2263 -0.4732 -0.2510
 4981TIP3    H136434   1.110   0.083  12.959  0.5915 -0.0156 -0.8356
 4981TIP3    H236435   0.965   0.037  12.966  0.9803 -1.1818 -0.0993
 4982TIP3   OH236436   0.224   1.463  15.767  0.0948 -0.3437 -0.1705
 4982TIP3    H136437   0.284   1.522  15.722  0.2896 -0.7593 -0.4574
 4982TIP3    H236438   0.279   1.417  15.831 -0.4380  1.3040  1.5579
 4983TIP3   OH236439   0.129   0.530  13.576  0.1141  0.2644 -0.1312
 4983TIP3    H136440   0.116   0.542  13.670  1.0169  0.4226 -0.0211
 4983TIP3    H236441   0.081   0.450  13.555  2.0927 -1.3098  0.9932
 4984TIP3   OH236442   0.905   6.606   3.675 -0.1877 -0.0480 -0.0386
 4984TIP3    H136443   0.823   6.567   3.704  0.2832 -0.3956  0.8713
 4984TIP3    H236444   0.969   6.535   3.685  0.5601  0.7529  0.9833
 4985TIP3   OH236445   2.202   1.269  15.485  0.1391  0.3541  0.2797
 4985TIP3    H136446   2.178   1.192  15.537 -0.9948  1.5221  1.6121
 4985TIP3    H236447   2.121   1.295  15.442  0.4165  0.9844  0.1231
 4986TIP3   OH236448   4.558   6.027   1.625  0.4522  0.0387 -0.2221
 4986TIP3    H136449   4.494   5.997   1.689 -0.8118  1.7244 -0.6209
 4986TIP3    H236450   4.596   6.106   1.665  2.3236 -0.9277  0.0052
 4987TIP3   OH236451   4.958   6.430   4.851  0.6532  0.1642 -0.1326
 4987TIP3    H136452   4.880   6.475   4.820 -0.3495 -0.2530  1.6870
 4987TIP3    H236453   4.933   6.338   4.857  1.2269  0.0510  0.6429
 4988TIP3   OH236454   4.757   1.209  15.405 -0.0009 -0.0712 -0.5611
 4988TIP3    H136455   4.705   1.282  15.438  0.9330  0.8463 -1.0769
 4988TIP3    H236456   4.846   1.244  15.398  0.5457 -1.3737 -0.4414
 4989TIP3   OH236457   2.367   6.159   2.388 -0.1405  0.4409 -0.0264
 4989TIP3    H136458   2.342   6.187   2.476 -1.7621  0.8311 -0.5761
 4989TIP3    H236459   2.428   6.086   2.403 -3.2866 -2.1603  1.5402
 4990TIP3   OH236460   4.700   1.134  11.825 -0.0376 -0.6355 -0.8202
 4990TIP3    H136461   4.725   1.130  11.917 -1.4678 -2.1655 -0.4537
 4990TIP3    H236462   4.611   1.170  11.826  0.3037  0.2835 -1.6994
 4991TIP3   OH236463   6.057   2.208   0.222  0.2908  0.7518  0.4675
 4991TIP3    H136464   6.051   2.151   0.299  0.2768  2.2378  1.6287
 4991TIP3    H236465   5.998   2.169   0.158  0.8463 -0.9185  0.9278
 4992TIP3   OH236466   4.636   1.822  13.627 -0.1751 -0.2721  0.6609
 4992TIP3    H136467   4.646   1.740  13.579 -2.0813 -0.8754  1.2143
 4992TIP3    H236468   4.681   1.807  13.710  1.7530  0.2239 -0.2176
 4993TIP3   OH236469   6.401   0.387   0.063  0.0774  0.2920 -0.5015
 4993TIP3    H136470   6.467   0.457   0.067  0.7213 -0.1804 -2.0592
 4993TIP3    H236471   6.431   0.330  -0.008 -1.4496 -0.5396 -0.5152
 4994TIP3   OH236472   6.679   3.189  10.783  0.1366 -0.6212 -0.3897
 4994TIP3    H136473   6.760   3.239  10.779 -0.1318 -0.2185 -0.7972
 4994TIP3    H236474   6.610   3.252  10.761 -0.4328 -0.6259  1.2087
 4995TIP3   OH236475   4.783   2.665  15.561  0.1689 -0.2727 -0.4735
 4995TIP3    H136476   4.712   2.720  15.528  1.4755  0.9405 -1.4007
 4995TIP3    H236477   4.791   2.688  15.653 -1.3545 -1.2660 -0.0566
 4996TIP3   OH236478   4.331   6.604  16.771  0.0360  0.6382  0.3849
 4996TIP3    H136479   4.240   6.607  16.800  0.2226  1.1709  0.9256
 4996TIP3    H236480   4.351   6.693  16.741  0.5809  0.7013  0.9101
 4997TIP3   OH236481   0.264   5.473  14.975 -0.1054  0.1712  0.4493
 4997TIP3    H136482   0.323   5.531  14.926  0.9637 -0.8041  0.5450
 4997TIP3    H236483   0.203   5.441  14.909 -0.6766  1.3336  0.3832
 4998TIP3   OH236484   3.581   6.709  14.299 -0.2473  0.2881  0.9519
 4998TIP3    H136485   3.671   6.723  14.270 -0.2223  0.2952  1.0305
 4998TIP3    H236486   3.558   6.623  14.266 -0.4857  0.6169  0.2537
 4999TIP3   OH236487   1.866   2.195  17.053  0.1772 -0.2755  0.0032
 4999TIP3    H136488   1.936   2.153  17.104 -0.8143 -1.0488  0.7698
 4999TIP3    H236489   1.788   2.184  17.107 -0.3757  1.3892 -0.4177
 5000TIP3   OH236490   2.419   6.668   5.698 -0.2831  0.1187 -0.3355
 5000TIP3    H136491   2.497   6.718   5.675  0.6850 -0.6582  1.1233
 5000TIP3    H236492   2.452   6.592   5.746 -1.7522 -1.6451 -1.9525
 5001TIP3   OH236493   5.356   0.380   0.277  0.3466 -0.6010 -0.1434
 5001TIP3    H136494   5.404   0.463   0.277 -0.5066 -0.0783  0.5725
 5001TIP3    H236495   5.348   0.358   0.370  0.3363 -1.3516 -0.3230
 5002TIP3   OH236496   5.049   3.528   0.021 -0.0253 -0.6217  0.0926
 5002TIP3    H136497   5.099   3.597  -0.023  0.1051 -2.1066 -2.2425
 5002TIP3    H236498   5.111   3.490   0.084  1.2029 -1.1609 -1.3901
 5003TIP3   OH236499   1.637   2.576  14.693 -0.1528  0.6692  0.5908
 5003TIP3    H136500   1.632   2.605  14.784 -2.3800  1.9058  0.1274
 5003TIP3    H236501   1.570   2.508  14.686 -0.9985  1.5848 -0.4477
 5004TIP3   OH236502   1.881   3.740   1.695  0.0882 -0.1852  0.5794
 5004TIP3    H136503   1.863   3.648   1.675 -1.7269 -0.0374  1.3687
 5004TIP3    H236504   1.798   3.785   1.680  0.0496  0.7996  3.2657
 5005TIP3   OH236505   4.386   5.643  13.758 -0.3130 -0.4231 -0.2499
 5005TIP3    H136506   4.301   5.608  13.783 -0.2811 -0.5634 -0.3365
 5005TIP3    H236507   4.442   5.566  13.749 -0.0231 -0.2901  0.3757
 5006TIP3   OH236508   3.448   1.226  15.022  0.6429  0.1511 -0.4767
 5006TIP3    H136509   3.397   1.211  15.102 -0.1523 -0.9995 -1.1775
 5006TIP3    H236510   3.508   1.297  15.045  0.5953 -0.3177  1.2248
 5007TIP3   OH236511   0.135   2.347   5.303 -0.1046 -0.4884  0.3680
 5007TIP3    H136512   0.084   2.277   5.263  0.6677 -0.4738 -0.7019
 5007TIP3    H236513   0.206   2.364   5.240  0.3144  0.5462  1.0841
 5008TIP3   OH236514   3.952   3.759  16.428  0.1449 -0.0613  0.2122
 5008TIP3    H136515   3.919   3.694  16.490 -1.1103  1.9244  1.7593
 5008TIP3    H236516   4.041   3.778  16.458  0.2588 -0.5597  0.1890
 5009TIP3   OH236517   6.501   6.419  16.470 -0.6315 -0.9083 -0.2650
 5009TIP3    H136518   6.492   6.324  16.461  0.7195 -0.9398 -1.5181
 5009TIP3    H236519   6.436   6.455  16.410 -1.6121 -1.0032  0.7013
 5010TIP3   OH236520   1.465   1.545   3.884 -0.5475 -0.2657 -0.0523
 5010TIP3    H136521   1.511   1.523   3.803  2.0953  0.5583  1.1182
 5010TIP3    H236522   1.396   1.605   3.857  0.0002 -0.3368 -1.7368
 5011TIP3   OH236523   1.325   0.621   6.258 -0.3882 -0.3397  0.1078
 5011TIP3    H136524   1.354   0.703   6.297  1.4445 -1.1183  0.4892
 5011TIP3    H236525   1.393   0.557   6.282 -3.2057 -2.7379  2.4544
 5012TIP3   OH236526   4.397   0.836  16.065  0.1070  0.4597 -0.2786
 5012TIP3    H136527   4.399   0.878  15.979 -0.7979 -0.2643 -0.6640
 5012TIP3    H236528   4.384   0.744  16.046  0.3322  0.2320  0.6321
 5013TIP3   OH236529   0.739   1.971  15.458 -0.7599 -0.1961 -0.1627
 5013TIP3    H136530   0.798   1.920  15.513 -0.8112  0.1677  0.2389
 5013TIP3    H236531   0.685   2.021  15.521 -1.3478 -0.3680 -0.5265
 5014TIP3   OH236532   6.601   2.305  14.957  0.6008  0.2749 -0.1512
 5014TIP3    H136533   6.521   2.334  15.002 -0.0747 -0.6024 -0.7449
 5014TIP3    H236534   6.672   2.329  15.015 -0.2649 -1.1676  1.5919
 5015TIP3   OH236535   3.841   6.562  15.020  0.0896 -0.0171  0.2031
 5015TIP3    H136536   3.806   6.625  15.083 -1.2799  0.0471 -0.5749
 5015TIP3    H236537   3.801   6.479  15.045 -1.2499  0.1893 -1.1269
 5016TIP3   OH236538   6.497   4.462   3.413 -0.0076 -0.5499 -0.0012
 5016TIP3    H136539   6.470   4.517   3.340 -0.5863  0.0787  0.6707
 5016TIP3    H236540   6.545   4.389   3.372 -1.6170 -1.0252 -1.1435
 5017TIP3   OH236541   4.367   0.905  16.330  0.2722 -0.1511  0.9062
 5017TIP3    H136542   4.344   0.820  16.366  0.9118 -0.2417  1.1194
 5017TIP3    H236543   4.364   0.893  16.235 -0.1760 -0.2574  0.9309
 5018TIP3   OH236544   0.334   1.052  14.740 -0.0299 -0.2296  0.6900
 5018TIP3    H136545   0.365   1.098  14.817  1.8509  0.8812 -0.6419
 5018TIP3    H236546   0.330   0.960  14.766  1.2918  0.0274  1.8964
 5019TIP3   OH236547   1.322   4.294  16.965 -0.1820  0.0371 -0.0179
 5019TIP3    H136548   1.241   4.248  16.987 -0.9299  1.7291  0.9712
 5019TIP3    H236549   1.388   4.256  17.023 -0.4806 -0.6558 -0.1174
 5020TIP3   OH236550   4.538   6.625  14.897 -0.1140  0.2682 -0.3611
 5020TIP3    H136551   4.520   6.646  14.806  1.3273 -0.6932 -0.8937
 5020TIP3    H236552   4.482   6.549  14.916  0.7872 -0.5654 -0.9657
 5021TIP3   OH236553   2.064   4.557   1.802  0.5390 -0.0945 -0.6004
 5021TIP3    H136554   2.131   4.568   1.735  0.0252 -0.4155 -1.1728
 5021TIP3    H236555   2.028   4.644   1.814  0.0518 -0.1862 -1.3596
 5022TIP3   OH236556   0.077   1.407   3.040  0.3020 -0.0567 -0.0609
 5022TIP3    H136557   0.057   1.411   3.133  2.3517  2.7345  0.3879
 5022TIP3    H236558   0.027   1.478   3.001 -0.4384 -1.1184 -1.1272
 5023TIP3   OH236559   0.191   6.086   1.885  0.4106 -0.4166 -0.0385
 5023TIP3    H136560   0.193   6.007   1.940 -2.1592 -1.4366 -1.2152
 5023TIP3    H236561   0.142   6.150   1.937  2.7469  0.5956  1.0366
 5024TIP3   OH236562   1.224   0.946  13.056 -0.3930 -0.2629 -0.1889
 5024TIP3    H136563   1.210   0.860  13.014  0.4578 -0.2745 -0.4754
 5024TIP3    H236564   1.194   1.009  12.990  0.2081 -0.3079 -0.5177
 5025TIP3   OH236565   4.475   0.165   4.291 -0.0531 -0.3113 -0.2304
 5025TIP3    H136566   4.473   0.236   4.355 -2.0951 -0.9401  0.5121
 5025TIP3    H236567   4.418   0.196   4.220 -1.3222 -1.3296  0.3056
 5026TIP3   OH236568   2.321   5.790  14.316 -0.3302 -0.0832  0.1690
 5026TIP3    H136569   2.240   5.784  14.266 -1.4528  0.0856  1.9176
 5026TIP3    H236570   2.357   5.876  14.291 -1.9216  0.9094  1.1491
 5027TIP3   OH236571   6.085   1.400   0.582 -0.0635 -0.2511  0.2919
 5027TIP3    H136572   6.030   1.376   0.657  2.3520 -0.1080  2.2272
 5027TIP3    H236573   6.149   1.330   0.575  1.1827  0.8782 -0.1229
 5028TIP3   OH236574   4.906   4.166   5.092 -0.0826 -0.6919  0.2849
 5028TIP3    H136575   4.912   4.177   4.997  0.1203 -1.1821  0.2353
 5028TIP3    H236576   4.957   4.238   5.128  0.4224 -0.9022  0.0023
 5029TIP3   OH236577   1.801   5.720  13.110  0.5823  0.2395 -0.6487
 5029TIP3    H136578   1.787   5.814  13.096 -1.3701 -0.0283 -0.7826
 5029TIP3    H236579   1.774   5.705  13.200  0.5953 -0.2411 -0.7219
 5030TIP3   OH236580   0.686   0.505  16.422 -0.0678  0.1357 -0.4424
 5030TIP3    H136581   0.710   0.493  16.330  1.4708 -0.3483 -0.0123
 5030TIP3    H236582   0.616   0.442  16.437 -1.2447  1.1124 -1.5879
 5031TIP3   OH236583   6.321   6.357   0.623  0.5334  0.0447 -0.3428
 5031TIP3    H136584   6.385   6.423   0.652 -1.1005  1.4442  0.2314
 5031TIP3    H236585   6.372   6.276   0.617  2.1850  0.9275  0.8741
 5032TIP3   OH236586   3.885   1.693   5.281  0.3755  0.6189 -0.8701
 5032TIP3    H136587   3.884   1.738   5.366  0.4306  0.7244 -0.9239
 5032TIP3    H236588   3.801   1.716   5.241 -0.7760 -1.4748  0.1910
 5033TIP3   OH236589   0.842   3.188   1.128 -0.0010 -0.8138  0.0784
 5033TIP3    H136590   0.918   3.243   1.149 -0.1043 -0.8667  0.6149
 5033TIP3    H236591   0.875   3.099   1.137  0.7194 -0.9258 -2.7303
 5034TIP3   OH236592   2.484   2.784   5.235 -0.0022  0.0909  0.4296
 5034TIP3    H136593   2.449   2.854   5.290 -1.0960  0.9565 -1.2428
 5034TIP3    H236594   2.406   2.745   5.194  0.7487 -0.4837 -0.5029
 5035TIP3   OH236595   4.947   0.423  13.259 -0.5803  0.4802  0.2444
 5035TIP3    H136596   4.854   0.420  13.282 -0.6527  2.0704  0.3238
 5035TIP3    H236597   4.948   0.435  13.164 -0.3527 -2.3484 -0.1950
 5036TIP3   OH236598   0.983   0.194  14.674  0.2890 -0.1872 -0.2016
 5036TIP3    H136599   0.907   0.157  14.627  1.9698 -2.7896 -1.1008
 5036TIP3    H236600   0.976   0.288  14.659 -2.0121 -0.4577 -1.4201
 5037TIP3   OH236601   6.585   5.004   4.243 -1.0256  0.1012  1.1137
 5037TIP3    H136602   6.508   5.005   4.187 -0.0095 -0.5386 -0.3730
 5037TIP3    H236603   6.595   4.912   4.268  0.5133 -0.2586 -0.6078
 5038TIP3   OH236604   3.453   6.291  16.759 -0.0440 -0.2535 -0.4236
 5038TIP3    H136605   3.533   6.254  16.797 -0.1930 -1.5447 -1.3109
 5038TIP3    H236606   3.395   6.306  16.834  0.7730  0.0609  0.1536
 5039TIP3   OH236607   4.837   3.161  14.829  0.1431 -0.5118  0.4793
 5039TIP3    H136608   4.805   3.075  14.803 -1.7719 -0.0335  1.0780
 5039TIP3    H236609   4.791   3.223  14.773 -0.4601  0.2448  1.7490
 5040TIP3   OH236610   3.625   5.660   6.162  0.0170 -0.7037  0.2949
 5040TIP3    H136611   3.572   5.637   6.239  0.4472 -0.9571  0.5197
 5040TIP3    H236612   3.652   5.575   6.127 -0.8529 -0.6250 -0.6247
 5041TIP3   OH236613   4.286   6.689   1.882 -0.0294 -0.0495 -0.0281
 5041TIP3    H136614   4.346   6.616   1.898  1.6566  0.8782 -1.7302
 5041TIP3    H236615   4.339   6.767   1.897  0.1952  0.8534 -4.2748
 5042TIP3   OH236616   1.061   1.204  12.088  0.5195 -0.2321 -0.1450
 5042TIP3    H136617   1.048   1.200  12.183 -1.0553 -3.1149 -0.3882
 5042TIP3    H236618   1.093   1.117  12.064  0.7110  0.3750 -2.2843
 5043TIP3   OH236619   6.287   5.410   4.840 -0.1100  0.2087  0.6178
 5043TIP3    H136620   6.284   5.317   4.863  0.0645  0.3399  1.1975
 5043TIP3    H236621   6.195   5.437   4.840 -0.1244  0.1735  1.0524
 5044TIP3   OH236622   0.905   2.771   6.877 -0.2380 -0.0840 -0.0384
 5044TIP3    H136623   0.944   2.695   6.919 -0.5025 -0.4846 -0.5028
 5044TIP3    H236624   0.816   2.743   6.854 -1.0534  1.0186  1.5703
 5045TIP3   OH236625   0.437   4.473  15.073  0.0107 -0.3822  0.1037
 5045TIP3    H136626   0.378   4.409  15.034 -0.8838  0.0459  0.7118
 5045TIP3    H236627   0.429   4.459  15.168  0.1223  0.3405  0.2280
 5046TIP3   OH236628   2.326   3.946  11.939  0.2302  0.1323 -0.3394
 5046TIP3    H136629   2.328   3.862  11.984  0.9054  0.6872  0.6923
 5046TIP3    H236630   2.249   3.991  11.975  0.2216  0.2007 -0.4418
 5047TIP3   OH236631   3.274   5.088  10.436 -0.2542 -0.1799 -0.2941
 5047TIP3    H136632   3.307   5.127  10.518  1.5334  2.8369 -2.2290
 5047TIP3    H236633   3.350   5.043  10.400  0.4531  2.3476 -2.2898
 5048TIP3   OH236634   4.824   4.577   5.537 -0.3520  0.8877  0.5572
 5048TIP3    H136635   4.806   4.651   5.480 -4.1759 -0.2165  0.0568
 5048TIP3    H236636   4.794   4.605   5.624  1.0426  0.9344  1.0444
 5049TIP3   OH236637   5.319   2.644  12.591  0.4786 -0.0057 -0.0942
 5049TIP3    H136638   5.402   2.597  12.591  0.7617  0.4679 -1.3675
 5049TIP3    H236639   5.272   2.611  12.515  0.6048  1.6113 -0.9105
 5050TIP3   OH236640   1.323   2.417   1.672  0.1452 -0.4251 -0.0076
 5050TIP3    H136641   1.320   2.409   1.576  0.0330 -1.5645  0.0683
 5050TIP3    H236642   1.304   2.509   1.689  0.0281 -0.2325 -1.0783
 5051TIP3   OH236643   2.170   1.526  13.554 -0.2212  0.1050 -0.1970
 5051TIP3    H136644   2.103   1.582  13.514 -0.7348 -0.1672  0.2620
 5051TIP3    H236645   2.230   1.587  13.597  0.7431  0.4514 -1.9386
 5052TIP3   OH236646   1.683   5.190   4.175 -0.0102 -0.0033 -0.2370
 5052TIP3    H136647   1.723   5.139   4.244 -0.4963  0.5396  0.4575
 5052TIP3    H236648   1.714   5.280   4.190 -0.9655  0.3104 -0.0688
 5053TIP3   OH236649   4.641   0.142   1.412 -0.4464 -0.5092  0.7972
 5053TIP3    H136650   4.687   0.224   1.426 -0.7641 -0.2062  0.0761
 5053TIP3    H236651   4.548   0.166   1.406 -0.3335 -0.5050 -2.3586
 5054TIP3   OH236652   6.502   4.395  11.479  0.6656 -0.0828 -0.6797
 5054TIP3    H136653   6.563   4.372  11.408 -1.5135  0.1336 -2.7635
 5054TIP3    H236654   6.526   4.485  11.502  1.6108 -0.2566 -0.9254
 5055TIP3   OH236655   6.251   4.915   5.124 -0.1471  0.6546 -0.2752
 5055TIP3    H136656   6.250   4.824   5.094 -1.0865  0.9588 -1.2540
 5055TIP3    H236657   6.212   4.912   5.211 -0.3095  0.1374 -0.3616
 5056TIP3   OH236658   3.682   3.930   3.733 -0.2889 -0.2346  0.1253
 5056TIP3    H136659   3.704   4.021   3.715  2.2735 -0.5144  1.3250
 5056TIP3    H236660   3.591   3.932   3.763 -0.2070  1.9628  0.3822
 5057TIP3   OH236661   4.700   5.931   1.384 -0.7029 -0.1523 -0.0088
 5057TIP3    H136662   4.644   5.926   1.307 -0.9087 -1.5893  0.1970
 5057TIP3    H236663   4.653   5.987   1.445 -1.3353 -0.3543 -0.3016
 5058TIP3   OH236664   3.050   1.257  14.533 -0.0981 -0.3923 -0.5688
 5058TIP3    H136665   3.125   1.209  14.568 -0.4420 -0.3731  0.2107
 5058TIP3    H236666   3.008   1.295  14.609 -0.2739  0.5224 -1.1052
 5059TIP3   OH236667   5.212   6.426  13.606 -0.2556  0.0374  0.6842
 5059TIP3    H136668   5.184   6.379  13.685  0.4242 -0.5861  0.5721
 5059TIP3    H236669   5.178   6.515  13.617 -0.5102 -0.1515  1.4908
 5060TIP3   OH236670   3.658   5.375  13.684 -0.2481 -0.5210 -0.3110
 5060TIP3    H136671   3.626   5.448  13.630 -1.1274  1.8479  3.0632
 5060TIP3    H236672   3.579   5.334  13.718  0.2739 -0.8084  0.5778
 5061TIP3   OH236673   5.236   0.498  16.641 -0.3115  0.1515 -0.0003
 5061TIP3    H136674   5.309   0.445  16.673 -0.3037 -0.7333 -1.3595
 5061TIP3    H236675   5.159   0.443  16.656 -0.4796  0.3356 -0.1880
 5062TIP3   OH236676   6.128   2.991  12.447 -0.6944 -0.1787  0.0957
 5062TIP3    H136677   6.054   3.044  12.415 -0.1142  0.2363 -0.5860
 5062TIP3    H236678   6.088   2.911  12.478 -1.6058  0.6570  1.1625
 5063TIP3   OH236679   0.379   0.472   4.947  0.4488 -0.1385 -0.1928
 5063TIP3    H136680   0.426   0.549   4.980 -0.9268  0.5868  0.1722
 5063TIP3    H236681   0.304   0.509   4.899 -0.9632 -1.2288  1.0701
 5064TIP3   OH236682   2.257   3.657   3.181  0.2527  1.3244  0.0243
 5064TIP3    H136683   2.267   3.693   3.093 -0.5221  1.3245 -0.0638
 5064TIP3    H236684   2.165   3.633   3.188  0.4250  0.7891  0.6327
 5065TIP3   OH236685   6.281   3.639   3.247 -0.0419  0.0814 -0.2934
 5065TIP3    H136686   6.366   3.681   3.230 -0.8959  2.5376  0.9354
 5065TIP3    H236687   6.225   3.670   3.176 -0.5429  0.6220  0.3232
 5066TIP3   OH236688   1.352   0.153   4.550  0.5801  0.8072  0.5256
 5066TIP3    H136689   1.423   0.210   4.522  2.4566 -0.8923  1.5588
 5066TIP3    H236690   1.355   0.156   4.646  1.7798 -2.0823  0.6840
 5067TIP3   OH236691   3.616   2.387   4.975  0.2185  0.5066 -0.2900
 5067TIP3    H136692   3.557   2.331   4.925  0.5566  0.3126 -0.4723
 5067TIP3    H236693   3.688   2.329   5.000  0.6576  0.9074 -0.6304
 5068TIP3   OH236694   1.772   6.753  15.041  0.1108 -0.4721 -0.5226
 5068TIP3    H136695   1.847   6.697  15.057 -0.4659 -1.1613 -0.1599
 5068TIP3    H236696   1.699   6.692  15.030 -0.7700  0.2167  1.1133
 5069TIP3   OH236697   3.745   1.769   6.053 -0.2409 -0.2213 -0.7650
 5069TIP3    H136698   3.765   1.675   6.058  0.3421 -0.0501  0.5872
 5069TIP3    H236699   3.829   1.810   6.033 -0.4197  0.0348 -0.9816
 5070TIP3   OH236700   5.455   4.649  15.098  0.2403  0.4589 -0.2786
 5070TIP3    H136701   5.531   4.647  15.156  0.0645  1.7650  0.0186
 5070TIP3    H236702   5.489   4.620  15.014  0.7136 -0.4965  0.2220
 5071TIP3   OH236703   0.983   3.732   0.321 -0.4672 -0.6388  0.5533
 5071TIP3    H136704   1.030   3.735   0.238 -2.6328  2.2715 -0.7247
 5071TIP3    H236705   1.052   3.720   0.387  1.4926 -1.3535 -1.4969
 5072TIP3   OH236706   3.528   4.916   3.657  0.2040 -0.0599 -0.2667
 5072TIP3    H136707   3.481   4.990   3.619 -2.9555 -0.3028  2.6460
 5072TIP3    H236708   3.493   4.839   3.613 -0.9407 -0.1134  0.6720
 5073TIP3   OH236709   1.066   0.929   2.375  0.2047 -0.0574 -0.5897
 5073TIP3    H136710   0.998   0.950   2.438  0.1140  0.4814 -0.8593
 5073TIP3    H236711   1.117   0.859   2.416 -0.3117 -0.2368 -0.2519
 5074TIP3   OH236712   3.599   2.842   1.608  0.1812 -0.2539 -0.2535
 5074TIP3    H136713   3.515   2.889   1.612  0.8679  1.0026 -0.1309
 5074TIP3    H236714   3.665   2.911   1.610  1.2965 -1.3000  1.9452
 5075TIP3   OH236715   0.400   4.885  12.224 -0.1145 -0.1461  0.5271
 5075TIP3    H136716   0.355   4.805  12.199 -0.4573  0.2342 -0.1023
 5075TIP3    H236717   0.440   4.865  12.309 -2.3892 -0.1571  1.6772
 5076TIP3   OH236718   0.236   2.033  13.214  0.6905  0.4728  0.2196
 5076TIP3    H136719   0.291   1.961  13.244  0.7799  0.3793 -0.1547
 5076TIP3    H236720   0.286   2.072  13.142 -0.0463 -0.0676 -0.6086
 5077TIP3   OH236721   3.573   0.224   0.261  0.5052 -0.1104 -0.3378
 5077TIP3    H136722   3.519   0.303   0.264  1.1517  0.3663 -0.8728
 5077TIP3    H236723   3.511   0.152   0.274 -0.1910  0.4503 -0.4904
 5078TIP3   OH236724   1.549   1.179  13.580 -0.8577  0.1487  0.1391
 5078TIP3    H136725   1.486   1.107  13.578 -0.5286 -0.1632  0.8043
 5078TIP3    H236726   1.565   1.194  13.673 -1.5153  1.6089  0.0379
 5079TIP3   OH236727   0.250   6.178   0.066 -0.6642 -0.1096 -0.2454
 5079TIP3    H136728   0.294   6.258   0.038 -1.6292  0.2911 -0.6476
 5079TIP3    H236729   0.313   6.136   0.125  0.3464  0.3275 -0.9816
 5080TIP3   OH236730   2.879   3.736   2.102 -0.4866  0.1781  0.4800
 5080TIP3    H136731   2.935   3.813   2.104  1.9523 -1.4917  0.5236
 5080TIP3    H236732   2.859   3.719   2.195 -2.6347  1.7626  0.3791
 5081TIP3   OH236733   5.617   3.681  12.880 -0.3630  0.1474 -1.0893
 5081TIP3    H136734   5.594   3.666  12.972  0.3710  0.0295 -0.9196
 5081TIP3    H236735   5.693   3.738  12.883  0.6951 -1.1951 -1.5669
 5082TIP3   OH236736   6.280   0.160   0.758 -0.4930  0.2094  0.6672
 5082TIP3    H136737   6.313   0.246   0.731  0.2916 -0.5233 -0.8796
 5082TIP3    H236738   6.304   0.102   0.685 -0.8814 -1.3434  1.7330
 5083TIP3   OH236739   6.639   3.523   5.384 -0.2639  0.0056 -0.4034
 5083TIP3    H136740   6.672   3.562   5.302  1.5894 -3.5739 -1.5638
 5083TIP3    H236741   6.672   3.581   5.453  0.8327  1.4412 -2.0424
 5084TIP3   OH236742   3.185   3.967   1.654 -0.0296  0.4879 -0.5985
 5084TIP3    H136743   3.119   4.022   1.611  0.2389  1.0398 -0.3183
 5084TIP3    H236744   3.183   3.995   1.746  0.2521  0.1629 -0.4929
 5085TIP3   OH236745   1.618   0.583   2.192  0.2415 -0.0401 -0.0218
 5085TIP3    H136746   1.558   0.512   2.213 -0.1065 -0.0201 -0.9069
 5085TIP3    H236747   1.563   0.662   2.191  0.2690 -0.0156 -0.7962
 5086TIP3   OH236748   2.031   5.575   0.177  0.0652 -0.0662  0.4137
 5086TIP3    H136749   1.981   5.644   0.133 -0.7594  0.3002  1.8397
 5086TIP3    H236750   2.111   5.620   0.208  2.0647 -0.9274 -2.9699
 5087TIP3   OH236751   0.588   1.266  11.443  0.2452 -0.2096 -0.1756
 5087TIP3    H136752   0.667   1.297  11.486  0.5627  0.7106 -1.3701
 5087TIP3    H236753   0.526   1.338  11.451 -0.0410 -0.4366 -0.3464
 5088TIP3   OH236754   6.726   0.134   3.643  0.0019  0.0582 -0.7641
 5088TIP3    H136755   6.733   0.039   3.655  0.5020  0.1475 -0.3088
 5088TIP3    H236756   6.634   0.153   3.662  0.4333 -0.0020  1.7956
 5089TIP3   OH236757   3.289   5.251  13.367 -0.3847  0.6236 -0.2108
 5089TIP3    H136758   3.296   5.327  13.309 -0.8140 -0.1029 -1.2341
 5089TIP3    H236759   3.331   5.180  13.319  2.5640  0.7691  1.8772
 5090TIP3   OH236760   3.257   2.398   5.085 -0.4699 -0.4516 -0.1871
 5090TIP3    H136761   3.170   2.358   5.080  0.1203 -1.5804 -1.9652
 5090TIP3    H236762   3.277   2.426   4.996  1.6067 -1.5804 -0.1395
 5091TIP3   OH236763   4.557   2.049   2.212  0.4326 -0.0785 -0.4180
 5091TIP3    H136764   4.477   2.038   2.160  0.3080 -0.2028 -0.2032
 5091TIP3    H236765   4.527   2.093   2.292  0.5203 -0.4348 -0.1866
 5092TIP3   OH236766   0.845   2.142  14.567 -0.4188 -0.1082 -0.1848
 5092TIP3    H136767   0.755   2.157  14.596 -0.5912  1.2058 -1.2671
 5092TIP3    H236768   0.891   2.223  14.586  0.3727 -0.5277 -0.2495
 5093TIP3   OH236769   6.118   2.538  13.241  0.4580 -0.2670  0.7399
 5093TIP3    H136770   6.200   2.554  13.194  0.6703  1.2126  1.5553
 5093TIP3    H236771   6.146   2.507  13.327  0.1648  0.1177  0.9760
 5094TIP3   OH236772   5.801   5.757  13.188 -0.5523 -0.4102  0.1895
 5094TIP3    H136773   5.733   5.792  13.130 -0.7891 -0.3780  0.4848
 5094TIP3    H236774   5.874   5.736  13.130 -0.4687  0.4099 -0.0235
 5095TIP3   OH236775   2.343   3.880   6.512  0.3837  0.2407  0.5093
 5095TIP3    H136776   2.325   3.934   6.588 -0.6520 -1.4948  1.5769
 5095TIP3    H236777   2.438   3.871   6.510  0.4471  0.6410  1.3634
 5096TIP3   OH236778   6.677   2.100   5.058  0.7911 -0.1846  0.0237
 5096TIP3    H136779   6.623   2.023   5.044  2.4991 -1.1661 -1.4863
 5096TIP3    H236780   6.761   2.066   5.090  0.6787  1.2778  2.1647
 5097TIP3   OH236781   5.130   4.072   3.119  0.5009  0.5284 -0.1156
 5097TIP3    H136782   5.125   4.042   3.028 -1.3442  0.5346 -0.0622
 5097TIP3    H236783   5.175   4.002   3.165  0.5606  0.0652 -0.8634
 5098TIP3   OH236784   6.126   2.905   5.155  0.2510  0.0492 -0.2929
 5098TIP3    H136785   6.049   2.895   5.099  0.8097  1.7487 -1.4641
 5098TIP3    H236786   6.099   2.967   5.223  0.2552 -0.2256 -0.0387
 5099TIP3   OH236787   2.905   1.449  15.371  0.1824  0.3723 -0.4667
 5099TIP3    H136788   2.835   1.384  15.361  0.3557  0.3491 -1.6105
 5099TIP3    H236789   2.863   1.522  15.417  0.2041 -0.8715  1.6758
 5100TIP3   OH236790   4.850   6.581  14.350 -0.1558 -0.5029  0.3965
 5100TIP3    H136791   4.883   6.570  14.439 -0.8923  3.5869  1.3547
 5100TIP3    H236792   4.922   6.554  14.294  0.8483 -1.7898  2.1861
 5101TIP3   OH236793   3.684   6.543   2.385  0.2635  0.2032  0.3008
 5101TIP3    H136794   3.739   6.575   2.313 -0.2862  4.2081  1.4531
 5101TIP3    H236795   3.716   6.588   2.462 -1.1720 -1.5994  2.0490
 5102TIP3   OH236796   1.950   1.319  11.725 -0.1354  0.3708 -0.1474
 5102TIP3    H136797   2.003   1.289  11.651  1.9417  0.5494  1.1924
 5102TIP3    H236798   1.914   1.239  11.763  1.6805 -0.1017  0.7006
 5103TIP3   OH236799   6.722   3.323  14.558  0.3624  0.6151 -0.4692
 5103TIP3    H136800   6.738   3.337  14.465  1.1571 -1.4282 -0.6747
 5103TIP3    H236801   6.789   3.261  14.585 -0.8860 -0.1226  1.0742
 5104TIP3   OH236802   5.307   4.141   4.027  0.5422 -0.0769  0.1653
 5104TIP3    H136803   5.400   4.148   4.008  0.4807 -0.8851 -0.5183
 5104TIP3    H236804   5.266   4.211   3.975  0.7629  0.2480  0.4313
 5105TIP3   OH236805   2.315   1.723   4.133  0.0646  0.1264 -0.1006
 5105TIP3    H136806   2.267   1.791   4.180  1.8711  1.4996 -0.1533
 5105TIP3    H236807   2.357   1.671   4.202 -2.6056 -2.1226  0.0562
 5106TIP3   OH236808   2.298   3.043  13.024 -0.0599  0.0621  0.3479
 5106TIP3    H136809   2.293   3.002  13.111  1.0361 -1.7076 -0.3714
 5106TIP3    H236810   2.332   3.131  13.041  0.1258 -0.2466  1.7115
 5107TIP3   OH236811   4.446   3.450  11.960 -0.1151 -0.1957 -0.6288
 5107TIP3    H136812   4.366   3.443  11.909  0.2696  0.0997 -1.2738
 5107TIP3    H236813   4.508   3.495  11.903  0.1285  0.7066  0.3149
 5108TIP3   OH236814   4.133   5.305  14.286  0.6395  0.1384  0.4712
 5108TIP3    H136815   4.135   5.331  14.378 -1.8011 -1.6897  1.1642
 5108TIP3    H236816   4.051   5.343  14.253 -1.1279 -3.2167  0.5421
 5109TIP3   OH236817   4.729   1.638  17.005  0.0252 -0.3265  0.4161
 5109TIP3    H136818   4.737   1.721  17.053 -4.7481  0.2559  0.7111
 5109TIP3    H236819   4.739   1.663  16.913 -0.5488  0.4442  0.5548
 5110TIP3   OH236820   2.964   0.979   6.558 -0.0392  0.3351 -0.5973
 5110TIP3    H136821   2.891   1.039   6.546  0.7568  1.4446 -0.0457
 5110TIP3    H236822   2.989   0.989   6.650  0.5998 -0.2730 -0.6897
 5111TIP3   OH236823   0.089   1.918  16.892 -0.2802  0.6588 -0.0000
 5111TIP3    H136824   0.131   1.832  16.900 -0.7438  0.4346  0.0974
 5111TIP3    H236825   0.141   1.965  16.827  0.9484  0.9017  1.1302
 5112TIP3   OH236826   3.960   1.206   4.568  0.1372 -0.1722 -0.2068
 5112TIP3    H136827   3.932   1.131   4.516 -0.5265 -0.3819  0.4473
 5112TIP3    H236828   3.880   1.256   4.583  0.4415  0.2404  0.0514
 5113TIP3   OH236829   6.325   2.958  13.654  0.0387  0.3763  0.4968
 5113TIP3    H136830   6.343   3.014  13.730  0.3346 -1.0924  1.5340
 5113TIP3    H236831   6.236   2.983  13.628 -0.3414  0.4203  1.7673
 5114TIP3   OH236832   3.831   5.618   0.593 -0.3666  0.1003  0.1817
 5114TIP3    H136833   3.771   5.603   0.521 -0.0462 -1.0146  0.1301
 5114TIP3    H236834   3.810   5.707   0.624  0.8276  1.4620 -2.5427
 5115TIP3   OH236835   0.982   0.646   5.354 -0.0734 -0.0052  0.0399
 5115TIP3    H136836   1.011   0.621   5.267  1.2027  1.0316  0.1389
 5115TIP3    H236837   1.018   0.579   5.412  1.0314  0.5337  0.0032
 5116TIP3   OH236838   5.234   2.138  13.941 -0.4054  0.0215  0.0322
 5116TIP3    H136839   5.152   2.155  13.988 -0.4762 -0.8028  0.2186
 5116TIP3    H236840   5.211   2.152  13.849 -1.3058 -2.1171 -0.1214
 5117TIP3   OH236841   6.089   4.405  11.851  0.2005  0.1847  0.0730
 5117TIP3    H136842   6.006   4.374  11.887 -0.4787  1.7756 -0.0539
 5117TIP3    H236843   6.072   4.417  11.758  0.7133  0.1122 -0.0369
 5118TIP3   OH236844   1.579   4.180  14.146 -0.0859  0.1406  0.0351
 5118TIP3    H136845   1.503   4.139  14.187  1.3270 -0.6481  2.0654
 5118TIP3    H236846   1.590   4.263  14.194 -0.8171  1.2507 -1.6294
 5119TIP3   OH236847   3.795   6.732   1.500 -0.2855 -0.1928 -0.0496
 5119TIP3    H136848   3.734   6.661   1.520  1.1069 -0.5505  3.7730
 5119TIP3    H236849   3.881   6.691   1.504  0.5228  1.5121  1.7651
 5120TIP3   OH236850   1.565   2.843   2.111 -0.4595 -0.0683  0.0736
 5120TIP3    H136851   1.489   2.825   2.055  1.0154  0.4725 -2.2696
 5120TIP3    H236852   1.622   2.767   2.098  0.8499  1.0201 -0.9708
 5121TIP3   OH236853   1.159   4.552  12.103  0.1910  0.3224 -0.4763
 5121TIP3    H136854   1.228   4.615  12.123  1.0936 -0.5576 -0.7397
 5121TIP3    H236855   1.160   4.491  12.177  0.1753 -0.0931 -0.8133
 5122TIP3   OH236856   3.991   2.188   1.473  0.2914  0.2657  0.1644
 5122TIP3    H136857   4.032   2.142   1.547  0.3641  0.4390  0.2322
 5122TIP3    H236858   3.913   2.136   1.453  0.6452 -0.1732 -0.0918
 5123TIP3   OH236859   1.509   0.374   0.307 -0.0155  0.0056 -0.0116
 5123TIP3    H136860   1.490   0.280   0.304  1.8824 -0.4466  0.5606
 5123TIP3    H236861   1.461   0.406   0.383 -0.3023 -0.6003  0.0695
 5124TIP3   OH236862   3.338   6.294   5.565  1.0946 -0.5427 -0.2196
 5124TIP3    H136863   3.245   6.311   5.554  0.8693 -0.1301  1.8825
 5124TIP3    H236864   3.343   6.205   5.601  1.4547 -0.2876  0.3803
 5125TIP3   OH236865   0.966   2.199   1.315 -0.0038  0.3390  0.5732
 5125TIP3    H136866   0.907   2.142   1.365  0.9952 -0.0481  1.3579
 5125TIP3    H236867   0.964   2.282   1.363  1.7944 -0.3534  2.0052
 5126TIP3   OH236868   3.659   3.076  12.938 -0.0114 -0.1133  0.2329
 5126TIP3    H136869   3.748   3.060  12.906 -0.1531  2.0589 -1.4625
 5126TIP3    H236870   3.606   3.084  12.858 -1.4564  0.1345  1.1862
 5127TIP3   OH236871   5.174   0.620   5.401  0.1162 -0.1469  0.4006
 5127TIP3    H136872   5.182   0.535   5.357 -1.4252  0.1805 -0.5954
 5127TIP3    H236873   5.218   0.681   5.342  1.7117 -0.3000  1.3840
 5128TIP3   OH236874   4.313   3.855  12.479 -0.0409  0.1174 -0.1256
 5128TIP3    H136875   4.225   3.852  12.516 -0.6467 -0.0510 -1.5136
 5128TIP3    H236876   4.357   3.777  12.515 -0.8506 -0.4474 -0.3370
 5129TIP3   OH236877   4.384   1.598  11.221 -0.2182  0.4179  0.4285
 5129TIP3    H136878   4.428   1.534  11.165 -1.9991 -0.4051 -0.1338
 5129TIP3    H236879   4.418   1.683  11.192  0.8746 -0.1688 -0.0484
 5130TIP3   OH236880   1.633   3.946   4.915 -0.8323 -0.4547 -0.0462
 5130TIP3    H136881   1.608   3.914   4.828  0.4831 -0.5754 -0.4026
 5130TIP3    H236882   1.684   3.875   4.953 -0.9421 -0.1846  0.6159
 5131TIP3   OH236883   3.257   2.607   0.186  0.1255 -0.2370 -0.3478
 5131TIP3    H136884   3.342   2.629   0.224 -1.0719  1.1906  1.6966
 5131TIP3    H236885   3.242   2.677   0.122  0.4199 -0.4011 -0.5980
 5132TIP3   OH236886   4.167   5.963  16.379 -0.8679  0.3864  0.6174
 5132TIP3    H136887   4.188   5.989  16.290 -1.1450 -1.7134 -0.1191
 5132TIP3    H236888   4.106   6.030  16.410  1.6476  2.9495  0.4712
 5133TIP3   OH236889   3.621   2.739  14.201  0.5072 -0.5503  0.2592
 5133TIP3    H136890   3.640   2.824  14.161 -1.6237 -0.4895 -0.7622
 5133TIP3    H236891   3.568   2.694  14.135  0.7566 -2.2846  1.2019
 5134TIP3   OH236892   0.465   0.271  14.587 -0.8010  0.1214 -0.2699
 5134TIP3    H136893   0.550   0.229  14.576 -1.6162 -1.7735  0.4164
 5134TIP3    H236894   0.470   0.311  14.674 -1.5965 -2.5803  1.1287
 5135TIP3   OH236895   2.051   2.200   1.893 -0.3340  0.4388  0.0019
 5135TIP3    H136896   2.051   2.292   1.919 -1.8662  1.0390 -1.8467
 5135TIP3    H236897   2.143   2.177   1.884  0.1979  0.9088  3.1349
 5136TIP3   OH236898   5.684   4.327  10.609  0.0335 -0.2319  0.1403
 5136TIP3    H136899   5.721   4.269  10.542 -1.0567  0.3567 -0.9983
 5136TIP3    H236900   5.607   4.280  10.642 -0.5115  0.2819 -0.3671
 5137TIP3   OH236901   1.223   5.655   3.668 -0.0539 -0.0461  0.0746
 5137TIP3    H136902   1.256   5.712   3.599 -0.2209  0.1902  0.1876
 5137TIP3    H236903   1.156   5.707   3.713  0.3146 -0.0558  0.6502
 5138TIP3   OH236904   2.545   5.201   3.561 -0.7521  0.1997 -0.0657
 5138TIP3    H136905   2.505   5.247   3.635 -4.3020 -1.8905 -0.4282
 5138TIP3    H236906   2.636   5.188   3.587 -1.5863  0.4434  3.5367
 5139TIP3   OH236907   3.647   3.741  11.241  0.2171 -0.0507 -0.3720
 5139TIP3    H136908   3.624   3.832  11.221  0.3380  0.4362  1.5131
 5139TIP3    H236909   3.741   3.744  11.259 -0.0825 -0.1847  1.3913
 5140TIP3   OH236910   1.014   6.386   0.148 -0.0121  0.1918 -0.0712
 5140TIP3    H136911   1.019   6.423   0.237  2.1008 -2.5449  1.1156
 5140TIP3    H236912   0.922   6.392   0.124 -1.0256 -0.6464  3.1309
 5141TIP3   OH236913   6.818   1.215  11.241 -0.4106  0.0035  0.6796
 5141TIP3    H136914   6.911   1.228  11.223 -0.2042  0.0405  1.7145
 5141TIP3    H236915   6.795   1.135  11.192  0.0799  0.1595  0.1824
 5142TIP3   OH236916   5.630   4.254  16.198  0.2366 -0.1906 -0.3663
 5142TIP3    H136917   5.646   4.347  16.211  0.9552 -0.2173 -0.9922
 5142TIP3    H236918   5.597   4.247  16.109 -3.0502 -0.1895  0.7287
 5143TIP3   OH236919   1.118   6.197  14.454  0.5692  0.2254  0.2702
 5143TIP3    H136920   1.051   6.129  14.459  0.1706  0.5835 -0.1029
 5143TIP3    H236921   1.103   6.238  14.369  2.9816 -1.4646 -1.0851
 5144TIP3   OH236922   1.746   0.402   6.493  0.2962 -0.1654 -0.0549
 5144TIP3    H136923   1.788   0.317   6.502  0.6650  0.0914  0.7528
 5144TIP3    H236924   1.677   0.402   6.560 -0.0821 -0.0485 -0.4382
 5145TIP3   OH236925   5.718   6.306   0.895 -0.3156 -0.1974  0.4809
 5145TIP3    H136926   5.654   6.256   0.845 -0.1300 -1.2047  1.2214
 5145TIP3    H236927   5.667   6.378   0.934 -1.1221 -1.2640  1.4650
 5146TIP3   OH236928   3.580   4.232  14.286  0.3364 -0.5753 -0.2018
 5146TIP3    H136929   3.589   4.172  14.360 -1.0505 -0.7141 -0.1191
 5146TIP3    H236930   3.539   4.180  14.217  0.9074 -0.2374 -0.8059
 5147TIP3   OH236931   1.249   6.548  17.224 -0.1392  0.7541 -0.2404
 5147TIP3    H136932   1.177   6.580  17.170 -1.9418 -0.7763  1.1332
 5147TIP3    H236933   1.239   6.453  17.225 -1.0133  0.7088  3.6908
 5148TIP3   OH236934   5.782   2.855  16.579 -0.0974  0.1831  0.3421
 5148TIP3    H136935   5.707   2.813  16.536  0.9516 -0.3126 -1.0795
 5148TIP3    H236936   5.802   2.799  16.653 -1.5390  0.7004  1.1790
 5149TIP3   OH236937   4.030   2.114  16.667 -0.1396 -0.2880 -0.4128
 5149TIP3    H136938   4.114   2.125  16.712  0.1851  1.9951 -1.3999
 5149TIP3    H236939   4.053   2.096  16.576 -0.4585  3.7330 -1.5100
 5150TIP3   OH236940   1.689   1.950   2.637 -0.0293  0.5256  1.0234
 5150TIP3    H136941   1.652   2.009   2.571 -1.0840 -0.6553  0.5114
 5150TIP3    H236942   1.760   2.000   2.676  1.2106  0.9747 -1.5792
 5151TIP3   OH236943   3.747   1.455   1.482  0.3301 -0.1250 -0.0677
 5151TIP3    H136944   3.775   1.410   1.561  1.8618 -1.2322 -1.1680
 5151TIP3    H236945   3.770   1.547   1.496  0.4389 -0.2842  0.8136
 5152TIP3   OH236946   2.769   5.077   2.706  0.3774 -0.2257 -0.0628
 5152TIP3    H136947   2.677   5.083   2.680  0.3149 -1.2658 -0.0982
 5152TIP3    H236948   2.771   5.114   2.795 -0.2171 -0.9442  0.2571
 5153TIP3   OH236949   6.137   1.154   4.817 -0.2931 -0.0520 -0.4287
 5153TIP3    H136950   6.136   1.230   4.875 -0.1034  1.4290 -2.2719
 5153TIP3    H236951   6.218   1.162   4.768 -0.0146 -1.7625 -0.3067
 5154TIP3   OH236952   0.698   5.848   6.708  0.2594 -0.0031 -0.1703
 5154TIP3    H136953   0.640   5.924   6.706  0.4360  0.1601  0.5337
 5154TIP3    H236954   0.708   5.823   6.616 -0.9664 -0.0723 -0.2946
 5155TIP3   OH236955   3.466   3.694  12.837 -0.3832 -0.2089 -0.9656
 5155TIP3    H136956   3.429   3.751  12.770  0.6349 -0.0790 -1.4448
 5155TIP3    H236957   3.489   3.614  12.791 -1.4930 -0.8992 -0.3605
 5156TIP3   OH236958   3.622   0.214   6.365  0.0910 -0.3124 -0.4161
 5156TIP3    H136959   3.638   0.124   6.393 -0.9380  0.1458  1.9732
 5156TIP3    H236960   3.535   0.211   6.325 -0.2400 -0.3071  0.2769
 5157TIP3   OH236961   2.949   0.510   3.682  0.0080 -0.1513 -0.2071
 5157TIP3    H136962   2.965   0.562   3.761  1.9642  0.6516 -1.0754
 5157TIP3    H236963   2.982   0.423   3.704  1.2983  0.2774 -0.3837
 5158TIP3   OH236964   6.139   3.236  13.211  0.0474 -0.3200 -0.2360
 5158TIP3    H136965   6.132   3.211  13.118  1.1706  0.4496 -0.5504
 5158TIP3    H236966   6.091   3.319  13.217 -0.7780 -0.8129  0.0704
 5159TIP3   OH236967   6.659   3.340   3.822 -0.1285 -0.4622  0.4160
 5159TIP3    H136968   6.743   3.383   3.838 -0.6816  1.3180 -1.1067
 5159TIP3    H236969   6.673   3.291   3.741 -0.4801 -0.3749  0.3003
 5160TIP3   OH236970   5.768   0.769   1.065  0.4494 -0.1052  0.6537
 5160TIP3    H136971   5.778   0.863   1.081 -0.7008  0.0351  0.6006
 5160TIP3    H236972   5.679   0.760   1.032  0.4834 -1.2415  0.8507
 5161TIP3   OH236973   0.824   4.585  12.167  0.1390  0.2214 -0.1879
 5161TIP3    H136974   0.886   4.654  12.190  1.1777 -0.6055 -0.4260
 5161TIP3    H236975   0.836   4.518  12.234  0.9884 -0.8378 -1.3380
 5162TIP3   OH236976   2.251   5.493   1.913  0.1214 -0.5488 -0.2538
 5162TIP3    H136977   2.216   5.522   1.829 -0.5691 -0.5986  0.0072
 5162TIP3    H236978   2.174   5.485   1.970  0.6464  0.2279  0.6121
 5163TIP3   OH236979   4.762   3.564   2.795  0.0229  0.5157 -0.0901
 5163TIP3    H136980   4.810   3.499   2.847 -0.0159  0.5105 -0.0611
 5163TIP3    H236981   4.805   3.647   2.814  1.4584  0.2077 -1.7481
 5164TIP3   OH236982   5.627   4.799   0.607  0.1065  0.0224  0.1315
 5164TIP3    H136983   5.609   4.705   0.605  0.5989 -0.0704 -1.0191
 5164TIP3    H236984   5.542   4.839   0.628 -0.5004 -0.6153 -0.9715
 5165TIP3   OH236985   1.830   2.176   0.957 -0.8387 -0.2091 -0.3294
 5165TIP3    H136986   1.759   2.176   1.022  0.2534  1.9177  1.0011
 5165TIP3    H236987   1.887   2.104   0.984 -0.8105  0.1493  0.6218
 5166TIP3   OH236988   0.540   1.656  11.233  0.1624  0.0905 -0.1652
 5166TIP3    H136989   0.610   1.713  11.203 -0.3704  0.8427 -0.0201
 5166TIP3    H236990   0.505   1.617  11.153 -0.4624  1.1529 -0.4272
 5167TIP3   OH236991   3.478   4.798   5.185 -0.1654 -0.3004  0.2792
 5167TIP3    H136992   3.459   4.707   5.204 -0.0688  0.0844  2.3820
 5167TIP3    H236993   3.409   4.848   5.228 -1.0283  0.6252 -1.9911
 5168TIP3   OH236994   4.803   0.179  13.630 -0.0895 -0.4178  0.2394
 5168TIP3    H136995   4.708   0.188  13.630 -0.0647  0.0231 -1.2611
 5168TIP3    H236996   4.826   0.154  13.541  1.3079  0.8476  0.1984
 5169TIP3   OH236997   6.462   2.633   1.131  0.1286 -0.7934 -0.3296
 5169TIP3    H136998   6.525   2.562   1.122  1.6792  0.5802 -0.8515
 5169TIP3    H236999   6.513   2.712   1.117 -1.7859  0.3769 -1.1696
 5170TIP3   OH237000   5.581   0.224  15.601 -0.0498 -0.0602 -0.3444
 5170TIP3    H137001   5.538   0.310  15.605  0.2858  0.0731  0.5872
 5170TIP3    H237002   5.598   0.210  15.507 -0.0049  0.9379 -0.4981
 5171TIP3   OH237003   6.411   4.639  13.549 -0.3024  0.1986  0.4163
 5171TIP3    H137004   6.407   4.730  13.520  2.5096  1.1079  2.3637
 5171TIP3    H237005   6.459   4.594  13.480  0.7660  0.8906  0.6779
 5172TIP3   OH237006   6.699   0.599  17.055 -0.1359  0.7320 -0.0072
 5172TIP3    H137007   6.651   0.637  17.129  1.6192  1.2698  0.9247
 5172TIP3    H237008   6.640   0.607  16.981 -1.7081  0.7826  1.1932
 5173TIP3   OH237009   5.059   1.136  15.696  0.4794  0.0395  0.1783
 5173TIP3    H137010   4.967   1.145  15.720  0.2643  0.5884 -0.8063
 5173TIP3    H237011   5.058   1.102  15.606  1.2197  0.7068 -0.0962
 5174TIP3   OH237012   6.377   4.281   4.056 -0.1020 -0.3943 -0.1743
 5174TIP3    H137013   6.354   4.215   3.990 -1.2401  0.9427 -1.1600
 5174TIP3    H237014   6.466   4.258   4.083 -0.1236 -1.7669 -1.1638
 5175TIP3   OH237015   3.682   2.145   6.015  0.3518  0.1763  0.3686
 5175TIP3    H137016   3.691   2.228   6.062  0.3508 -0.1446  0.9488
 5175TIP3    H237017   3.600   2.109   6.047  0.1814  0.1027 -0.1362
 5176TIP3   OH237018   4.740   5.739   3.234  0.3419  0.1252  0.3921
 5176TIP3    H137019   4.663   5.793   3.250  0.5353  0.7448 -0.7196
 5176TIP3    H237020   4.717   5.653   3.271 -2.0742 -0.6114 -2.4766
 5177TIP3   OH237021   4.814   4.699   4.105  0.1542 -0.3570 -0.0657
 5177TIP3    H137022   4.824   4.791   4.080 -0.2445  0.5395  2.7418
 5177TIP3    H237023   4.721   4.689   4.123  0.2407 -1.2289 -0.0435
 5178TIP3   OH237024   4.824   3.954  15.719  0.7165  0.1403 -0.0734
 5178TIP3    H137025   4.901   3.978  15.669  0.4089 -0.4337 -0.8388
 5178TIP3    H237026   4.753   3.953  15.655  0.5855 -2.0823  0.0538
 5179TIP3   OH237027   2.484   3.597   0.538 -0.1168  0.5782  0.3295
 5179TIP3    H137028   2.427   3.522   0.521  0.8355  0.0652 -0.7599
 5179TIP3    H237029   2.528   3.613   0.455  1.2276  1.0376  1.0922
 5180TIP3   OH237030   1.340   1.482   2.785  0.2399  0.2564 -0.3254
 5180TIP3    H137031   1.343   1.458   2.692 -2.7357  0.6485 -0.6260
 5180TIP3    H237032   1.310   1.573   2.786  0.4479  0.3300  1.0186
 5181TIP3   OH237033   3.657   5.965   5.683 -0.0588 -0.4814  0.8084
 5181TIP3    H137034   3.695   6.043   5.644 -0.5350 -1.0083 -0.7847
 5181TIP3    H237035   3.572   5.955   5.639  0.9324 -3.1412 -0.7599
 5182TIP3   OH237036   5.146   5.245   1.150 -0.6561 -0.5520 -0.2193
 5182TIP3    H137037   5.052   5.230   1.165 -0.5597 -0.5740  0.3675
 5182TIP3    H237038   5.152   5.265   1.056 -1.5279  1.5300  0.1013
 5183TIP3   OH237039   6.389   1.002  12.973  0.2696  0.1831  0.1082
 5183TIP3    H137040   6.426   1.074  12.921 -1.6568  0.1294 -1.5067
 5183TIP3    H237041   6.323   0.963  12.914 -1.3102 -0.5613  2.2530
 5184TIP3   OH237042   2.285   6.724   1.034 -0.0373  0.5835  0.6820
 5184TIP3    H137043   2.206   6.693   1.079 -0.8860  1.4546 -0.1474
 5184TIP3    H237044   2.334   6.645   1.014 -0.1605  0.1049  2.1657
 5185TIP3   OH237045   5.861   4.203  15.965  0.1726  0.1915  0.6839
 5185TIP3    H137046   5.850   4.294  15.992 -0.3456  0.6180 -0.8470
 5185TIP3    H237047   5.796   4.154  16.016  0.4761  0.6623  1.5335
 5186TIP3   OH237048   2.915   4.173  16.191  0.8061  0.8103  0.0688
 5186TIP3    H137049   2.978   4.222  16.244  0.7991 -0.7333  1.6036
 5186TIP3    H237050   2.942   4.082  16.200 -0.0347  0.3602 -1.5268
 5187TIP3   OH237051   4.391   5.354  14.257 -0.5826  0.3253  0.5492
 5187TIP3    H137052   4.306   5.316  14.279 -0.3625  0.5047  1.8457
 5187TIP3    H237053   4.440   5.283  14.216 -1.5376  0.3870 -0.7314
 5188TIP3   OH237054   0.598   6.765   2.477  0.3580 -0.3297  0.2732
 5188TIP3    H137055   0.526   6.707   2.452  0.8339  0.4490 -3.3663
 5188TIP3    H237056   0.651   6.712   2.537  0.0210 -3.1931 -1.7545
 5189TIP3   OH237057   4.292   4.305  16.225  0.6961 -0.0481 -0.1560
 5189TIP3    H137058   4.231   4.261  16.285 -0.0778 -2.7849 -2.6839
 5189TIP3    H237059   4.379   4.273  16.251  0.2848 -1.9352 -0.9074
 5190TIP3   OH237060   3.748   3.254   1.023  0.1181 -0.0470 -0.4191
 5190TIP3    H137061   3.758   3.287   1.112  1.8781  2.6197 -1.4951
 5190TIP3    H237062   3.819   3.190   1.014 -1.2959 -1.8639  0.6410
 5191TIP3   OH237063   5.550   3.853  10.597  0.1718  0.1965 -0.2641
 5191TIP3    H137064   5.472   3.815  10.637  0.2853 -0.2065 -0.4193
 5191TIP3    H237065   5.517   3.911  10.529 -0.0180  0.7362  0.2746
 5192TIP3   OH237066   0.071   5.449  12.233 -0.1796 -0.2705  0.4694
 5192TIP3    H137067   0.104   5.434  12.321  2.5543 -3.0521 -0.8346
 5192TIP3    H237068   0.054   5.362  12.197  1.4226  0.5000 -2.5650
 5193TIP3   OH237069   2.061   2.672   0.060 -0.2671 -0.0380 -1.0911
 5193TIP3    H137070   2.124   2.681   0.132 -1.9036  0.5365  0.3235
 5193TIP3    H237071   2.050   2.578   0.050 -1.9921 -0.2065  1.3152
 5194TIP3   OH237072   3.548   5.296   3.265 -0.5175  0.0486 -0.4042
 5194TIP3    H137073   3.471   5.325   3.314 -0.8168 -0.6300 -0.4596
 5194TIP3    H237074   3.565   5.208   3.298  0.2100  0.1754 -0.4306
 5195TIP3   OH237075   2.009   1.129   1.644  0.5199 -0.4642  0.0600
 5195TIP3    H137076   1.974   1.189   1.710  1.9857 -2.5401  2.9538
 5195TIP3    H237077   1.932   1.093   1.601 -0.5851  0.1930  1.4021
 5196TIP3   OH237078   0.988   2.264  15.275 -0.1903 -0.2506 -0.1606
 5196TIP3    H137079   1.052   2.198  15.250  1.4832  0.4541  1.9492
 5196TIP3    H237080   0.975   2.316  15.196  1.2263 -0.9190 -0.8768
 5197TIP3   OH237081   4.894   1.728  15.341 -0.4232 -0.1215 -0.5178
 5197TIP3    H137082   4.977   1.680  15.343 -0.6321 -0.7971 -3.5773
 5197TIP3    H237083   4.881   1.757  15.431  1.9444 -2.0030  0.5322
 5198TIP3   OH237084   6.661   2.848   5.198 -0.3998  0.0036  0.4178
 5198TIP3    H137085   6.692   2.840   5.108 -0.2442 -0.9582  0.5382
 5198TIP3    H237086   6.573   2.885   5.190 -0.0644  0.7129 -0.0667
 5199TIP3   OH237087   0.054   5.507   2.829  0.6452 -0.6584  0.0400
 5199TIP3    H137088  -0.021   5.447   2.832 -0.4692  0.6259 -0.9121
 5199TIP3    H237089   0.104   5.486   2.907 -2.3995  0.5397  2.5365
 5200TIP3   OH237090   3.889   2.735   4.971 -0.5812 -0.6701  0.0743
 5200TIP3    H137091   3.960   2.688   5.016 -0.0498  1.6653  1.8905
 5200TIP3    H237092   3.908   2.724   4.878  1.4608 -1.1346  0.5016
 5201TIP3   OH237093   0.671   5.492   2.654 -0.0975 -0.3299 -0.7171
 5201TIP3    H137094   0.588   5.516   2.696 -0.1867 -1.2246 -0.3527
 5201TIP3    H237095   0.736   5.496   2.724 -0.1283 -1.1656 -0.6196
 5202TIP3   OH237096   3.038   0.405  12.659 -0.3898  0.0926  0.5318
 5202TIP3    H137097   3.066   0.399  12.750  0.3906  0.3602  0.3179
 5202TIP3    H237098   3.072   0.326  12.617 -1.3628 -0.3865  0.6238
 5203TIP3   OH237099   3.086   3.070   1.329 -0.1883 -0.0497 -0.2103
 5203TIP3    H137100   3.157   3.073   1.394 -0.6054 -0.6870  0.2819
 5203TIP3    H237101   3.127   3.100   1.248  0.8104 -1.0158 -0.0878
 5204TIP3   OH237102   3.563   5.062  16.196 -0.5119  0.5450  0.0128
 5204TIP3    H137103   3.565   4.967  16.184  2.3431  0.4990  0.0025
 5204TIP3    H237104   3.540   5.074  16.288 -0.4375 -0.1929  0.1345
 5205TIP3   OH237105   4.077   6.672  10.422 -0.0708  0.2312  0.2941
 5205TIP3    H137106   4.113   6.720  10.348 -3.4893  0.5854 -1.3394
 5205TIP3    H237107   4.092   6.580  10.401  1.0654  0.3780  0.3888
 5206TIP3   OH237108   1.438   5.821  15.323  0.1919  0.2753  0.2130
 5206TIP3    H137109   1.419   5.728  15.312  1.5593 -0.2800  2.1085
 5206TIP3    H237110   1.352   5.862  15.335 -0.4380 -0.6908 -0.7719
 5207TIP3   OH237111   6.233   0.682  12.669 -0.0569  0.0581  0.1466
 5207TIP3    H137112   6.278   0.706  12.589 -0.2875 -1.7610 -0.5870
 5207TIP3    H237113   6.263   0.593  12.689 -1.4026 -0.2505  1.0197
 5208TIP3   OH237114   1.581   5.471  13.519  0.5036  0.4517 -0.2169
 5208TIP3    H137115   1.539   5.497  13.436 -3.6673  1.2510  1.8631
 5208TIP3    H237116   1.541   5.387  13.541  2.7648 -0.5598  0.3251
 5209TIP3   OH237117   2.762   1.076   2.773 -0.2848  0.0770  0.2020
 5209TIP3    H137118   2.840   1.111   2.730 -1.8275 -0.2587 -3.1956
 5209TIP3    H237119   2.778   0.982   2.779  0.4163  0.2563  1.5910
 5210TIP3   OH237120   0.737   2.237   5.380 -0.0926  0.2403 -0.0273
 5210TIP3    H137121   0.829   2.243   5.406 -0.3230  0.9357  0.6949
 5210TIP3    H237122   0.735   2.273   5.292  0.0664  2.0270  0.6482
 5211TIP3   OH237123   5.179   5.863  15.387  0.6313 -0.3725  0.0042
 5211TIP3    H137124   5.190   5.955  15.362  1.2701 -0.6384 -0.7425
 5211TIP3    H237125   5.099   5.862  15.439 -0.4642  0.3007 -1.6074
 5212TIP3   OH237126   6.605   4.924   3.809 -0.1725  0.6343 -0.2577
 5212TIP3    H137127   6.681   4.912   3.866 -0.2427 -1.1714 -0.5057
 5212TIP3    H237128   6.548   4.983   3.858 -0.0291 -0.5199  1.3581
 5213TIP3   OH237129   1.502   5.676   3.758  0.2568  0.2748  0.0599
 5213TIP3    H137130   1.597   5.686   3.764  0.3973 -0.6233 -0.5781
 5213TIP3    H237131   1.470   5.705   3.844  0.9571  2.1353 -0.2674
 5214TIP3   OH237132   1.635   5.133   0.053 -0.1338 -0.2435 -0.1956
 5214TIP3    H137133   1.564   5.137   0.117  1.3389 -1.0825  1.5797
 5214TIP3    H237134   1.714   5.153   0.104  1.0058 -0.1198 -1.9396
 5215TIP3   OH237135   5.501   1.610   3.111 -0.2923 -0.9677 -0.2671
 5215TIP3    H137136   5.440   1.643   3.177 -0.4488  0.7502 -1.2239
 5215TIP3    H237137   5.493   1.671   3.037  2.4360 -0.7737 -0.5148
 5216TIP3   OH237138   2.490   5.486   3.377  0.1323  0.4384 -0.7521
 5216TIP3    H137139   2.407   5.532   3.389  0.2927  1.2486 -2.5056
 5216TIP3    H237140   2.464   5.395   3.359 -0.2113 -0.0571  1.9009
 5217TIP3   OH237141   2.819   6.264  13.960  0.1193 -0.0936  0.1616
 5217TIP3    H137142   2.780   6.192  13.909 -1.7666  0.4343  0.7861
 5217TIP3    H237143   2.867   6.316  13.896 -2.4087  0.6989 -1.1804
 5218TIP3   OH237144   6.431   2.902  11.882  1.1154  0.6713  0.4045
 5218TIP3    H137145   6.503   2.867  11.934 -0.0352 -1.5629  0.6648
 5218TIP3    H237146   6.359   2.910  11.944  0.0059 -1.0821 -0.5495
 5219TIP3   OH237147   3.578   3.160  14.955 -0.0086  0.0630 -0.2476
 5219TIP3    H137148   3.504   3.183  14.899  0.0468  0.2382 -0.2477
 5219TIP3    H237149   3.615   3.082  14.914 -1.0899 -0.9246  0.5831
 5220TIP3   OH237150   6.123   2.679   0.127 -0.0974  0.5775  0.2706
 5220TIP3    H137151   6.118   2.598   0.178  0.3742  0.7648  0.6257
 5220TIP3    H237152   6.033   2.697   0.100 -0.2008 -0.0642  0.1948
 5221TIP3   OH237153   6.220   2.847  10.472  0.1106  0.3351 -0.0569
 5221TIP3    H137154   6.125   2.833  10.473 -0.0670  1.3967 -0.7094
 5221TIP3    H237155   6.254   2.774  10.420 -0.4392  0.4029 -0.5188
 5222TIP3   OH237156   1.161   0.941  14.565  0.0266  0.2507 -0.4363
 5222TIP3    H137157   1.229   1.008  14.576 -0.8969  1.0829  0.5199
 5222TIP3    H237158   1.193   0.886  14.493  1.3821  1.0020 -0.4589
 5223TIP3   OH237159   0.736   5.269  15.455  0.2698  0.3875 -0.3061
 5223TIP3    H137160   0.698   5.300  15.373  1.5132  2.1747 -0.2786
 5223TIP3    H237161   0.795   5.340  15.482  0.0835 -0.2495  2.0006
 5224TIP3   OH237162   3.129   6.133  12.945 -0.1106  0.4475 -0.5787
 5224TIP3    H137163   3.065   6.124  12.874 -0.6881  1.3924 -0.1877
 5224TIP3    H237164   3.136   6.227  12.960  0.2131  0.2732  0.4323
 5225TIP3   OH237165   1.414   0.162  13.171 -0.2215 -0.0603  0.6576
 5225TIP3    H137166   1.465   0.122  13.241  0.1450 -1.7581 -0.5143
 5225TIP3    H237167   1.479   0.188  13.106 -0.6975 -0.3111  0.0739
 5226TIP3   OH237168   2.351   4.236  15.706  0.1339  0.2868  0.1700
 5226TIP3    H137169   2.441   4.204  15.716 -0.0716  0.3286  2.7090
 5226TIP3    H237170   2.304   4.163  15.666  1.1121  0.0110 -0.5306
 5227TIP3   OH237171   5.572   4.643  13.821  0.1404  0.5316 -0.5988
 5227TIP3    H137172   5.557   4.670  13.731 -1.6624  0.2556 -0.4116
 5227TIP3    H237173   5.588   4.548  13.815 -1.2685  0.2735 -0.5282
 5228TIP3   OH237174   0.024   4.906  12.750 -0.2425  0.1687  0.0892
 5228TIP3    H137175   0.087   4.949  12.692  0.3674 -1.5184 -0.5879
 5228TIP3    H237176  -0.031   4.855  12.691 -0.2970 -0.7438  0.9011
 5229TIP3   OH237177   4.158   3.996   2.464  0.2781 -0.4942 -0.5200
 5229TIP3    H137178   4.110   3.953   2.393 -0.4585 -0.3097 -0.1374
 5229TIP3    H237179   4.090   4.026   2.525  0.8964 -0.5698  0.2212
 5230TIP3   OH237180   1.595   0.681  13.499  0.0432  0.2925  0.2363
 5230TIP3    H137181   1.682   0.713  13.522 -0.3027 -0.6993  3.3776
 5230TIP3    H237182   1.535   0.746  13.535 -0.5347 -0.8196  1.3651
 5231TIP3   OH237183   6.689   6.809  13.194  0.2173 -0.1396 -0.1932
 5231TIP3    H137184   6.598   6.821  13.169  0.7484 -0.6917 -2.6494
 5231TIP3    H237185   6.728   6.896  13.186  0.4310 -0.3512 -1.6285
 5232TIP3   OH237186   3.367   2.383   0.822  0.2889 -0.1585  0.1244
 5232TIP3    H137187   3.421   2.380   0.742 -0.0994  0.9329 -0.1886
 5232TIP3    H237188   3.279   2.360   0.791  0.4180 -1.2470  0.5171
 5233TIP3   OH237189   4.348   5.535   4.679 -0.3198 -0.0814  0.4021
 5233TIP3    H137190   4.295   5.511   4.604 -0.1549  1.1757 -0.1485
 5233TIP3    H237191   4.422   5.475   4.677 -1.2626 -1.2732  0.6673
 5234TIP3   OH237192   1.712   1.920  17.062 -0.2100 -0.1622 -0.4054
 5234TIP3    H137193   1.804   1.932  17.035  0.3242 -3.1118 -0.1689
 5234TIP3    H237194   1.714   1.845  17.120 -2.7061  0.2939  0.3733
 5235TIP3   OH237195   0.111   0.489   6.008 -0.4384 -0.9080 -0.1630
 5235TIP3    H137196   0.053   0.556   5.972  1.9500  1.4347  0.0359
 5235TIP3    H237197   0.095   0.492   6.103  0.8407  0.6487  0.0304
 5236TIP3   OH237198   4.052   4.929  11.454 -0.5738 -0.0576 -0.4026
 5236TIP3    H137199   4.107   4.950  11.530  2.0305 -1.6626 -1.7144
 5236TIP3    H237200   4.046   5.011  11.405  2.1472 -0.1670 -1.0621
 5237TIP3   OH237201   5.762   2.678   4.114  0.1480 -0.1854 -0.5573
 5237TIP3    H137202   5.831   2.656   4.051 -0.0308  0.9348 -1.1838
 5237TIP3    H237203   5.753   2.773   4.106 -0.7068 -0.1790  0.3226
 5238TIP3   OH237204   0.254   2.905   0.464  0.6677  0.3498  0.2305
 5238TIP3    H137205   0.237   2.861   0.547 -1.3124 -3.5490 -1.9606
 5238TIP3    H237206   0.171   2.948   0.443  0.1205 -1.2639 -1.0505
 5239TIP3   OH237207   4.899   0.773   4.106 -0.5263  0.0445 -0.3547
 5239TIP3    H137208   4.909   0.861   4.068 -0.8652  0.2956  0.1304
 5239TIP3    H237209   4.885   0.716   4.031 -0.5413  0.4408 -0.6573
 5240TIP3   OH237210   3.529   6.656   5.194 -0.1822 -0.0031  0.1845
 5240TIP3    H137211   3.565   6.726   5.140 -0.5125 -0.5327 -0.7469
 5240TIP3    H237212   3.605   6.611   5.229  0.0313  1.1694  1.2682
 5241TIP3   OH237213   4.739   6.506   5.439 -0.4551 -0.1177 -0.0137
 5241TIP3    H137214   4.709   6.469   5.521  1.1271  0.8058  1.0348
 5241TIP3    H237215   4.708   6.445   5.372 -0.6011 -1.6316  1.3784
 5242TIP3   OH237216   3.859   5.438  12.998 -0.1236 -0.0426  0.2517
 5242TIP3    H137217   3.858   5.499  13.072  1.9060  1.4130 -0.8101
 5242TIP3    H237218   3.767   5.429  12.974 -0.5373  2.9642  0.2704
 5243TIP3   OH237219   3.958   2.888   1.467  0.3880 -0.0121  0.0681
 5243TIP3    H137220   3.989   2.816   1.522 -1.6535  1.0085  2.7505
 5243TIP3    H237221   3.895   2.935   1.521  0.7035  3.1062 -1.9919
 5244TIP3   OH237222   6.629   1.106  14.486  0.0509  0.0122 -0.1621
 5244TIP3    H137223   6.607   1.180  14.542 -1.6274 -0.8812  0.4211
 5244TIP3    H237224   6.677   1.046  14.543  0.5658  0.2054 -0.3810
 5245TIP3   OH237225   6.130   2.725   2.250 -0.4275  0.2685  0.0555
 5245TIP3    H137226   6.044   2.711   2.211  0.0529 -1.5685 -0.4299
 5245TIP3    H237227   6.185   2.753   2.176 -0.1762 -0.4590 -0.0435
 5246TIP3   OH237228   0.933   4.350   5.783  0.0373 -0.3023  0.2223
 5246TIP3    H137229   1.029   4.343   5.778 -0.0734 -2.2231 -0.0221
 5246TIP3    H237230   0.915   4.441   5.760  1.8245  0.2463  0.7501
 5247TIP3   OH237231   6.223   6.081  16.663  1.0648 -0.2993 -0.1756
 5247TIP3    H137232   6.213   5.992  16.698  1.3767 -0.2103  0.1605
 5247TIP3    H237233   6.144   6.127  16.691  1.5693 -0.0678  0.9494
 5248TIP3   OH237234   5.310   3.884   0.836 -0.1471  0.0684 -0.1636
 5248TIP3    H137235   5.400   3.854   0.850  0.3394  1.1706 -0.7384
 5248TIP3    H237236   5.260   3.805   0.820  0.8239 -0.5248 -0.3482
 5249TIP3   OH237237   3.353   3.538  11.960  0.4502 -0.0626 -0.2925
 5249TIP3    H137238   3.418   3.474  11.930 -0.7105 -0.6088 -1.7601
 5249TIP3    H237239   3.394   3.623  11.943  2.4067 -0.2780  2.5317
 5250TIP3   OH237240   0.613   0.288  12.532  0.5020 -0.0482  0.2986
 5250TIP3    H137241   0.700   0.253  12.509 -0.0286 -0.4720 -1.1758
 5250TIP3    H237242   0.630   0.378  12.561  1.2758  0.5932 -1.9138
 5251TIP3   OH237243   1.008   1.124  12.344  0.2051  0.6718 -0.2546
 5251TIP3    H137244   1.057   1.175  12.409  1.0628  0.9068 -1.0561
 5251TIP3    H237245   0.936   1.085  12.393  1.5343 -0.1790  1.1279
 5252TIP3   OH237246   1.161   6.612  12.286  0.5921  0.1033 -0.3092
 5252TIP3    H137247   1.089   6.572  12.238  1.2884 -0.8557 -0.5810
 5252TIP3    H237248   1.145   6.590  12.378  1.5998 -1.8988 -0.5608
 5253TIP3   OH237249   6.443   1.819   5.466 -0.4871  0.3159 -0.4101
 5253TIP3    H137250   6.424   1.730   5.436  0.2158  0.3688 -1.0572
 5253TIP3    H237251   6.359   1.863   5.467 -0.9786 -0.6014  0.7687
 5254TIP3   OH237252   6.254   3.203   2.231  0.0851 -0.1157 -0.0424
 5254TIP3    H137253   6.177   3.145   2.239 -0.4794  0.4216 -1.3835
 5254TIP3    H237254   6.328   3.145   2.248 -0.5351 -0.9735 -0.1637
 5255TIP3   OH237255   6.467   2.766  16.232 -0.8353  0.4570 -0.6794
 5255TIP3    H137256   6.437   2.755  16.142 -1.7150  2.8411 -0.7498
 5255TIP3    H237257   6.508   2.852  16.234 -2.2571  1.1783  1.5390
 5256TIP3   OH237258   5.568   3.291  13.565  0.4681 -0.0634 -0.3622
 5256TIP3    H137259   5.584   3.205  13.526  2.3496 -0.4407  1.0951
 5256TIP3    H237260   5.638   3.301  13.629 -1.4928  1.2435  1.7022
 5257TIP3   OH237261   0.345   6.657  11.360  0.0347  0.1944  0.2895
 5257TIP3    H137262   0.391   6.578  11.389 -0.6223 -0.8340 -1.2902
 5257TIP3    H237263   0.395   6.686  11.283 -1.8814 -0.9900 -1.5150
 5258TIP3   OH237264   3.821   5.705   4.632 -0.4675 -0.7897 -0.3151
 5258TIP3    H137265   3.885   5.732   4.699 -0.9964 -1.5284  0.5129
 5258TIP3    H237266   3.797   5.616   4.657 -0.0437 -1.4182 -1.9977
 5259TIP3   OH237267   1.971   4.090   2.991  0.0941 -0.4128 -0.3389
 5259TIP3    H137268   2.028   4.062   3.063  0.1330  1.0570  0.2357
 5259TIP3    H237269   1.886   4.049   3.010  0.2710 -0.5264  0.2136
 5260TIP3   OH237270   6.072   4.253   3.629 -0.2665 -0.1452  0.1963
 5260TIP3    H137271   6.092   4.260   3.535 -0.2532  1.6483  0.2927
 5260TIP3    H237272   5.978   4.236   3.632 -0.1744 -0.7510 -0.1451
 5261TIP3   OH237273   4.521   1.591  12.690 -0.0836  0.3308 -0.1694
 5261TIP3    H137274   4.599   1.569  12.639  1.0513  1.6939  0.8910
 5261TIP3    H237275   4.522   1.529  12.763  1.7102  2.1603  1.4520
 5262TIP3   OH237276   4.129   2.970   3.095  0.1476  0.3626 -0.1841
 5262TIP3    H137277   4.188   2.971   3.170  0.6313  2.4986 -0.5125
 5262TIP3    H237278   4.182   3.001   3.021 -0.3281 -1.6322 -1.4535
 5263TIP3   OH237279   5.139   6.616   4.813  0.5339  0.5947 -0.0468
 5263TIP3    H137280   5.154   6.587   4.723 -0.3117 -0.6999  0.2238
 5263TIP3    H237281   5.060   6.571   4.841  1.0587  0.6032  1.5246
 5264TIP3   OH237282   4.914   4.800   6.106 -0.2030 -0.0013  0.0128
 5264TIP3    H137283   4.850   4.871   6.107  0.8508  0.9765  0.8575
 5264TIP3    H237284   4.862   4.720   6.099 -1.4907  0.7867  0.3336
 5265TIP3   OH237285   6.713   3.312  12.250  0.1196  0.3989  0.2631
 5265TIP3    H137286   6.785   3.313  12.313 -0.1231 -0.3207  0.5702
 5265TIP3    H237287   6.667   3.395  12.263  1.3353  1.2204 -0.4761
 5266TIP3   OH237288   1.744   0.191   2.074  0.2000 -0.3521 -0.2601
 5266TIP3    H137289   1.756   0.097   2.084 -1.5992 -0.8055 -1.7337
 5266TIP3    H237290   1.831   0.225   2.052  0.6378 -1.8769 -1.0136
 5267TIP3   OH237291   0.266   3.480  16.273 -0.1389 -0.5257  0.0450
 5267TIP3    H137292   0.225   3.438  16.348  0.5335 -1.3307 -0.0267
 5267TIP3    H237293   0.296   3.408  16.218 -0.3364  0.0516 -0.8475
 5268TIP3   OH237294   2.127   4.212   3.614  0.1634  0.5344  0.5947
 5268TIP3    H137295   2.106   4.283   3.675  0.6798  0.5336  0.7798
 5268TIP3    H237296   2.203   4.170   3.653  0.5605  0.5969 -0.1046
 5269TIP3   OH237297   4.344   3.073  11.542  0.1032  0.0954  0.5424
 5269TIP3    H137298   4.382   2.994  11.503 -0.3151  0.0056  0.3036
 5269TIP3    H237299   4.354   3.140  11.475 -1.4329 -0.2800 -0.1197
 5270TIP3   OH237300   6.548   0.232  16.748  0.1990  0.1768  0.2134
 5270TIP3    H137301   6.541   0.156  16.806  0.0519  1.0557  1.3717
 5270TIP3    H237302   6.606   0.202  16.677 -1.1048 -1.5114 -0.2073
 5271TIP3   OH237303   5.569   4.406   3.510  0.3592 -0.3220  0.2022
 5271TIP3    H137304   5.599   4.393   3.420 -0.1329  0.5141 -0.0902
 5271TIP3    H237305   5.480   4.372   3.510  0.0532  0.4767  0.1474
 5272TIP3   OH237306   2.505   5.131   4.816 -0.0529 -0.2639  0.3596
 5272TIP3    H137307   2.420   5.170   4.801 -0.2016  0.5722  2.9054
 5272TIP3    H237308   2.486   5.042   4.847  0.1271 -0.9184 -1.3290
 5273TIP3   OH237309   1.357   5.774   5.889  0.1355 -0.2742  0.2287
 5273TIP3    H137310   1.316   5.734   5.967 -1.0075  0.4951  0.0472
 5273TIP3    H237311   1.339   5.711   5.819 -0.5100 -0.0759  0.2084
 5274TIP3   OH237312   2.895   0.276   2.248 -0.4895  0.0300 -0.2769
 5274TIP3    H137313   2.850   0.337   2.190  0.5700  0.5658 -0.5603
 5274TIP3    H237314   2.940   0.331   2.311 -0.0193 -0.4732 -0.1620
 5275TIP3   OH237315   5.386   4.395   2.544 -0.1684 -0.0210 -1.2077
 5275TIP3    H137316   5.350   4.483   2.552 -0.1267  0.0156 -1.4150
 5275TIP3    H237317   5.398   4.382   2.450  1.2623  0.3405 -1.1000
 5276TIP3   OH237318   0.804   6.733   5.478  0.5308 -0.1595  0.2966
 5276TIP3    H137319   0.742   6.676   5.433  0.0667  0.1275  0.5697
 5276TIP3    H237320   0.778   6.730   5.570  2.4778 -2.0702  0.8878
 5277TIP3   OH237321   2.022   2.450   5.293  0.0278 -0.4665  0.0027
 5277TIP3    H137322   2.090   2.502   5.251  0.1230  0.4625  1.2785
 5277TIP3    H237323   2.040   2.456   5.387 -1.5567 -0.5491  0.3442
 5278TIP3   OH237324   0.314   4.175  14.448 -0.1559  0.2830 -0.0974
 5278TIP3    H137325   0.349   4.127  14.523 -0.2637  0.6790  0.2085
 5278TIP3    H237326   0.325   4.115  14.375 -1.0877 -0.5789  0.4312
 5279TIP3   OH237327   3.106   6.261   6.137 -0.2445  0.0155 -0.2548
 5279TIP3    H137328   3.185   6.312   6.155  0.9957 -1.0123 -2.4475
 5279TIP3    H237329   3.081   6.224   6.222  1.9987 -0.1260  0.3930
 5280TIP3   OH237330   4.958   3.925  13.485  0.7938  1.1243  0.0014
 5280TIP3    H137331   4.864   3.914  13.499  0.6596 -0.2308 -1.7644
 5280TIP3    H237332   4.990   3.961  13.568 -1.1015  0.6177  1.0024
 5281TIP3   OH237333   4.090   5.871  12.362  0.1180 -0.2654  0.0380
 5281TIP3    H137334   4.081   5.794  12.305 -2.3449 -0.8249  1.0636
 5281TIP3    H237335   4.033   5.937  12.323  0.9531  0.5201  0.0914
 5282TIP3   OH237336   4.944   2.444  14.322 -0.3013 -0.6039  0.3177
 5282TIP3    H137337   4.974   2.487  14.242 -0.0319  1.4434  1.4646
 5282TIP3    H237338   5.018   2.392  14.350  0.8036  1.2208  0.9332
 5283TIP3   OH237339   4.718   5.103  15.553  0.3053 -0.5994  0.2222
 5283TIP3    H137340   4.657   5.032  15.573  2.0328 -1.8417  1.4127
 5283TIP3    H237341   4.789   5.091  15.616  1.1457  1.6024 -0.2221
 5284TIP3   OH237342   0.191   1.790   3.734  0.9637 -0.4785 -0.3612
 5284TIP3    H137343   0.129   1.798   3.807  0.1221 -0.4601 -1.0639
 5284TIP3    H237344   0.172   1.705   3.695  0.5899  0.0327 -1.2972
 5285TIP3   OH237345   0.284   3.774  14.317 -0.0966 -0.3683 -0.4342
 5285TIP3    H137346   0.319   3.720  14.246  0.8793  1.5444 -1.4803
 5285TIP3    H237347   0.358   3.828  14.346 -1.0484  0.5018  0.4847
 5286TIP3   OH237348   1.168   6.453   4.978 -0.0841  0.2062 -0.8843
 5286TIP3    H137349   1.244   6.456   5.036  0.3001  0.2476 -1.3868
 5286TIP3    H237350   1.093   6.456   5.037  0.3019 -0.0095 -0.3727
 5287TIP3   OH237351   1.142   3.816   2.853  0.3065 -0.7730  0.1816
 5287TIP3    H137352   1.173   3.788   2.939  0.2990 -0.4194  0.3037
 5287TIP3    H237353   1.217   3.860   2.814  0.0743 -0.2258  0.3370
 5288TIP3   OH237354   6.291   4.002   2.727  0.2978  0.5716  0.3801
 5288TIP3    H137355   6.249   4.039   2.805 -0.2078 -1.2869  1.0455
 5288TIP3    H237356   6.335   3.923   2.759 -1.1147 -1.0326 -1.4337
 5289TIP3   OH237357   6.066   1.614   6.460 -0.3856 -0.6194  0.9332
 5289TIP3    H137358   5.995   1.583   6.517 -2.4631 -1.4350 -1.8835
 5289TIP3    H237359   6.123   1.538   6.449 -0.6830 -0.8436  0.9183
 5290TIP3   OH237360   5.117   6.403  15.258 -0.2358  0.2280 -0.0293
 5290TIP3    H137361   5.151   6.490  15.276 -1.4632  0.9600 -1.0875
 5290TIP3    H237362   5.180   6.364  15.197  1.8526 -0.7873  2.5880
 5291TIP3   OH237363   4.854   4.372  17.100  0.4397 -0.1732 -0.1358
 5291TIP3    H137364   4.841   4.287  17.058 -0.0182  0.5212 -1.4561
 5291TIP3    H237365   4.900   4.425  17.034 -1.0392  1.2123 -0.1173
 5292TIP3   OH237366   5.605   4.149   0.838 -0.3032 -0.1521 -0.0071
 5292TIP3    H137367   5.563   4.196   0.910  1.0072 -1.8749  2.0205
 5292TIP3    H237368   5.677   4.206   0.811  1.2558 -0.8299  2.4012
 5293TIP3   OH237369   2.234   0.016  16.036 -0.3028  0.6544  0.1425
 5293TIP3    H137370   2.319   0.005  15.993 -0.5958 -3.3630  0.1569
 5293TIP3    H237371   2.252  -0.004  16.128 -1.3511 -1.5134 -0.0611
 5294TIP3   OH237372   4.307   4.159   4.128  0.5566 -0.1803 -0.1731
 5294TIP3    H137373   4.290   4.188   4.218 -1.0832  0.3983 -0.6509
 5294TIP3    H237374   4.266   4.073   4.123  1.2129 -0.4978 -0.1946
 5295TIP3   OH237375   3.448   3.158  13.457 -0.5312  0.2220 -0.1649
 5295TIP3    H137376   3.436   3.240  13.506 -1.0480 -0.8194  1.5248
 5295TIP3    H237377   3.477   3.095  13.523 -0.9876 -1.1781 -1.2683
 5296TIP3   OH237378   3.882   4.336   1.380  0.6715  0.2281 -0.5406
 5296TIP3    H137379   3.877   4.311   1.472  2.3959 -2.7928 -1.1301
 5296TIP3    H237380   3.799   4.307   1.342  0.2079  0.9326 -0.0922
 5297TIP3   OH237381   6.621   1.428  14.426  0.0156 -0.1754 -0.4638
 5297TIP3    H137382   6.638   1.519  14.402 -2.2071  0.1308 -1.1022
 5297TIP3    H237383   6.701   1.400  14.472  1.0192  1.8577 -0.8462
 5298TIP3   OH237384   4.908   1.763  14.113 -0.3486  0.2990  0.1976
 5298TIP3    H137385   4.976   1.709  14.154  0.1042  0.2999 -0.5468
 5298TIP3    H237386   4.891   1.833  14.176 -1.4893 -1.1089  1.5453
 5299TIP3   OH237387   3.946   1.041   1.252 -0.1714  0.2349 -0.1257
 5299TIP3    H137388   3.915   0.962   1.209 -0.7240  0.7927 -0.7713
 5299TIP3    H237389   3.902   1.112   1.206  0.8956  0.9652 -0.0501
 5300TIP3   OH237390   0.304   4.792   4.980  0.4496 -0.2674 -0.3536
 5300TIP3    H137391   0.279   4.798   4.888 -0.5697  0.4280 -0.0501
 5300TIP3    H237392   0.222   4.803   5.029  1.1542  0.8432  0.6574
 5301TIP3   OH237393   4.332   2.048   5.446  0.1844 -0.2342  0.2440
 5301TIP3    H137394   4.428   2.052   5.446  0.2626 -1.0456 -2.0562
 5301TIP3    H237395   4.305   2.119   5.388 -0.6281 -0.2401  0.6013
 5302TIP3   OH237396   5.870   6.314   3.551  0.4413 -0.5494  0.5195
 5302TIP3    H137397   5.774   6.314   3.544  0.5047  1.1163 -1.4451
 5302TIP3    H237398   5.887   6.316   3.645 -1.4727 -0.2003  0.9115
 5303TIP3   OH237399   2.357   0.720  13.553  0.0632  0.4065 -0.0284
 5303TIP3    H137400   2.290   0.697  13.617 -0.4929 -0.4161 -0.8719
 5303TIP3    H237401   2.415   0.780  13.599 -0.9963  0.7772  0.8599
 5304TIP3   OH237402   5.794   1.242   1.092  0.2472 -0.2598  0.3492
 5304TIP3    H137403   5.873   1.280   1.053 -0.1900 -1.1821 -1.5730
 5304TIP3    H237404   5.750   1.316   1.134  1.2959  0.5990 -0.0155
 5305TIP3   OH237405   3.134   4.754  13.228  0.1654  0.1914 -0.1130
 5305TIP3    H137406   3.198   4.685  13.247  0.6548  0.8823  0.8308
 5305TIP3    H237407   3.065   4.741  13.293  0.3746  0.7197  0.2246
 5306TIP3   OH237408   0.856   2.122   2.759 -0.4074  0.2001 -0.4275
 5306TIP3    H137409   0.840   2.214   2.777 -1.2101 -0.2432  1.4203
 5306TIP3    H237410   0.935   2.121   2.705  0.3910  1.9069  0.6158
 5307TIP3   OH237411   6.596   4.750  17.288 -0.7523  0.1696  0.0900
 5307TIP3    H137412   6.522   4.694  17.310 -2.1549  2.5255  1.8193
 5307TIP3    H237413   6.634   4.710  17.210 -0.8781 -3.8172  1.8294
 5308TIP3   OH237414   4.110   5.949   1.966  0.1975 -0.7180  0.2908
 5308TIP3    H137415   4.137   6.041   1.963 -0.5536 -0.4813  0.6517
 5308TIP3    H237416   4.051   5.944   2.042 -1.0887 -1.1371 -0.7134
 5309TIP3   OH237417   0.226   0.884   6.054 -0.0702  0.6208  0.2233
 5309TIP3    H137418   0.160   0.861   5.988  0.1602  0.7739 -0.0618
 5309TIP3    H237419   0.206   0.827   6.129 -0.5393  0.6812  0.1480
 5310TIP3   OH237420   5.929   6.118   2.274  0.5934  0.0419 -0.5659
 5310TIP3    H137421   5.857   6.062   2.245  1.4884 -0.0299 -2.8783
 5310TIP3    H237422   5.997   6.057   2.304 -0.0510  0.0968  1.1353
 5311TIP3   OH237423   3.974   1.553  15.001  0.7747  0.0908  0.5551
 5311TIP3    H137424   3.895   1.562  14.948  0.9559 -1.3220  0.0044
 5311TIP3    H237425   4.044   1.585  14.945  0.7249  0.4529  0.6941
 5312TIP3   OH237426   1.948   5.768   0.373  0.7354  0.0225 -0.1224
 5312TIP3    H137427   2.007   5.744   0.444  0.9332  0.5938 -0.0876
 5312TIP3    H237428   1.941   5.689   0.320 -0.9936 -1.0583  1.6083
 5313TIP3   OH237429   6.131   0.543   0.433  0.1359  0.3577  0.1652
 5313TIP3    H137430   6.063   0.495   0.479 -0.3531 -0.1807 -1.0727
 5313TIP3    H237431   6.128   0.509   0.343  2.7642 -0.4891  0.3110
 5314TIP3   OH237432   4.051   2.254  13.630  0.2480 -0.1403  0.2148
 5314TIP3    H137433   3.959   2.277  13.638  0.0390 -0.9885  0.2931
 5314TIP3    H237434   4.086   2.265  13.718 -0.8591 -4.3052  1.3955
 5315TIP3   OH237435   2.561   0.030   4.813 -0.0819  0.2968  0.4412
 5315TIP3    H137436   2.652   0.012   4.787 -0.2962 -2.7996  1.4488
 5315TIP3    H237437   2.563   0.120   4.846  2.6631  0.2733  0.5978
 5316TIP3   OH237438   3.410   4.023  16.719  0.7121 -0.2174 -0.9320
 5316TIP3    H137439   3.472   4.084  16.681 -0.1622  0.2263 -1.6728
 5316TIP3    H237440   3.324   4.057  16.696  0.1248 -0.0307  1.2662
 5317TIP3   OH237441   3.721   3.592   3.641  0.2506  0.2333 -0.1730
 5317TIP3    H137442   3.752   3.508   3.676  3.3367  1.1346 -0.4934
 5317TIP3    H237443   3.679   3.635   3.716  0.6260 -0.6782  0.5807
 5318TIP3   OH237444   0.412   2.795   4.247 -0.4000 -0.2013  0.6372
 5318TIP3    H137445   0.508   2.797   4.247 -0.2799 -0.9374 -2.2033
 5318TIP3    H237446   0.388   2.797   4.339  2.3921 -1.2439  1.5087
 5319TIP3   OH237447   1.416   2.052  12.256  0.2141  0.1477  0.4136
 5319TIP3    H137448   1.349   1.994  12.219  0.5293  0.0181  0.0336
 5319TIP3    H237449   1.419   2.126  12.196  0.0231  0.4177  0.7364
 5320TIP3   OH237450   0.762   4.519   4.424  0.4662  1.0965  0.0137
 5320TIP3    H137451   0.799   4.430   4.427  0.0360  0.8510 -1.2732
 5320TIP3    H237452   0.680   4.513   4.473  1.1687  1.1636  1.2153
 5321TIP3   OH237453   4.751   5.645  15.800 -0.4739 -0.1218  0.2129
 5321TIP3    H137454   4.671   5.594  15.790 -1.5387  1.2512  1.4021
 5321TIP3    H237455   4.751   5.673  15.891 -0.7368  3.2172 -0.6649
 5322TIP3   OH237456   6.041   1.852   4.350  0.0060 -0.7814  0.6376
 5322TIP3    H137457   6.112   1.789   4.360  0.2759 -0.4698  0.6888
 5322TIP3    H237458   5.972   1.820   4.408  0.4941 -0.5218  1.3687
 5323TIP3   OH237459   0.162   1.366   1.048  1.1124  0.0508  0.4843
 5323TIP3    H137460   0.083   1.315   1.063  0.1145  0.9827 -1.2872
 5323TIP3    H237461   0.132   1.443   1.000  3.3385 -0.7706 -2.5381
 5324TIP3   OH237462   1.152   4.394  12.354 -0.0513  0.6631 -0.0677
 5324TIP3    H137463   1.056   4.398  12.360 -0.1905 -0.5704 -1.1153
 5324TIP3    H237464   1.176   4.319  12.409  0.1635  0.0227 -1.0178
 5325TIP3   OH237465   4.999   1.292  11.503  0.4677 -0.1691  0.1743
 5325TIP3    H137466   4.907   1.266  11.497  0.5113 -1.0727  2.5140
 5325TIP3    H237467   5.005   1.341  11.585  1.3789  3.3052 -1.7667
 5326TIP3   OH237468   3.778   1.704   4.291 -0.3450  0.0746  0.3809
 5326TIP3    H137469   3.739   1.697   4.379  0.7120 -1.1228  0.7835
 5326TIP3    H237470   3.741   1.785   4.255 -0.8452  0.5627  1.9070
 5327TIP3   OH237471   2.257   4.032  15.589 -0.6868  0.4363 -0.1301
 5327TIP3    H137472   2.300   3.949  15.607 -1.9633  0.0146  1.1757
 5327TIP3    H237473   2.294   4.061  15.506  0.7376 -0.7822  0.0482
 5328TIP3   OH237474   5.463   4.936   2.624  0.6342 -0.9920 -0.0730
 5328TIP3    H137475   5.388   4.885   2.656  0.8140 -0.9740  0.3920
 5328TIP3    H237476   5.426   4.999   2.563  0.4433 -1.8955 -0.9217
 5329TIP3   OH237477   5.508   0.280  16.513 -0.2481  0.1500  0.2876
 5329TIP3    H137478   5.482   0.310  16.600  0.5822  1.2214  0.1912
 5329TIP3    H237479   5.505   0.185  16.518  0.4369  0.1850  1.7003
 5330TIP3   OH237480   1.690   4.220  15.756  0.1644  0.5741 -0.1300
 5330TIP3    H137481   1.785   4.208  15.757 -0.1399 -2.6263 -0.6678
 5330TIP3    H237482   1.659   4.180  15.837 -0.7013  2.6862  0.6536
 5331TIP3   OH237483   5.094   2.744   0.921  0.1757  0.2714 -0.4917
 5331TIP3    H137484   5.184   2.773   0.939 -0.0271 -0.1356  1.3961
 5331TIP3    H237485   5.081   2.670   0.980 -1.1848 -0.1225 -1.2569
 5332TIP3   OH237486   0.112   0.044  11.662 -0.0714  0.6530  0.0105
 5332TIP3    H137487   0.089   0.042  11.569 -1.2797  0.8063  0.2809
 5332TIP3    H237488   0.132  -0.047  11.684 -0.5333  0.4910 -0.2302
 5333TIP3   OH237489   6.393   6.335   2.647  0.1460  0.0420 -0.5747
 5333TIP3    H137490   6.353   6.359   2.730 -1.1991  3.1869 -1.9905
 5333TIP3    H237491   6.368   6.244   2.634 -1.8034  0.2473  1.2404
 5334TIP3   OH237492   5.642   5.645  15.511 -0.5747  0.2971  0.0673
 5334TIP3    H137493   5.622   5.590  15.587  0.0670 -1.1758 -0.7804
 5334TIP3    H237494   5.556   5.662  15.471 -0.6987 -1.1527 -0.3379
 5335TIP3   OH237495   3.217   3.972  16.077 -0.6797  0.5748  0.2248
 5335TIP3    H137496   3.225   3.926  15.994  0.4161  1.1413 -0.0041
 5335TIP3    H237497   3.128   3.955  16.106 -0.0578 -2.4958  0.6513
 5336TIP3   OH237498   4.703   5.891  15.646 -0.4675 -0.4732 -0.0878
 5336TIP3    H137499   4.696   5.825  15.716  1.5795  0.3024  0.9460
 5336TIP3    H237500   4.684   5.842  15.566 -1.3500 -1.7607  0.8550
 5337TIP3   OH237501   2.798   1.019  12.982  0.5184  0.2856  0.5844
 5337TIP3    H137502   2.703   1.021  12.996  0.6804  0.8897  1.7011
 5337TIP3    H237503   2.810   0.958  12.909 -0.7858  0.8776 -0.1507
 5338TIP3   OH237504   0.645   1.976   5.435 -0.5925  0.8161 -0.2177
 5338TIP3    H137505   0.694   2.058   5.432  0.6414  0.1541  0.6553
 5338TIP3    H237506   0.571   1.989   5.375 -0.0913  2.3341 -0.5429
 5339TIP3   OH237507   3.291   1.100   1.409 -0.5956  0.8498  0.0464
 5339TIP3    H137508   3.225   1.047   1.365 -0.9442  0.5038  0.9577
 5339TIP3    H237509   3.256   1.115   1.497  0.1889  1.3141  0.2958
 5340TIP3   OH237510   2.964   0.615  16.895  0.0779 -0.4366 -0.2390
 5340TIP3    H137511   2.927   0.533  16.862 -1.9016  0.1326  0.4270
 5340TIP3    H237512   2.902   0.682  16.866  1.2893  0.7407 -0.1653
 5341TIP3   OH237513   0.192   1.757   1.248 -0.0306  0.1621 -1.0483
 5341TIP3    H137514   0.199   1.662   1.240  0.7500  0.1942 -0.7441
 5341TIP3    H237515   0.230   1.778   1.333  0.9220  0.8630 -1.6224
 5342TIP3   OH237516   4.752   3.952   2.801 -0.5990 -0.2620 -0.0023
 5342TIP3    H137517   4.778   3.886   2.865 -0.4843 -0.2533 -0.0405
 5342TIP3    H237518   4.813   3.940   2.728 -1.4801 -1.0811 -0.6256
 5343TIP3   OH237519   4.705   4.281  14.280  0.0697 -0.2436  0.4558
 5343TIP3    H137520   4.707   4.214  14.211 -1.7492 -0.3282  0.4416
 5343TIP3    H237521   4.794   4.315  14.282  0.4605 -1.0508 -1.1387
 5344TIP3   OH237522   4.801   6.658  15.350  0.1856 -0.1842  0.3538
 5344TIP3    H137523   4.776   6.677  15.440  0.5445  2.8777 -0.0635
 5344TIP3    H237524   4.724   6.683  15.298  0.6520 -0.0241 -0.2825
 5345TIP3   OH237525   4.601   3.651   3.621 -0.0207 -0.1550  0.2094
 5345TIP3    H137526   4.590   3.699   3.539  0.6258 -1.4047 -0.6346
 5345TIP3    H237527   4.514   3.617   3.642 -0.4045  1.0087  0.6128
 5346TIP3   OH237528   1.239   4.790  17.285 -0.1474 -0.4694  0.4526
 5346TIP3    H137529   1.246   4.707  17.238 -1.8259 -0.0887 -0.5965
 5346TIP3    H237530   1.276   4.773  17.371  1.0328 -1.8300 -0.2849
 5347TIP3   OH237531   1.630   4.057   1.250 -0.5632  0.3905  0.8783
 5347TIP3    H137532   1.581   3.993   1.300 -0.9526 -0.4453 -0.5204
 5347TIP3    H237533   1.631   4.135   1.305 -1.2742 -0.3719  2.0093
 5348TIP3   OH237534   4.734   0.394   1.441  0.4888  0.3797  0.3870
 5348TIP3    H137535   4.724   0.465   1.377 -1.8523  0.1632  0.4219
 5348TIP3    H237536   4.667   0.413   1.508 -0.0471 -1.7394  0.5013
 5349TIP3   OH237537   3.837   6.814  11.344  0.4904  0.3476  0.1651
 5349TIP3    H137538   3.881   6.797  11.427  0.1170  0.0994  0.3158
 5349TIP3    H237539   3.881   6.756  11.281 -0.5338 -0.9610  0.6005
 5350TIP3   OH237540   3.788   3.331   4.416  0.2153 -0.4520 -1.2297
 5350TIP3    H137541   3.832   3.275   4.481  0.4783 -1.1628 -2.0083
 5350TIP3    H237542   3.703   3.351   4.457  0.4814 -0.6666 -0.5464
 5351TIP3   OH237543   0.862   4.278   3.269 -0.2209  0.6029 -0.1259
 5351TIP3    H137544   0.825   4.359   3.305 -1.1031 -0.2770  1.0571
 5351TIP3    H237545   0.949   4.303   3.239  0.6822  1.4308  2.8201
 5352TIP3   OH237546   1.160   5.485   0.407  0.2292 -0.9168 -0.2766
 5352TIP3    H137547   1.104   5.562   0.417  1.2555 -0.2055  0.1531
 5352TIP3    H237548   1.155   5.464   0.314  0.6468  0.2357 -0.5805
 5353TIP3   OH237549   2.470   5.039  16.235 -0.0837 -0.1760  0.7343
 5353TIP3    H137550   2.492   5.096  16.308  1.2442 -0.1935  0.3753
 5353TIP3    H237551   2.508   5.083  16.159 -2.8778  0.7368 -0.2815
 5354TIP3   OH237552   2.351   0.208   6.602  0.2106  0.6834  0.5714
 5354TIP3    H137553   2.417   0.213   6.672  0.0363 -1.3852  0.9555
 5354TIP3    H237554   2.268   0.203   6.648  0.0139  0.3314  0.1811
 5355TIP3   OH237555   5.977   0.300  14.622 -0.4873 -0.4249 -0.4080
 5355TIP3    H137556   6.040   0.372  14.619 -0.4306 -0.5231 -2.5573
 5355TIP3    H237557   6.028   0.225  14.653 -0.4659  0.3061  1.4858
 5356TIP3   OH237558   1.705   5.980  13.152 -0.0091 -0.5788 -0.4492
 5356TIP3    H137559   1.674   6.015  13.236  0.2628 -0.3359 -0.4488
 5356TIP3    H237560   1.641   6.012  13.088 -0.5204 -1.2121 -0.2642
 5357TIP3   OH237561   6.468   3.610   6.568  0.2359 -0.1336 -0.0525
 5357TIP3    H137562   6.409   3.655   6.507  0.1409  0.6202  0.5806
 5357TIP3    H237563   6.458   3.517   6.547  0.5979  0.1247 -1.5507
 5358TIP3   OH237564   3.099   6.706  11.669 -0.1372 -0.2825  0.2880
 5358TIP3    H137565   3.182   6.718  11.623 -1.4927 -0.2675 -2.3003
 5358TIP3    H237566   3.068   6.795  11.686  0.5607 -0.2847  1.6988
 5359TIP3   OH237567   3.510   3.486  10.742 -0.1314 -0.1231 -0.1153
 5359TIP3    H137568   3.567   3.422  10.701 -0.8653 -0.2720 -0.9171
 5359TIP3    H237569   3.470   3.534  10.670  0.3165  1.1742  0.4639
 5360TIP3   OH237570   2.138   6.352  15.249  0.2946  0.1193  0.0052
 5360TIP3    H137571   2.046   6.335  15.269  0.0078 -0.1527 -1.4839
 5360TIP3    H237572   2.147   6.447  15.260  0.0342  0.0580  0.8560
 5361TIP3   OH237573   1.169   1.485  17.108  0.2802 -0.4316 -0.3297
 5361TIP3    H137574   1.239   1.501  17.171  1.1869 -1.0572 -1.1415
 5361TIP3    H237575   1.097   1.539  17.138  0.6825 -0.7057  1.2390
 5362TIP3   OH237576   2.363   1.124  12.227  0.1785  0.1669  0.4418
 5362TIP3    H137577   2.405   1.084  12.303  1.3959 -0.7842 -0.6847
 5362TIP3    H237578   2.342   1.050  12.170  2.8973  0.9987 -1.9154
 5363TIP3   OH237579   3.658   4.918  10.908  0.4193 -0.6011 -0.3306
 5363TIP3    H137580   3.675   4.958  10.993  2.3717  0.6708 -1.2625
 5363TIP3    H237581   3.587   4.971  10.870 -1.3048 -1.8882  0.8918
 5364TIP3   OH237582   4.532   0.506  13.128  0.3594 -0.3935 -0.0725
 5364TIP3    H137583   4.514   0.600  13.124 -0.2265 -0.4537  0.9461
 5364TIP3    H237584   4.545   0.488  13.221  2.5236 -0.9613 -0.4205
 5365TIP3   OH237585   3.808   4.969   2.467 -0.1790 -0.1794  0.7396
 5365TIP3    H137586   3.730   4.931   2.427  0.2005 -0.2088  0.0106
 5365TIP3    H237587   3.776   5.015   2.545 -1.1075  0.9385 -0.2689
 5366TIP3   OH237588   3.406   2.946   1.377 -0.1417  0.3444  0.4239
 5366TIP3    H137589   3.408   2.867   1.323 -2.4623 -0.0653  0.8283
 5366TIP3    H237590   3.374   2.917   1.462 -1.3749  1.7125  0.4889
 5367TIP3   OH237591   3.100   0.607  13.168  0.2710 -0.0185  0.2092
 5367TIP3    H137592   3.139   0.686  13.206 -3.5138  0.6549  3.3295
 5367TIP3    H237593   3.034   0.639  13.107  0.5965 -0.9275 -0.6586
 5368TIP3   OH237594   5.029   0.839  13.731 -0.1666  0.8453 -0.0849
 5368TIP3    H137595   5.089   0.778  13.688  0.0391  0.9740  0.0219
 5368TIP3    H237596   5.006   0.902  13.663 -0.6024  0.4902 -0.2766
 5369TIP3   OH237597   4.529   5.378   4.925  0.5544  0.1790 -0.2102
 5369TIP3    H137598   4.505   5.425   5.005 -0.5151  0.9670 -0.9588
 5369TIP3    H237599   4.458   5.397   4.864  0.1577 -2.3032 -0.6292
 5370TIP3   OH237600   1.082   6.487   2.171  0.1153  0.6269 -0.1001
 5370TIP3    H137601   1.118   6.561   2.220 -0.8557  0.8803  0.2550
 5370TIP3    H237602   0.987   6.493   2.185  0.1097 -1.7671  1.4983
 5371TIP3   OH237603   3.848   1.741   5.751 -0.2094  0.2282  0.1417
 5371TIP3    H137604   3.872   1.659   5.795 -0.8177  0.7979  1.5861
 5371TIP3    H237605   3.756   1.754   5.772 -0.3493  0.8763 -0.7786
 5372TIP3   OH237606   0.826   4.062  13.852  0.3101 -0.4023  0.5572
 5372TIP3    H137607   0.893   4.088  13.916 -0.4333  0.0361  1.1782
 5372TIP3    H237608   0.776   4.142  13.836 -1.9678 -1.3382  2.4067
 5373TIP3   OH237609   4.106   1.057  15.155 -0.5699  0.4894  0.0259
 5373TIP3    H137610   4.036   1.120  15.140 -0.2548  0.5623 -1.2749
 5373TIP3    H237611   4.133   1.072  15.246  0.4397  3.1893 -0.6292
 5374TIP3   OH237612   0.301   2.298  16.948  0.0141 -0.2584 -0.3282
 5374TIP3    H137613   0.373   2.260  16.999  0.4548 -0.0056 -0.7501
 5374TIP3    H237614   0.282   2.232  16.881 -0.8990 -0.8109  0.4403
 5375TIP3   OH237615   6.362   0.117   2.781 -0.0250 -0.1371  0.3475
 5375TIP3    H137616   6.404   0.127   2.866  0.5952  1.0132 -0.0782
 5375TIP3    H237617   6.397   0.188   2.728 -0.6044 -0.6731 -0.7954
 5376TIP3   OH237618   2.498   5.357  15.022 -0.3141  0.5682  1.5187
 5376TIP3    H137619   2.417   5.389  15.062 -1.2970  1.5287 -1.0265
 5376TIP3    H237620   2.549   5.436  15.005 -0.6216  0.3728 -0.4679
 5377TIP3   OH237621   2.505   5.723   0.504  0.0743 -0.1769  0.0890
 5377TIP3    H137622   2.455   5.794   0.466 -0.6717 -0.9123 -0.3463
 5377TIP3    H237623   2.540   5.759   0.586  2.8573  1.8861 -1.8219
 5378TIP3   OH237624   2.089   2.784  11.740  0.0965  0.9236 -0.3576
 5378TIP3    H137625   2.030   2.836  11.794 -0.5629 -0.0868 -0.0717
 5378TIP3    H237626   2.039   2.705  11.719  1.5376 -0.2608  0.4147
 5379TIP3   OH237627   5.314   5.139   3.804  0.2287 -0.0263  0.4602
 5379TIP3    H137628   5.225   5.173   3.801  0.7760  1.4571 -1.3506
 5379TIP3    H237629   5.321   5.082   3.727  0.6345 -0.7155  0.9965
 5380TIP3   OH237630   2.738   0.307   3.832  0.4033 -0.5773 -0.0278
 5380TIP3    H137631   2.721   0.341   3.744 -2.1712 -0.9037  0.2728
 5380TIP3    H237632   2.833   0.307   3.839  0.7459 -1.2021 -3.0734
 5381TIP3   OH237633   5.184   3.348   5.055  0.0960  0.8044 -0.3817
 5381TIP3    H137634   5.178   3.291   5.132 -0.2024  0.2739 -0.7873
 5381TIP3    H237635   5.241   3.420   5.083 -0.2632  0.7896  0.4310
 5382TIP3   OH237636   3.752   1.404   4.703 -0.7345 -0.2593 -0.2999
 5382TIP3    H137637   3.704   1.482   4.729 -2.7585 -1.8694  1.2347
 5382TIP3    H237638   3.815   1.389   4.774 -1.3750 -0.7930  0.1708
 5383TIP3   OH237639   3.601   1.160   3.098  0.4209 -0.1169  0.1029
 5383TIP3    H137640   3.574   1.188   3.186 -1.3771 -0.4871 -0.3014
 5383TIP3    H237641   3.626   1.242   3.055 -0.6513  0.3521  0.3231
 5384TIP3   OH237642   0.057   4.104   5.128 -0.8351 -0.1054  0.6688
 5384TIP3    H137643   0.056   4.069   5.217  0.2160 -2.6954 -0.2224
 5384TIP3    H237644   0.069   4.027   5.073 -0.2052  1.5495 -1.6558
 5385TIP3   OH237645   1.879   3.293  14.961 -0.1709 -0.2297  0.2342
 5385TIP3    H137646   1.931   3.222  14.925 -0.0925 -2.0534  3.5012
 5385TIP3    H237647   1.788   3.265  14.948 -0.2778  0.6838 -1.2638
 5386TIP3   OH237648   1.127   1.870   1.468 -0.1249  0.0008 -0.0228
 5386TIP3    H137649   1.102   1.847   1.557  3.0994 -0.9782  0.7462
 5386TIP3    H237650   1.158   1.960   1.474 -0.4933  0.1562 -0.3389
 5387TIP3   OH237651   4.025   0.678  12.552  0.6548 -0.8800 -0.1856
 5387TIP3    H137652   4.078   0.644  12.480  1.4325  0.1411 -0.1215
 5387TIP3    H237653   4.089   0.710  12.616 -0.0181  0.0289  0.0663
 5388TIP3   OH237654   5.298   2.318  14.500  0.1855  0.0425 -0.3546
 5388TIP3    H137655   5.336   2.230  14.504  0.4225  0.1771  0.4010
 5388TIP3    H237656   5.273   2.338  14.590  1.7002  1.4197 -0.1974
 5389TIP3   OH237657   2.526   0.034   4.409 -0.1891 -0.0424 -0.1840
 5389TIP3    H137658   2.515   0.119   4.451 -1.8369  1.2228 -2.9087
 5389TIP3    H237659   2.452  -0.019   4.439  0.0558 -0.0472  0.4211
 5390TIP3   OH237660   4.478   4.874   1.759  0.0642 -0.0762  0.2336
 5390TIP3    H137661   4.435   4.816   1.822  0.2233  1.2551  1.6433
 5390TIP3    H237662   4.570   4.849   1.763 -0.1731 -1.2095 -0.8669
 5391TIP3   OH237663   5.142   1.527   6.188  0.2660 -0.0788  0.1926
 5391TIP3    H137664   5.112   1.613   6.217  1.0846  0.0838  0.5696
 5391TIP3    H237665   5.096   1.465   6.245 -0.3399  0.0999 -0.0930
 5392TIP3   OH237666   6.751   2.541   5.099  0.1131  0.0681 -0.2547
 5392TIP3    H137667   6.695   2.515   5.172 -1.9873  0.0405 -1.7890
 5392TIP3    H237668   6.761   2.635   5.108 -1.3722  0.2939 -0.6948
 5393TIP3   OH237669   5.553   0.778   0.884  0.0295  0.4905 -0.1772
 5393TIP3    H137670   5.533   0.732   0.803 -2.8365  1.3703 -0.0687
 5393TIP3    H237671   5.555   0.871   0.859 -0.4477  0.7376  0.6497
 5394TIP3   OH237672   4.370   2.091  14.742 -0.3023  0.1221 -0.1080
 5394TIP3    H137673   4.283   2.133  14.740  0.1208  1.0195 -0.2702
 5394TIP3    H237674   4.411   2.117  14.659  0.3728  0.2780  0.2665
 5395TIP3   OH237675   2.354   3.688   2.018  0.0772 -0.3252  0.5236
 5395TIP3    H137676   2.393   3.603   2.037  0.4904 -0.4209 -0.6608
 5395TIP3    H237677   2.422   3.752   2.041  0.7537 -0.4627 -0.9703
 5396TIP3   OH237678   1.994   5.515   1.259 -0.3390 -0.1670 -0.3481
 5396TIP3    H137679   1.917   5.531   1.204  0.2706  1.3949 -0.7826
 5396TIP3    H237680   1.980   5.571   1.336 -0.3368 -1.0147  0.2852
 5397TIP3   OH237681   5.260   4.286   1.444  0.3211 -0.4482 -0.3348
 5397TIP3    H137682   5.195   4.317   1.381  0.0826 -1.9357 -0.8477
 5397TIP3    H237683   5.219   4.212   1.488  0.5931  0.3866  1.4013
 5398TIP3   OH237684   6.242   2.511  12.905  0.4175 -0.1372  0.0266
 5398TIP3    H137685   6.308   2.456  12.947  0.1388  1.1099  2.2606
 5398TIP3    H237686   6.283   2.597  12.897  0.7963 -0.4833 -3.2668
 5399TIP3   OH237687   4.226   2.442  12.171 -0.4838  0.7466 -0.3854
 5399TIP3    H137688   4.278   2.403  12.241 -1.7663  2.2633  1.5267
 5399TIP3    H237689   4.289   2.489  12.116  0.8596 -2.3818 -1.7409
 5400TIP3   OH237690   0.569   5.473   1.277 -0.4305 -0.9126 -0.4083
 5400TIP3    H137691   0.508   5.447   1.207 -0.3098  1.0970 -1.3129
 5400TIP3    H237692   0.513   5.498   1.350 -0.6169 -0.9350 -0.5437
 5401TIP3   OH237693   6.765   0.143   1.438  0.1729 -0.3273 -0.3930
 5401TIP3    H137694   6.859   0.156   1.452  0.1079 -0.7641  0.5458
 5401TIP3    H237695   6.728   0.143   1.526 -1.1026  2.5417 -0.8068
 5402TIP3   OH237696   1.300   0.488   0.105 -0.1509  0.1800 -0.1405
 5402TIP3    H137697   1.359   0.429   0.151  0.4050 -0.0768 -1.1587
 5402TIP3    H237698   1.225   0.434   0.082 -0.4351  0.3118  0.4615
 5403TIP3   OH237699   2.890   5.136  16.817 -0.1695 -0.6681  0.0028
 5403TIP3    H137700   2.846   5.057  16.848  1.0061 -1.7691 -1.0339
 5403TIP3    H237701   2.854   5.206  16.872  0.0414 -2.1554  2.1680
 5404TIP3   OH237702   0.982   2.911   2.272  0.2531 -0.0132  0.4684
 5404TIP3    H137703   0.921   2.842   2.250  0.8419 -0.1383 -0.8315
 5404TIP3    H237704   1.069   2.872   2.260  0.5954  0.9947 -0.4630
 5405TIP3   OH237705   5.063   6.057  11.335  0.7204 -0.0021  1.1456
 5405TIP3    H137706   4.998   6.119  11.302  1.4820  0.3944  0.3413
 5405TIP3    H237707   5.011   5.986  11.374 -0.1729  0.9407  1.7313
 5406TIP3   OH237708   4.148   1.815   3.112 -0.0862 -0.0521 -0.1590
 5406TIP3    H137709   4.236   1.851   3.111  0.2951 -0.8482  1.8250
 5406TIP3    H237710   4.160   1.721   3.127 -1.2024 -0.5823 -2.1767
 5407TIP3   OH237711   6.560   5.924  15.109  0.2382  0.5520 -0.1206
 5407TIP3    H137712   6.572   5.830  15.123  0.4948  0.4719 -0.8179
 5407TIP3    H237713   6.534   5.958  15.195  2.9351  0.3156  0.8691
 5408TIP3   OH237714   5.565   3.180   4.499 -0.3928  0.7967  0.1794
 5408TIP3    H137715   5.619   3.189   4.420 -0.5707  0.9500  0.0758
 5408TIP3    H237716   5.629   3.178   4.571 -0.1915 -0.0512 -0.0176
 5409TIP3   OH237717   2.156   6.657  15.283 -0.0034  0.0386  0.8030
 5409TIP3    H137718   2.240   6.683  15.245 -1.5085  1.6632 -1.7342
 5409TIP3    H237719   2.120   6.738  15.319 -2.0728  0.3468 -1.6265
 5410TIP3   OH237720   1.576   5.235   5.463  1.0687  0.0152  0.0178
 5410TIP3    H137721   1.672   5.234   5.462  1.2192  2.5800 -2.9110
 5410TIP3    H237722   1.554   5.318   5.505  0.1089 -0.3864  0.3198
 5411TIP3   OH237723   6.760   6.281  11.204  0.3004 -0.1801  0.4375
 5411TIP3    H137724   6.829   6.305  11.266 -0.9905  1.3146  1.3878
 5411TIP3    H237725   6.802   6.284  11.118  2.0148 -1.8263  1.1528
 5412TIP3   OH237726   3.165   3.881  11.438  0.5328 -0.1873  0.0122
 5412TIP3    H137727   3.192   3.790  11.441 -1.0991 -0.7394 -0.7534
 5412TIP3    H237728   3.070   3.879  11.454  0.8175  1.6286  2.5903
 5413TIP3   OH237729   1.127   5.702  12.584  0.4768 -0.1053 -0.9565
 5413TIP3    H137730   1.143   5.790  12.551 -0.4693  1.0492  1.3973
 5413TIP3    H237731   1.183   5.645  12.531  1.8138  2.0165 -1.9274
 5414TIP3   OH237732   5.638   0.299  14.278 -0.1939 -0.1275  0.3753
 5414TIP3    H137733   5.604   0.257  14.199  0.5619  1.7968 -1.0510
 5414TIP3    H237734   5.562   0.306  14.336 -0.9355 -0.8992 -0.4732
 5415TIP3   OH237735   0.525   2.231  11.130  0.1331 -0.0667 -0.1075
 5415TIP3    H137736   0.447   2.275  11.165  0.7370  0.9893 -0.0433
 5415TIP3    H237737   0.559   2.291  11.063  2.3371  0.7688  1.6270
 5416TIP3   OH237738   2.159   3.193   3.759 -0.4363  0.0193  0.0552
 5416TIP3    H137739   2.215   3.254   3.711 -0.6917  0.7123  0.6178
 5416TIP3    H237740   2.186   3.202   3.850  1.3496 -2.6369 -0.0876
 5417TIP3   OH237741   4.385   0.230   2.891 -0.0974  0.3217 -0.1598
 5417TIP3    H137742   4.470   0.266   2.866 -0.2713 -0.3515 -1.8204
 5417TIP3    H237743   4.331   0.306   2.911  1.0838  0.7395  1.6877
 5418TIP3   OH237744   2.255   4.965  13.140  0.2007  0.1527  0.4376
 5418TIP3    H137745   2.262   4.920  13.224 -0.0909  0.6811  0.7526
 5418TIP3    H237746   2.161   4.979  13.129 -0.1897 -3.1712 -1.7453
 5419TIP3   OH237747   3.462   2.102  11.779 -0.0729  0.1394 -0.0056
 5419TIP3    H137748   3.421   2.016  11.771  0.0709  0.1726 -1.3940
 5419TIP3    H237749   3.396   2.163  11.745  0.2837  0.4342 -0.1753
 5420TIP3   OH237750   5.645   1.106  16.517  0.2932 -0.2676 -0.0281
 5420TIP3    H137751   5.667   1.024  16.472  2.0631  1.1790 -1.9770
 5420TIP3    H237752   5.703   1.108  16.593  1.2449 -0.1787 -0.7498
 5421TIP3   OH237753   3.007   0.516  17.205  0.2040 -0.3694 -0.2291
 5421TIP3    H137754   3.030   0.525  17.112  0.2705 -0.6140 -0.2378
 5421TIP3    H237755   2.913   0.532  17.208  0.1254 -0.7925 -0.4008
 5422TIP3   OH237756   0.308   4.314   4.398  0.2018 -0.1861 -0.2370
 5422TIP3    H137757   0.387   4.319   4.345  1.7770  1.4597  2.0564
 5422TIP3    H237758   0.328   4.250   4.466 -0.7919 -0.4008 -0.1208
 5423TIP3   OH237759   2.900   2.627   6.576  0.0605  0.0098  0.3225
 5423TIP3    H137760   2.906   2.532   6.590 -1.0214  0.0732  1.2711
 5423TIP3    H237761   2.811   2.641   6.543  0.3266  0.6728 -0.1485
 5424TIP3   OH237762   5.490   2.352   2.355 -0.4972  0.1039  0.5065
 5424TIP3    H137763   5.435   2.338   2.279 -1.2306 -1.5702  1.2972
 5424TIP3    H237764   5.460   2.436   2.391 -1.8449 -0.2925  0.3510
 5425TIP3   OH237765   2.571   6.510   4.983  0.3617 -0.3993  0.1528
 5425TIP3    H137766   2.555   6.601   5.008 -0.4308  0.2324 -2.3550
 5425TIP3    H237767   2.556   6.460   5.063 -1.3706  1.4657  1.0828
 5426TIP3   OH237768   0.557   2.830   3.131 -0.0835  0.3876 -0.2615
 5426TIP3    H137769   0.538   2.837   3.037 -1.9260 -0.0960  0.0398
 5426TIP3    H237770   0.504   2.898   3.171  0.1125  0.0977  0.4992
 5427TIP3   OH237771   0.235   6.452  11.837 -0.1430 -0.7089 -0.1681
 5427TIP3    H137772   0.316   6.409  11.809 -0.0703  0.2676 -1.6246
 5427TIP3    H237773   0.215   6.514  11.766 -2.2931 -1.0743  0.0397
 5428TIP3   OH237774   1.789   2.531   1.209 -0.4214  0.2285 -0.4328
 5428TIP3    H137775   1.698   2.513   1.187 -0.1458 -0.5065 -1.0237
 5428TIP3    H237776   1.796   2.626   1.206 -1.9634  0.5754  2.9223
 5429TIP3   OH237777   5.750   6.509   4.776  0.2390  0.2678 -0.4593
 5429TIP3    H137778   5.834   6.464   4.768 -0.0526 -0.4220  0.2362
 5429TIP3    H237779   5.735   6.548   4.689  1.5792  0.9763 -0.3988
 5430TIP3   OH237780   6.820   1.835  14.253  0.6928 -0.2565 -0.1705
 5430TIP3    H137781   6.834   1.928  14.270  0.0924 -0.2531  0.3471
 5430TIP3    H237782   6.741   1.832  14.198 -0.0490 -0.5123  0.8674
 5431TIP3   OH237783   6.418   0.243   0.307 -0.5287 -0.2226  0.3826
 5431TIP3    H137784   6.503   0.252   0.350 -0.6075 -0.5758  0.6176
 5431TIP3    H237785   6.422   0.304   0.233 -0.1578 -0.0714  0.5242
 5432TIP3   OH237786   4.124   5.767  13.212  0.3276  0.1230  0.2765
 5432TIP3    H137787   4.211   5.733  13.193  0.2654 -0.4300  0.9557
 5432TIP3    H237788   4.090   5.793  13.126  0.5997 -1.0039 -0.1946
 5433TIP3   OH237789   0.182   0.445   0.340 -0.3485 -0.0611  0.1710
 5433TIP3    H137790   0.253   0.443   0.277  0.7789 -0.4627  1.4001
 5433TIP3    H237791   0.153   0.354   0.347 -1.7393  0.2583 -1.1191
 5434TIP3   OH237792   2.944   2.675   4.498  0.3427  0.3063  0.3620
 5434TIP3    H137793   2.992   2.645   4.421  1.0292 -0.1840  0.9615
 5434TIP3    H237794   2.865   2.620   4.500  0.7455 -0.2800  0.4856
 5435TIP3   OH237795   4.425   4.033   0.780 -0.1394  0.2320  0.4808
 5435TIP3    H137796   4.452   3.969   0.715 -0.2040  0.3358  0.3502
 5435TIP3    H237797   4.363   3.986   0.837 -0.8113  0.3950 -0.0957
 5436TIP3   OH237798   5.985   5.315   1.676 -0.4170 -0.5541  0.5781
 5436TIP3    H137799   5.963   5.223   1.660  0.4039 -0.7555  0.5625
 5436TIP3    H237800   6.080   5.316   1.684 -0.5237  0.0228  2.3149
 5437TIP3   OH237801   0.309   0.913   6.710  0.3572  0.5439 -0.2149
 5437TIP3    H137802   0.314   0.820   6.732 -0.1634  0.6173  0.2594
 5437TIP3    H237803   0.307   0.957   6.795  0.3138  0.9680 -0.4328
 5438TIP3   OH237804   2.853   2.206   0.235  0.0522  0.0196  0.2033
 5438TIP3    H137805   2.911   2.239   0.167  0.1932  0.3147  0.4612
 5438TIP3    H237806   2.790   2.277   0.249  0.8156  0.5093  1.3015
 5439TIP3   OH237807   6.594   0.934   4.535 -0.4845 -0.0944  0.1899
 5439TIP3    H137808   6.619   0.903   4.623  0.7507 -0.7770 -0.3661
 5439TIP3    H237809   6.501   0.913   4.528 -0.6140  0.0031  1.3452
 5440TIP3   OH237810   5.364   0.006  14.912  0.4962 -0.3841  0.4779
 5440TIP3    H137811   5.333   0.070  14.976  1.8758 -0.8243  1.6442
 5440TIP3    H237812   5.287  -0.017  14.860 -0.2425  1.3936  0.7477
 5441TIP3   OH237813   3.611   1.929   3.197 -0.3034 -0.2739  0.1299
 5441TIP3    H137814   3.569   1.954   3.279  2.0241  1.1317  1.0066
 5441TIP3    H237815   3.631   2.013   3.154  1.3716 -0.8417 -0.2859
 5442TIP3   OH237816   3.769   6.490  13.964  0.2070 -0.1555  0.0135
 5442TIP3    H137817   3.742   6.425  13.899 -1.0067  1.1066 -0.7764
 5442TIP3    H237818   3.713   6.566  13.948  0.1872  0.3675  2.2512
 5443TIP3   OH237819   6.200   3.606  12.071  0.2148  0.2493 -0.4085
 5443TIP3    H137820   6.272   3.598  12.008  0.4056 -0.4430 -0.1192
 5443TIP3    H237821   6.166   3.517  12.079 -0.6124  0.5578 -0.4682
 5444TIP3   OH237822   3.291   4.601  15.418 -0.6127  0.6047  0.0556
 5444TIP3    H137823   3.373   4.602  15.368 -0.0882  2.9367  0.8667
 5444TIP3    H237824   3.224   4.623  15.353 -0.7509 -1.8572 -0.7327
 5445TIP3   OH237825   3.989   2.788  15.419 -0.0422 -0.1174 -0.1771
 5445TIP3    H137826   4.037   2.779  15.337  2.9029 -0.1434  1.4134
 5445TIP3    H237827   4.051   2.828  15.480 -2.2435  0.3543  1.9492
 5446TIP3   OH237828   4.170   5.307   4.916  1.0328  0.6481  0.2509
 5446TIP3    H137829   4.134   5.233   4.964 -1.1682  1.4544 -0.0109
 5446TIP3    H237830   4.230   5.268   4.852 -0.4601 -0.9935 -0.2324
 5447TIP3   OH237831   3.496   3.996   5.164 -0.0039  0.0200  0.0743
 5447TIP3    H137832   3.546   3.922   5.131 -0.6382  0.3934 -1.8690
 5447TIP3    H237833   3.446   3.960   5.238  0.9024 -1.0664  0.1806
 5448TIP3   OH237834   1.058   6.167   2.573 -1.1336 -0.0529 -0.5338
 5448TIP3    H137835   1.079   6.111   2.498  0.3317 -0.5471  0.2124
 5448TIP3    H237836   1.051   6.255   2.536  0.9830 -0.0626 -1.0609
 5449TIP3   OH237837   1.510   4.149  16.368  0.6379 -0.5939 -0.6740
 5449TIP3    H137838   1.444   4.217  16.384  0.1091 -1.1407 -0.5068
 5449TIP3    H237839   1.476   4.100  16.293  0.8849 -0.8401 -0.6272
 5450TIP3   OH237840   3.976   3.124  14.087  0.0770 -0.0322 -0.4465
 5450TIP3    H137841   3.987   3.031  14.070 -1.5757 -0.5651  1.1239
 5450TIP3    H237842   3.883   3.134  14.110 -0.0699  2.1906 -1.6810
 5451TIP3   OH237843   0.028   4.395  11.469 -0.4629 -0.2865  0.5228
 5451TIP3    H137844  -0.046   4.374  11.411  0.0602 -0.0286 -0.2468
 5451TIP3    H237845   0.104   4.395  11.412  0.0384  0.1838  1.1789
 5452TIP3   OH237846   4.089   4.548   5.261 -0.3187 -0.1727  0.3161
 5452TIP3    H137847   4.043   4.571   5.180 -1.2941 -0.5882  0.7530
 5452TIP3    H237848   4.181   4.568   5.241 -0.5183 -0.3765 -0.9412
 5453TIP3   OH237849   2.466   2.279  11.946 -0.9992  0.0867  0.4203
 5453TIP3    H137850   2.416   2.302  11.867  1.0145  2.3696 -0.3158
 5453TIP3    H237851   2.551   2.251  11.913 -0.3123  0.5246  1.7472
 5454TIP3   OH237852   3.474   2.773  13.709  0.0102  0.3071  0.0972
 5454TIP3    H137853   3.558   2.807  13.677 -0.0862  0.1705 -0.3096
 5454TIP3    H237854   3.415   2.779  13.633  0.4286 -2.3133 -0.5337
 5455TIP3   OH237855   4.294   0.184  10.922  0.3196 -0.3633 -0.5412
 5455TIP3    H137856   4.388   0.203  10.928 -0.2899  3.0202  1.2371
 5455TIP3    H237857   4.257   0.261  10.878 -1.8055 -0.6478  0.6108
 5456TIP3   OH237858   4.592   3.052   5.481  0.0776 -0.0107  0.2774
 5456TIP3    H137859   4.665   3.091   5.529 -1.2997  1.6566  1.1473
 5456TIP3    H237860   4.538   3.010   5.548 -0.2933 -0.3163 -0.2026
 5457TIP3   OH237861   3.038   2.234  11.863  0.4801  0.3495 -0.1414
 5457TIP3    H137862   3.037   2.144  11.895  1.5110 -0.2285 -1.5757
 5457TIP3    H237863   3.007   2.287  11.936 -1.0670 -1.2510  0.4285
 5458TIP3   OH237864   4.772   0.222  16.626  0.3267  0.2395 -0.3108
 5458TIP3    H137865   4.710   0.191  16.691  0.6059  1.4849  0.5886
 5458TIP3    H237866   4.721   0.282  16.571  0.5730  0.7863  0.0490
 5459TIP3   OH237867   2.463   1.867   5.432  0.0773 -0.5154 -0.5038
 5459TIP3    H137868   2.370   1.869   5.455  0.3271 -0.8348  0.6102
 5459TIP3    H237869   2.496   1.787   5.473  1.9414  2.1138  3.8114
 5460TIP3   OH237870   1.818   4.883   4.196  0.0274  0.0545 -0.0309
 5460TIP3    H137871   1.808   4.808   4.138 -0.5188  0.0047  0.1254
 5460TIP3    H237872   1.730   4.902   4.227 -0.1340  1.7616 -1.3310
 5461TIP3   OH237873   0.733   4.088  14.496  0.4346  0.2139  0.6574
 5461TIP3    H137874   0.766   4.178  14.498 -0.8811  0.7089  1.6934
 5461TIP3    H237875   0.810   4.035  14.479  1.5135  1.4153  1.5825
 5462TIP3   OH237876   5.725   2.281  16.683 -0.0759  0.3839 -0.0914
 5462TIP3    H137877   5.637   2.299  16.717 -0.6418 -0.0313 -1.2861
 5462TIP3    H237878   5.714   2.282  16.588  1.3009  0.7256 -0.2543
 5463TIP3   OH237879   2.838   2.776  11.515 -0.1554 -0.3038  0.2515
 5463TIP3    H137880   2.746   2.800  11.504 -0.7047 -2.1511  0.4651
 5463TIP3    H237881   2.854   2.785  11.609  0.0099  0.3999  0.1609
 5464TIP3   OH237882   5.923   0.304  11.846 -0.2467  0.5113 -0.3113
 5464TIP3    H137883   5.885   0.384  11.810 -0.8499 -0.7523 -2.7612
 5464TIP3    H237884   6.012   0.302  11.812 -0.1819  0.2337 -0.1328
 5465TIP3   OH237885   4.592   6.804   1.631  0.6520  0.4265 -0.0056
 5465TIP3    H137886   4.526   6.743   1.597 -1.7058  2.6190  0.3346
 5465TIP3    H237887   4.626   6.848   1.553  0.4079  0.5123 -0.0671
 5466TIP3   OH237888   6.368   3.862  13.821 -0.0156  0.0482  0.2704
 5466TIP3    H137889   6.394   3.813  13.743 -0.7928 -0.0235  0.0511
 5466TIP3    H237890   6.423   3.826  13.891  0.0045 -0.5565 -0.0492
 5467TIP3   OH237891   6.112   6.392  13.649  0.1185  0.5083 -0.1049
 5467TIP3    H137892   6.151   6.416  13.566 -1.4958  1.3513 -0.6560
 5467TIP3    H237893   6.097   6.475  13.694 -2.3988  0.3765 -0.5755
 5468TIP3   OH237894   2.426   2.592  13.129  0.6837  0.2432 -0.1272
 5468TIP3    H137895   2.392   2.652  13.196 -3.9527  0.0199 -1.9390
 5468TIP3    H237896   2.418   2.640  13.047 -0.2516 -1.7855 -1.2774
 5469TIP3   OH237897   1.652   4.474   4.296 -0.0493 -0.0403  0.3725
 5469TIP3    H137898   1.599   4.448   4.371  1.4161 -2.0042  0.8094
 5469TIP3    H237899   1.702   4.395   4.273  2.3680  1.5522 -0.2533
 5470TIP3   OH237900   1.800   5.871  10.644 -0.5191  0.1013  0.2262
 5470TIP3    H137901   1.847   5.897  10.564 -0.1396  0.2490  0.4942
 5470TIP3    H237902   1.771   5.953  10.682 -0.9915  0.0103  0.0699
 5471TIP3   OH237903   4.462   4.309   5.773 -0.3036  0.1828  0.4843
 5471TIP3    H137904   4.425   4.279   5.690 -0.4711  1.9803 -0.1480
 5471TIP3    H237905   4.401   4.277   5.839 -0.4295 -0.8756 -0.1261
 5472TIP3   OH237906   0.135   0.791  11.843  0.0481 -0.1145  0.2518
 5472TIP3    H137907   0.153   0.755  11.756 -0.4622  0.0291  0.0796
 5472TIP3    H237908   0.206   0.759  11.898 -0.4732 -1.5204  0.1437
 5473TIP3   OH237909   0.380   1.911   0.902  0.3385 -0.2237 -0.1547
 5473TIP3    H137910   0.337   1.842   0.851 -0.3867 -0.0280  0.1718
 5473TIP3    H237911   0.464   1.924   0.859  0.4714 -1.2836 -0.2522
 5474TIP3   OH237912   0.917   6.494  15.950 -0.1851 -0.0669  0.1270
 5474TIP3    H137913   0.873   6.524  16.029 -0.1288 -1.1504  0.5843
 5474TIP3    H237914   0.847   6.480  15.887 -0.2465  0.6154  0.0318
 5475TIP3   OH237915   1.114   2.340   5.160  0.5360  0.4780  0.0924
 5475TIP3    H137916   1.200   2.376   5.139  1.5610 -0.4847  2.2844
 5475TIP3    H237917   1.063   2.349   5.079  2.3685  1.9581 -0.9695
 5476TIP3   OH237918   5.336   1.386  16.833  0.0628  0.0958  0.1021
 5476TIP3    H137919   5.386   1.339  16.899  0.0817 -0.6281 -0.4137
 5476TIP3    H237920   5.344   1.332  16.754  0.3414  1.1185 -0.5915
 5477TIP3   OH237921   3.141   1.211   0.994 -0.3101 -0.3927 -0.0003
 5477TIP3    H137922   3.208   1.253   1.048  1.4681 -0.1684 -2.1961
 5477TIP3    H237923   3.132   1.123   1.030  1.3773 -0.5009  0.2297
 5478TIP3   OH237924   5.787   1.060   3.890 -0.2186  0.0526 -0.0866
 5478TIP3    H137925   5.829   1.056   3.976  0.4576  0.3088 -0.3924
 5478TIP3    H237926   5.751   0.973   3.876 -0.7924  0.1633  0.6794
 5479TIP3   OH237927   0.730   0.471   1.904  0.1422 -0.4253  0.0191
 5479TIP3    H137928   0.798   0.424   1.855  0.0996 -0.8159  0.3330
 5479TIP3    H237929   0.745   0.448   1.995 -0.7163 -0.9222  0.0505
 5480TIP3   OH237930   0.382   5.604  14.069 -0.2940 -0.4884 -0.0947
 5480TIP3    H137931   0.405   5.665  14.139 -1.1186 -2.0220  1.6027
 5480TIP3    H237932   0.400   5.652  13.988 -1.0140  2.0352  1.1403
 5481TIP3   OH237933   2.166   0.104  13.425 -0.3221 -0.2409  0.3825
 5481TIP3    H137934   2.098   0.112  13.492 -0.3553  0.9071  0.2388
 5481TIP3    H237935   2.119   0.100  13.342 -0.2396  0.6226  0.2779
 5482TIP3   OH237936   6.506   4.593  11.797 -0.0144  0.3465 -0.1776
 5482TIP3    H137937   6.412   4.612  11.798  0.3444  2.3860 -0.2949
 5482TIP3    H237938   6.531   4.604  11.705  0.5745  1.2937  0.0812
 5483TIP3   OH237939   3.744   4.016   4.964  0.1625 -0.2661  0.3595
 5483TIP3    H137940   3.807   4.085   4.942  1.1353 -1.5866 -1.2019
 5483TIP3    H237941   3.754   4.003   5.059  0.4621  1.2172  0.5526
 5484TIP3   OH237942   6.196   6.240   5.294  0.0253 -0.2559 -0.7465
 5484TIP3    H137943   6.189   6.305   5.224 -2.4867  0.2659 -0.0966
 5484TIP3    H237944   6.106   6.216   5.314  0.7751 -2.0807  0.7905
 5485TIP3   OH237945   4.324   0.303   5.349  0.1112  0.1952  0.1878
 5485TIP3    H137946   4.274   0.383   5.365  0.3886  0.5431 -0.6287
 5485TIP3    H237947   4.262   0.233   5.365 -0.6935  0.6260 -0.9597
 5486TIP3   OH237948   1.994   0.057  17.175  0.0836  0.4196  0.2061
 5486TIP3    H137949   2.027   0.112  17.104 -0.4371  1.1496  0.5233
 5486TIP3    H237950   2.039   0.090  17.253  0.0913  0.1145  0.3302
 5487TIP3   OH237951   5.279   5.517   0.566 -0.0508 -0.4104  0.5814
 5487TIP3    H137952   5.307   5.495   0.655 -1.3123 -1.8687  0.6616
 5487TIP3    H237953   5.200   5.569   0.579 -0.0180 -0.2939  0.3118
 5488TIP3   OH237954   2.929   1.211   5.146  1.0300 -0.0016 -0.0140
 5488TIP3    H137955   2.993   1.186   5.213  0.3802  0.8832  0.9725
 5488TIP3    H237956   2.949   1.303   5.128 -1.3075  1.0061  1.9548
 5489TIP3   OH237957   0.803   4.638  13.297 -0.0137  0.4067 -0.5663
 5489TIP3    H137958   0.775   4.665  13.385 -0.0877  1.6223 -0.9398
 5489TIP3    H237959   0.895   4.614  13.308 -0.1542  0.0845 -0.0669
 5490TIP3   OH237960   3.127   1.890   6.243  0.4016 -0.4676  0.2536
 5490TIP3    H137961   3.168   1.816   6.198 -0.3071 -0.4631 -0.4368
 5490TIP3    H237962   3.086   1.851   6.321  0.4639 -0.7201  0.1598
 5491TIP3   OH237963   2.072   4.334   1.500  0.4110  0.7833  0.3139
 5491TIP3    H137964   1.999   4.289   1.458  0.9364  0.9602 -0.8459
 5491TIP3    H237965   2.097   4.278   1.574  0.2204 -0.1656 -0.3249
 5492TIP3   OH237966   1.516   4.898  14.491 -0.3245 -0.1901  0.1383
 5492TIP3    H137967   1.487   4.964  14.555 -1.0310  0.0521 -0.4100
 5492TIP3    H237968   1.611   4.899  14.497 -0.3467  0.4842  0.5358
 5493TIP3   OH237969   6.756   4.022   2.906 -0.0807  0.3128 -0.4497
 5493TIP3    H137970   6.684   4.078   2.877  0.2121  1.1948  0.4465
 5493TIP3    H237971   6.809   4.008   2.827 -1.1102 -0.1958 -1.0727
 5494TIP3   OH237972   2.469   0.028  15.894  0.1977  0.2204 -0.1723
 5494TIP3    H137973   2.506  -0.059  15.900 -1.4585 -0.4812  0.5342
 5494TIP3    H237974   2.481   0.053  15.802  1.8356 -0.1812 -0.0945
 5495TIP3   OH237975   5.063   5.168  15.944  0.3219 -0.2198 -0.2973
 5495TIP3    H137976   5.144   5.119  15.958  0.2797  0.0244  0.8941
 5495TIP3    H237977   5.042   5.205  16.030 -1.0414 -0.2650 -0.5818
 5496TIP3   OH237978   2.817   0.866  11.350  0.0525  0.1109  0.7553
 5496TIP3    H137979   2.735   0.901  11.314 -1.4031 -1.0571  2.7485
 5496TIP3    H237980   2.850   0.936  11.406  2.2058  1.8439 -2.3729
 5497TIP3   OH237981   0.826   2.290  13.333 -0.0100  0.0264 -0.5012
 5497TIP3    H137982   0.768   2.250  13.267 -1.4835 -0.0591  0.7841
 5497TIP3    H237983   0.817   2.384  13.317 -3.8449  0.3434  2.1546
 5498TIP3   OH237984   4.271   1.974   6.581 -0.0273  0.5507  1.0785
 5498TIP3    H137985   4.242   2.058   6.618 -2.6021  0.1831  0.0660
 5498TIP3    H237986   4.238   1.908   6.642  1.4338  0.1952  1.5281
 5499TIP3   OH237987   4.631   3.492  11.412  0.5549 -0.1662 -0.0774
 5499TIP3    H137988   4.636   3.436  11.335  0.1315  0.4968 -0.6023
 5499TIP3    H237989   4.670   3.440  11.483  2.0291 -0.3366 -0.9825
 5500TIP3   OH237990   5.425   4.730  16.868 -0.2102  0.5192 -0.1891
 5500TIP3    H137991   5.443   4.713  16.775  2.7748 -2.4476  0.7103
 5500TIP3    H237992   5.367   4.659  16.894  1.0475 -0.2247  0.6876
 5501TIP3   OH237993   3.446   0.211   1.427  0.4626  0.0655 -0.0498
 5501TIP3    H137994   3.468   0.303   1.445 -0.2529 -0.0561  1.5637
 5501TIP3    H237995   3.361   0.198   1.470  0.1538 -1.1325 -0.9814
 5502TIP3   OH237996   4.133   5.903   5.826  0.1309  0.3958 -0.5261
 5502TIP3    H137997   4.201   5.963   5.796  1.3142 -1.0002 -0.7480
 5502TIP3    H237998   4.145   5.824   5.773  1.5066 -1.7151  2.6463
 5503TIP3   OH237999   4.868   4.641  16.675  0.0643  0.4296  0.2060
 5503TIP3    H138000   4.889   4.568  16.733 -0.3492  0.1778  0.0453
 5503TIP3    H238001   4.953   4.677  16.650  0.2526  1.7473  2.4575
 5504TIP3   OH238002   2.501   4.713   3.251 -0.0869 -0.1063  0.0600
 5504TIP3    H138003   2.431   4.738   3.190 -0.5672 -1.3391  0.0852
 5504TIP3    H238004   2.581   4.740   3.206 -0.4251 -1.1055 -1.1993
 5505TIP3   OH238005   3.449   2.739  13.991 -0.1805 -0.0904  0.5314
 5505TIP3    H138006   3.395   2.661  13.985  0.5564 -0.5417 -0.4610
 5505TIP3    H238007   3.458   2.769  13.901  2.4472 -0.8943  0.4448
 5506TIP3   OH238008   1.607   0.771  16.371 -0.5160 -0.0980 -0.4596
 5506TIP3    H138009   1.573   0.857  16.347 -1.4935  0.2133  1.7698
 5506TIP3    H238010   1.529   0.714  16.371 -0.5962 -0.0679  1.7750
 5507TIP3   OH238011   0.842   2.085   2.064  0.4098 -0.3932 -0.4744
 5507TIP3    H138012   0.877   1.998   2.086  0.0203 -0.1560  1.1869
 5507TIP3    H238013   0.770   2.067   2.004 -0.2108 -1.3008  0.5138
 5508TIP3   OH238014   0.627   6.294   4.615 -0.2921 -0.0755  0.1283
 5508TIP3    H138015   0.648   6.202   4.597  2.3930 -0.2513  3.3017
 5508TIP3    H238016   0.555   6.289   4.678  0.5944 -0.0704  1.1527
 5509TIP3   OH238017   5.460   6.425  16.594  0.5431  0.3527 -0.0813
 5509TIP3    H138018   5.489   6.378  16.515  1.9004  1.9392 -0.6037
 5509TIP3    H238019   5.455   6.358  16.662  0.0640 -0.9319 -1.3431
 5510TIP3   OH238020   2.651   3.075  14.642  0.7094 -0.1796 -0.1780
 5510TIP3    H138021   2.627   3.118  14.724 -2.1581 -1.9254  0.0405
 5510TIP3    H238022   2.705   3.001  14.670  1.0981  0.1504 -0.0425
 5511TIP3   OH238023   4.285   0.095  13.341  0.1613  0.0467  0.0763
 5511TIP3    H138024   4.302   0.150  13.264  0.8879 -0.3892 -0.0856
 5511TIP3    H238025   4.192   0.108  13.360  0.2587  1.1248 -0.1201
 5512TIP3   OH238026   6.080   1.628  13.677  0.7332  0.4241  0.2270
 5512TIP3    H138027   6.152   1.641  13.739 -0.4614 -0.1109  1.7703
 5512TIP3    H238028   6.018   1.572  13.723 -0.9606  1.3369 -0.8440
 5513TIP3   OH238029   3.733   6.679   4.955  0.0734  0.5154 -0.1520
 5513TIP3    H138030   3.810   6.677   4.898  0.7599 -3.5061  0.6114
 5513TIP3    H238031   3.768   6.695   5.042  0.1199 -1.1683  0.1731
 5514TIP3   OH238032   3.681   1.934   4.192  0.1203  0.1188  0.3920
 5514TIP3    H138033   3.641   1.998   4.250  2.1370  1.8924 -0.0515
 5514TIP3    H238034   3.738   1.985   4.135  0.6568 -1.9165 -1.0193
 5515TIP3   OH238035   2.272   4.115  11.497  0.0010 -0.4290 -0.1048
 5515TIP3    H138036   2.266   4.055  11.422 -1.8632 -1.1804  0.5701
 5515TIP3    H238037   2.238   4.064  11.571  2.1902  0.1509  1.3821
 5516TIP3   OH238038   4.330   4.521  14.770 -0.2227  0.4472  0.3245
 5516TIP3    H138039   4.258   4.501  14.709 -1.1338  0.0936  1.4809
 5516TIP3    H238040   4.362   4.607  14.743 -1.7370  1.0511  0.3857
 5517TIP3   OH238041   3.541   5.054  12.117  0.0480 -0.0249  0.6869
 5517TIP3    H138042   3.469   5.109  12.086 -0.5445 -0.9734  0.3108
 5517TIP3    H238043   3.620   5.104  12.099 -0.3907  0.1743 -0.7981
 5518TIP3   OH238044   3.862   0.566   5.314 -0.3239  0.2515  0.1494
 5518TIP3    H138045   3.776   0.603   5.335  0.4114  1.6034  0.9311
 5518TIP3    H238046   3.901   0.628   5.253  0.5419  0.2663  0.6983
 5519TIP3   OH238047   1.589   5.882  15.088  0.2607 -0.2142  0.1849
 5519TIP3    H138048   1.651   5.809  15.080  0.4852 -0.5870  3.7457
 5519TIP3    H238049   1.545   5.867  15.171 -0.7408  2.9599  0.3537
 5520TIP3   OH238050   5.485   6.046   5.378  0.3210 -0.4086  0.3906
 5520TIP3    H138051   5.562   6.103   5.384  0.4754 -0.4369 -0.8534
 5520TIP3    H238052   5.487   6.015   5.287 -0.7773 -0.9623  0.5468
 5521TIP3   OH238053   2.113   1.542   4.058 -0.2226 -0.1651  0.5053
 5521TIP3    H138054   2.073   1.564   4.142  1.6459 -1.2980  1.7745
 5521TIP3    H238055   2.163   1.620   4.035  0.5750 -0.4133  1.3179
 5522TIP3   OH238056   1.330   6.181   5.468 -0.7288 -0.2675 -0.8327
 5522TIP3    H138057   1.400   6.147   5.412  2.1578 -1.1649  2.9164
 5522TIP3    H238058   1.264   6.112   5.470  0.0025 -0.9955 -1.6313
 5523TIP3   OH238059   3.755   5.575   4.124  0.2575 -0.3364 -0.1134
 5523TIP3    H138060   3.831   5.597   4.071  0.7937 -1.5480  0.1203
 5523TIP3    H238061   3.776   5.610   4.211  0.3759 -0.3252 -0.1465
 5524TIP3   OH238062   2.052   4.133   2.082  0.1899 -0.2643 -0.0025
 5524TIP3    H138063   2.003   4.148   2.001  1.8794  1.1627 -0.8406
 5524TIP3    H238064   2.110   4.210   2.089  1.4461 -1.2900  1.5408
 5525TIP3   OH238065   0.421   0.851   2.273 -0.3697 -0.4890 -0.0899
 5525TIP3    H138066   0.459   0.871   2.188  0.3552 -3.4604 -0.5802
 5525TIP3    H238067   0.327   0.865   2.261 -0.1827 -0.0082 -1.0925
 5526TIP3   OH238068   4.965   4.335  12.262 -0.1660 -0.0935  0.2772
 5526TIP3    H138069   4.911   4.366  12.335  0.0311  0.0515  0.3629
 5526TIP3    H238070   4.909   4.347  12.184  0.8514  3.1712 -0.1043
 5527TIP3   OH238071   6.089   4.495  16.543 -0.0364  0.1166 -0.3514
 5527TIP3    H138072   6.051   4.517  16.458  1.3951 -2.1822 -1.7218
 5527TIP3    H238073   6.114   4.579  16.581  2.4894  1.2167 -3.8325
 5528TIP3   OH238074   3.169   1.126   4.634  0.1947 -0.0340  0.4542
 5528TIP3    H138075   3.080   1.149   4.609 -0.0411 -2.9613 -1.9155
 5528TIP3    H238076   3.158   1.071   4.712  0.1384  1.1465  1.3047
 5529TIP3   OH238077   2.268   4.266   0.424  0.3511 -0.5011  0.0748
 5529TIP3    H138078   2.182   4.268   0.380  0.8854 -0.8935 -1.0380
 5529TIP3    H238079   2.328   4.237   0.356  1.3927 -0.1414  0.8230
 5530TIP3   OH238080   6.345   5.470   4.576  0.7595 -0.5632  0.3715
 5530TIP3    H138081   6.343   5.418   4.656 -2.7343 -0.4820  0.4819
 5530TIP3    H238082   6.402   5.544   4.596 -0.2423 -0.4076  2.9182
 5531TIP3   OH238083   3.851   0.501   5.671 -0.0687  0.5029 -0.3208
 5531TIP3    H138084   3.834   0.595   5.672 -1.5952  0.2664 -0.2243
 5531TIP3    H238085   3.764   0.462   5.684  0.1322 -0.9692 -2.8600
 5532TIP3   OH238086   2.791   4.023  12.610 -0.2372 -0.5179 -0.3276
 5532TIP3    H138087   2.830   3.945  12.649 -0.2525 -0.4786 -0.2308
 5532TIP3    H238088   2.862   4.087  12.608 -0.2275 -0.5315 -0.3963
 5533TIP3   OH238089   6.466   3.021   6.022  0.2039 -0.5167  0.6722
 5533TIP3    H138090   6.371   3.020   6.036 -0.1754  1.0505 -1.2070
 5533TIP3    H238091   6.501   2.960   6.086 -2.3927 -3.8171 -0.7729
 5534TIP3   OH238092   0.891   3.016  15.900 -0.3212  0.5252 -0.2930
 5534TIP3    H138093   0.851   3.061  15.825 -0.6017  2.9443  1.2224
 5534TIP3    H238094   0.820   2.964  15.937 -0.6426  0.6603 -0.7011
 5535TIP3   OH238095   0.382   3.423  12.394 -0.0229 -0.4066 -0.6826
 5535TIP3    H138096   0.304   3.379  12.361 -0.5919  0.7160 -0.8702
 5535TIP3    H238097   0.452   3.358  12.382 -1.2555 -2.3214  1.5974
 5536TIP3   OH238098   3.607   5.938  16.051 -0.4254 -0.8765  0.1639
 5536TIP3    H138099   3.654   5.920  15.970 -1.9607 -1.0202 -0.7306
 5536TIP3    H238100   3.617   6.032  16.064  1.5846 -1.1341  0.9969
 5537TIP3   OH238101   5.720   3.937  12.592 -0.5484 -0.0625  0.6148
 5537TIP3    H138102   5.628   3.914  12.603 -0.9885 -0.9257 -3.3011
 5537TIP3    H238103   5.756   3.865  12.539  2.1278  0.8185  1.0693
 5538TIP3   OH238104   4.916   5.634  11.421  0.2555  0.3240 -0.0544
 5538TIP3    H138105   4.888   5.552  11.380  0.9814  0.8422 -1.7087
 5538TIP3    H238106   4.989   5.663  11.367  0.6217  1.5879  1.0728
 5539TIP3   OH238107   0.045   6.220  15.053  0.2509 -0.0946 -0.3663
 5539TIP3    H138108   0.018   6.268  15.132  0.9884  0.1765 -0.2704
 5539TIP3    H238109  -0.037   6.206  15.005 -0.8109 -3.2824  2.0413
 5540TIP3   OH238110   4.761   0.202  17.235 -0.0530  0.3262 -0.5013
 5540TIP3    H138111   4.689   0.180  17.294  0.9810 -3.2725 -0.3618
 5540TIP3    H238112   4.756   0.297  17.226 -2.8725  0.5581  1.9524
 5541TIP3   OH238113   4.148   5.500  13.817 -0.1824  0.3196  0.3271
 5541TIP3    H138114   4.072   5.539  13.775  0.2736  0.3998 -0.4330
 5541TIP3    H238115   4.161   5.553  13.896  1.5043  2.9520 -1.5483
 5542TIP3   OH238116   3.763   3.182  13.199 -0.0559  0.4485 -0.0300
 5542TIP3    H138117   3.711   3.251  13.158  0.1577  0.9942  0.5998
 5542TIP3    H238118   3.853   3.212  13.191  0.3775 -1.2212 -2.5082
 5543TIP3   OH238119   6.627   0.502  11.324 -0.0809  0.0850  0.0438
 5543TIP3    H138120   6.671   0.560  11.262 -0.2980  1.5778  1.2392
 5543TIP3    H238121   6.690   0.491  11.395 -0.1061 -1.0642 -0.0857
 5544TIP3   OH238122   1.216   1.217  13.489 -0.3234 -0.2281  0.1237
 5544TIP3    H138123   1.228   1.165  13.569 -0.3803 -0.4740 -0.0260
 5544TIP3    H238124   1.122   1.210  13.471 -0.1614 -0.9904 -0.5121
 5545TIP3   OH238125   2.088   5.878  15.896  0.3251  0.3138 -0.1444
 5545TIP3    H138126   2.066   5.934  15.971 -1.5108 -0.9029  0.3081
 5545TIP3    H238127   2.164   5.829  15.925 -0.1587  0.1014  0.8260
 5546TIP3   OH238128   2.369   4.808   2.213 -0.1672 -0.7187  0.5579
 5546TIP3    H138129   2.434   4.741   2.196 -0.7397 -1.0784 -0.2756
 5546TIP3    H238130   2.285   4.765   2.197 -0.5237  0.3512 -0.6954
 5547TIP3   OH238131   2.620   4.173  10.678 -0.3278 -0.2342  0.9370
 5547TIP3    H138132   2.704   4.194  10.720  0.6699 -1.6737 -0.2516
 5547TIP3    H238133   2.576   4.115  10.739  0.1918 -0.6209  0.9545
 5548TIP3   OH238134   3.115   6.076   4.684 -0.0910  0.6993 -0.0676
 5548TIP3    H138135   3.141   6.042   4.598  1.0965  0.7022  0.2720
 5548TIP3    H238136   3.114   6.171   4.673  2.0375  0.8425  0.3916
 5549TIP3   OH238137   0.918   2.152  12.320 -0.0793  0.3600 -0.7980
 5549TIP3    H138138   0.888   2.207  12.393 -0.0845  0.7959 -1.1264
 5549TIP3    H238139   0.852   2.083  12.313 -0.2706  0.5260 -0.6270
 5550TIP3   OH238140   2.135   2.215   5.183 -0.0605  0.3412 -0.1735
 5550TIP3    H138141   2.079   2.152   5.137 -1.4028  1.6283 -0.3745
 5550TIP3    H238142   2.073   2.271   5.230  1.1733  0.6098  1.1783
 5551TIP3   OH238143   3.345   5.896   5.892 -0.5688  0.3028  0.1835
 5551TIP3    H138144   3.337   5.802   5.908  0.3908  0.1525 -0.1119
 5551TIP3    H238145   3.291   5.937   5.960  0.0495 -0.4271  1.1551
 5552TIP3   OH238146   0.211   3.808   0.151 -0.8294 -0.3386  0.4339
 5552TIP3    H138147   0.264   3.732   0.174 -0.2324 -0.8128 -2.2595
 5552TIP3    H238148   0.161   3.826   0.230  0.7174 -2.0679  1.9155
 5553TIP3   OH238149   2.620   0.652   5.885 -0.0046 -0.0569 -0.3473
 5553TIP3    H138150   2.532   0.639   5.921 -0.3677  0.5370 -0.9739
 5553TIP3    H238151   2.660   0.717   5.943  0.2793 -0.8196  0.3307
 5554TIP3   OH238152   1.432   3.873  10.724 -0.6511 -0.2966  0.2953
 5554TIP3    H138153   1.387   3.819  10.659  0.3532  2.1593 -2.6519
 5554TIP3    H238154   1.386   3.957  10.722  0.3959  0.3567  1.6172
 5555TIP3   OH238155   2.848   0.467  16.402 -0.1217  0.3458  0.0581
 5555TIP3    H138156   2.834   0.554  16.441  2.1572  0.4397  0.8357
 5555TIP3    H238157   2.796   0.408  16.457  0.8775  0.8380  1.5954
 5556TIP3   OH238158   0.162   2.328   0.458 -0.4996  0.2750  0.1512
 5556TIP3    H138159   0.225   2.256   0.449 -0.0595  0.6012  0.5636
 5556TIP3    H238160   0.215   2.403   0.482 -1.1548  0.3431  1.4509
 5557TIP3   OH238161   1.657   1.725  12.028  0.9124  0.1778  0.0914
 5557TIP3    H138162   1.737   1.772  12.052 -0.2747  1.4164  1.8819
 5557TIP3    H238163   1.607   1.788  11.975  0.5677 -0.1322  0.0478
 5558TIP3   OH238164   6.543   0.860  13.900  0.0374 -0.2822  0.5419
 5558TIP3    H138165   6.577   0.949  13.911 -0.9582 -0.0988  2.7806
 5558TIP3    H238166   6.477   0.868  13.832  0.6182  0.4900  0.0528
 5559TIP3   OH238167   5.444   4.424   3.064 -0.4397  0.1026 -0.6841
 5559TIP3    H138168   5.431   4.355   2.999  1.3296 -1.5035  0.5235
 5559TIP3    H238169   5.356   4.443   3.097 -0.9260 -2.5603 -0.1709
 5560TIP3   OH238170   1.977   3.776   2.579  0.2734 -0.0280  0.2211
 5560TIP3    H138171   2.068   3.790   2.550  0.7528 -1.3946  0.9597
 5560TIP3    H238172   1.983   3.702   2.639 -1.2804  0.1755  0.6563
 5561TIP3   OH238173   1.420   0.834   4.748 -0.2228 -0.1790  0.2744
 5561TIP3    H138174   1.458   0.838   4.835 -1.1257  0.8192  0.6463
 5561TIP3    H238175   1.347   0.895   4.750 -0.4248 -0.3202 -1.1108
 5562TIP3   OH238176   6.316   1.467  17.234  0.2676 -0.1350 -0.4950
 5562TIP3    H138177   6.355   1.533  17.177  0.7163 -0.5088 -0.6274
 5562TIP3    H238178   6.320   1.506  17.321  0.0584  0.2229 -0.6419
 5563TIP3   OH238179   3.920   4.894   6.188  0.2903  0.2612  0.6737
 5563TIP3    H138180   3.937   4.986   6.166 -0.9209  0.2218 -0.5636
 5563TIP3    H238181   4.006   4.852   6.184  0.5117  0.8172 -1.4257
 5564TIP3   OH238182   0.616   4.758   5.307 -0.1466 -0.4818  0.7815
 5564TIP3    H138183   0.658   4.716   5.382 -1.8758  3.1298  4.0842
 5564TIP3    H238184   0.670   4.835   5.290 -2.1486  1.1111  1.3164
 5565TIP3   OH238185   2.397   2.961   2.016  0.0195  0.1810 -0.6756
 5565TIP3    H138186   2.331   3.030   2.010 -0.9713 -0.6592  0.1293
 5565TIP3    H238187   2.406   2.927   1.927 -0.8787  0.0888 -0.7323
 5566TIP3   OH238188   3.052   1.291   0.066  0.2259 -0.0034 -0.3228
 5566TIP3    H138189   3.106   1.354   0.113 -0.6035 -0.3100  1.0766
 5566TIP3    H238190   2.962   1.317   0.085 -0.1340 -1.5135  0.1731
 5567TIP3   OH238191   4.510   2.477  11.297 -0.1292 -0.7762  0.4855
 5567TIP3    H138192   4.502   2.388  11.332 -1.7869 -0.4560  1.0282
 5567TIP3    H238193   4.432   2.487  11.242  2.2203 -1.1611 -3.2188
 5568TIP3   OH238194   6.317   3.880  14.788 -0.6053  0.2969 -0.1815
 5568TIP3    H138195   6.273   3.959  14.820  0.0350  0.4671  0.3066
 5568TIP3    H238196   6.274   3.809  14.835 -0.7488  0.4104 -0.1376
 5569TIP3   OH238197   1.761   5.384   6.299 -0.3108  0.1465  0.4263
 5569TIP3    H138198   1.752   5.318   6.368 -2.4346  1.2875  1.3401
 5569TIP3    H238199   1.852   5.375   6.268 -0.4692 -3.0647  0.5800
 5570TIP3   OH238200   3.274   1.947   2.063  0.4170 -0.1570 -0.1660
 5570TIP3    H138201   3.180   1.965   2.072  0.1315 -0.6690 -1.7729
 5570TIP3    H238202   3.308   2.021   2.013  0.5053 -0.8137 -1.1139
 5571TIP3   OH238203   4.885   1.365  12.960 -0.1911  0.6165  0.1038
 5571TIP3    H138204   4.967   1.319  12.945 -0.4737  0.0959  0.1325
 5571TIP3    H238205   4.864   1.348  13.052 -0.4138  0.6113  0.0529
 5572TIP3   OH238206   3.038   2.075  17.167 -0.1300 -0.3392 -0.4420
 5572TIP3    H138207   3.127   2.110  17.177 -0.5428  0.6068  0.0377
 5572TIP3    H238208   3.050   1.980  17.163  1.1998 -0.1893 -3.3607
 5573TIP3   OH238209   5.436   5.823  11.990 -0.5814 -0.4579  0.2779
 5573TIP3    H138210   5.377   5.868  12.051  0.6575  0.2550  1.0051
 5573TIP3    H238211   5.384   5.810  11.911 -1.7773 -0.0794  0.9726
 5574TIP3   OH238212   6.253   3.237  11.855 -0.0733  0.5657  0.1634
 5574TIP3    H138213   6.193   3.281  11.916 -0.9489 -0.5733  0.1526
 5574TIP3    H238214   6.340   3.251  11.892 -0.4893  0.8378  1.0659
 5575TIP3   OH238215   5.048   1.510   2.772 -0.1867 -0.1442  0.3295
 5575TIP3    H138216   5.031   1.427   2.729 -1.7940  1.4628 -2.4040
 5575TIP3    H238217   5.091   1.564   2.706  0.7832  1.2529  2.0025
 5576TIP3   OH238218   3.729   3.236   1.848 -0.0371 -0.5242 -0.6433
 5576TIP3    H138219   3.638   3.211   1.864 -0.1332  1.3203  2.7028
 5576TIP3    H238220   3.779   3.186   1.914  1.0028  0.4295 -0.6859
 5577TIP3   OH238221   0.773   4.786   1.569 -0.9521  0.0748  0.0785
 5577TIP3    H138222   0.712   4.852   1.538  0.3790  0.9579 -0.7596
 5577TIP3    H238223   0.841   4.782   1.502 -1.2810 -2.5928 -0.2023
 5578TIP3   OH238224   0.532   3.647  15.949 -0.2289 -0.2584 -0.5423
 5578TIP3    H138225   0.611   3.699  15.931 -0.5593 -0.0026 -1.3028
 5578TIP3    H238226   0.561   3.556  15.945  0.0677 -0.1609 -0.6401
 5579TIP3   OH238227   2.792   2.563  12.819  0.1219 -0.6378  0.5128
 5579TIP3    H138228   2.863   2.501  12.833  0.9101  0.2463  0.5781
 5579TIP3    H238229   2.762   2.546  12.730  0.2909 -1.1479  0.5528
 5580TIP3   OH238230   3.577   5.107  15.680 -0.4903 -0.5879  0.2862
 5580TIP3    H138231   3.667   5.087  15.706 -0.4811  0.4027  1.0581
 5580TIP3    H238232   3.527   5.030  15.708  0.0754 -1.0358  0.0816
 5581TIP3   OH238233   1.951   3.550  16.547 -0.3290 -0.2505  0.6194
 5581TIP3    H138234   2.025   3.553  16.487 -0.4315  0.4884  0.5132
 5581TIP3    H238235   1.908   3.635  16.535 -1.5204 -0.8845  0.2641
 5582TIP3   OH238236   2.555   0.550  12.307  0.1782 -0.1594  0.0003
 5582TIP3    H138237   2.541   0.534  12.213 -1.3824 -3.5803  0.6645
 5582TIP3    H238238   2.650   0.559  12.315  0.2210  2.5275 -2.1040
 5583TIP3   OH238239   3.992   5.540   0.834  0.0572 -0.5827 -0.0217
 5583TIP3    H138240   4.015   5.504   0.748  0.2646 -0.2460 -0.1105
 5583TIP3    H238241   3.904   5.576   0.822  0.0699 -0.5716 -0.0814
 5584TIP3   OH238242   1.703   4.575   5.641 -0.2373 -0.5465  0.3637
 5584TIP3    H138243   1.664   4.657   5.611 -0.9499 -0.1967  2.1402
 5584TIP3    H238244   1.758   4.546   5.568 -0.8955  0.8986 -0.7357
 5585TIP3   OH238245   2.049   4.835   0.019  0.0026 -0.1330  0.4120
 5585TIP3    H138246   2.122   4.785   0.056 -0.6120 -0.9050  0.5902
 5585TIP3    H238247   2.006   4.873   0.095 -1.1453 -1.5607  0.5187
 5586TIP3   OH238248   5.244   1.551  16.533  0.5973  0.7791  0.5391
 5586TIP3    H138249   5.314   1.584  16.589  1.1905  0.2532  0.1221
 5586TIP3    H238250   5.289   1.521  16.454 -0.0115 -0.1856  0.5406
 5587TIP3   OH238251   2.732   5.241  14.269  0.4315  0.1537 -0.4088
 5587TIP3    H138252   2.795   5.309  14.246 -0.3966  1.2787  0.5313
 5587TIP3    H238253   2.785   5.169  14.301  1.3638  0.0740 -2.0012
 5588TIP3   OH238254   1.716   6.111  15.128  0.1618  0.1751  0.8239
 5588TIP3    H138255   1.666   6.030  15.120  0.6966 -0.0509 -0.3313
 5588TIP3    H238256   1.782   6.106  15.059 -0.1643  1.8568  0.3384
 5589TIP3   OH238257   4.292   2.146  13.555  0.2067 -0.0228  0.2678
 5589TIP3    H138258   4.222   2.188  13.605 -0.4916  0.2462 -0.9025
 5589TIP3    H238259   4.270   2.163  13.463  0.4345 -2.0671 -0.2276
 5590TIP3   OH238260   0.730   5.113   3.458  0.3040 -0.0992  0.0982
 5590TIP3    H138261   0.701   5.073   3.376  0.9117  1.0274 -0.6898
 5590TIP3    H238262   0.823   5.131   3.443  0.0640  1.5132  0.4539
 5591TIP3   OH238263   1.785   3.318   1.918  0.1637  0.3757  0.1148
 5591TIP3    H138264   1.690   3.317   1.931 -0.1413  0.6846 -1.8247
 5591TIP3    H238265   1.802   3.244   1.860  1.3479 -0.6194  1.6338
 5592TIP3   OH238266   5.125   3.642  14.875  0.3222 -0.5654  0.1257
 5592TIP3    H138267   5.036   3.640  14.909  0.8287 -1.7625  1.5215
 5592TIP3    H238268   5.130   3.566  14.817 -0.0174  0.4518 -1.2791
 5593TIP3   OH238269   4.973   3.636  11.867 -0.7311  0.2185 -0.2244
 5593TIP3    H138270   4.964   3.542  11.853  0.5353 -0.5229  3.1642
 5593TIP3    H238271   4.997   3.645  11.959 -0.3694  3.8590 -0.5296
 5594TIP3   OH238272   0.969   6.268   0.592  0.1802 -0.6178  0.2495
 5594TIP3    H138273   0.910   6.212   0.643  0.0915 -0.5495  0.2219
 5594TIP3    H238274   0.920   6.349   0.579  0.4572 -0.3908  0.6150
 5595TIP3   OH238275   0.193   5.141   0.277 -0.2618 -0.1748  0.0134
 5595TIP3    H138276   0.272   5.087   0.265 -1.1023 -1.5314  0.2766
 5595TIP3    H238277   0.202   5.179   0.364 -0.6391 -1.7073  0.7703
 5596TIP3   OH238278   4.017   0.854  14.697 -0.6865  0.5160  0.2108
 5596TIP3    H138279   3.937   0.869  14.748 -0.8978 -0.6817  0.2618
 5596TIP3    H238280   4.069   0.934  14.710 -1.4285  0.8922  0.9928
 5597TIP3   OH238281   0.846   2.080  17.232 -0.5323 -0.5968 -0.0767
 5597TIP3    H138282   0.868   1.991  17.204 -1.2985 -0.2454 -1.9606
 5597TIP3    H238283   0.874   2.135  17.160 -2.8749  0.3578 -0.3633
 5598TIP3   OH238284   6.010   5.705   0.882  0.0695 -0.2829 -0.0639
 5598TIP3    H138285   5.984   5.765   0.952  0.5220 -1.8502  1.5315
 5598TIP3    H238286   6.014   5.760   0.804 -2.9521  1.0688  0.5673
 5599TIP3   OH238287   6.752   1.629   2.974  0.0449 -0.0290  0.0209
 5599TIP3    H138288   6.670   1.654   3.016 -0.6813 -1.0653 -0.7221
 5599TIP3    H238289   6.792   1.712   2.949 -0.4345  0.5205  0.9988
 5600TIP3   OH238290   5.083   3.749  12.929  0.0951  0.5021 -0.0891
 5600TIP3    H138291   4.989   3.741  12.919 -0.0645 -0.0013  1.5531
 5600TIP3    H238292   5.101   3.842  12.914 -0.4999  0.4203 -1.4371
 5601TIP3   OH238293   6.200   5.879   3.599  0.0055  0.3893  0.0926
 5601TIP3    H138294   6.219   5.881   3.505 -0.6668  0.2514 -0.0557
 5601TIP3    H238295   6.230   5.964   3.631 -0.3699  0.7081 -0.3783
 5602TIP3   OH238296   0.937   4.990   4.212  0.9842 -0.1091  0.0097
 5602TIP3    H138297   0.860   4.970   4.265  1.7404 -1.7545  0.5336
 5602TIP3    H238298   0.971   5.072   4.248 -1.3241  1.4961 -1.1952
 5603TIP3   OH238299   5.632   3.905   0.961  0.1396  0.4195  0.2323
 5603TIP3    H138300   5.593   3.976   0.910 -0.0174 -1.0122 -1.7351
 5603TIP3    H238301   5.604   3.923   1.051 -0.1107  2.6755 -0.2268
 5604TIP3   OH238302   5.782   3.443  14.473  0.2656 -0.6687  0.4447
 5604TIP3    H138303   5.764   3.412  14.562 -0.8999  0.5766  0.6687
 5604TIP3    H238304   5.735   3.382  14.416 -0.7229 -0.2726  0.8061
 5605TIP3   OH238305   2.053   1.112   4.143 -0.2388 -0.1771  0.0310
 5605TIP3    H138306   2.007   1.037   4.181 -0.5288  0.0564  0.1448
 5605TIP3    H238307   2.005   1.130   4.062  1.1303 -1.4710 -1.1349
 5606TIP3   OH238308   5.656   2.862  15.434  0.3327 -0.2689 -0.2147
 5606TIP3    H138309   5.677   2.782  15.483 -0.1870  0.4523  1.2454
 5606TIP3    H238310   5.563   2.877  15.451  1.1313  2.5368  2.5222
 5607TIP3   OH238311   5.970   3.198   4.863 -0.2279 -0.1085  0.2943
 5607TIP3    H138312   6.020   3.278   4.876  0.0236 -0.5018  1.9885
 5607TIP3    H238313   6.034   3.127   4.873 -0.9802 -0.5972  1.8324
 5608TIP3   OH238314   5.241   4.139   0.173 -0.4642 -0.6681  0.2360
 5608TIP3    H138315   5.246   4.137   0.077  0.7448  1.3089  0.2069
 5608TIP3    H238316   5.213   4.228   0.194  0.6169 -0.6498  1.7492
 5609TIP3   OH238317   4.031   2.513   0.023 -0.3288  0.0147  0.6230
 5609TIP3    H138318   4.011   2.573  -0.050 -1.1249 -1.0175 -0.0430
 5609TIP3    H238319   4.119   2.537   0.050 -0.3577  1.0189 -0.0972
 5610TIP3   OH238320   1.700   1.618   0.103 -0.0879  0.3994 -0.3440
 5610TIP3    H138321   1.701   1.710   0.078 -0.4094 -0.0745 -2.2207
 5610TIP3    H238322   1.610   1.601   0.131  0.1541  0.8047  0.7646
 5611TIP3   OH238323   2.092   6.056  16.096  0.4231 -0.8717 -0.3966
 5611TIP3    H138324   2.160   6.067  16.163  0.1917  0.5708 -0.3811
 5611TIP3    H238325   2.011   6.079  16.140  0.5408  2.8577 -1.7999
 5612TIP3   OH238326   5.635   0.951   0.159  0.2717  0.3672  0.2200
 5612TIP3    H138327   5.631   0.956   0.063  1.4102  0.3381  0.1543
 5612TIP3    H238328   5.564   1.008   0.189  0.7310  1.4371 -0.6428
 5613TIP3   OH238329   6.629   3.829   5.908  0.2329  0.2589  0.0433
 5613TIP3    H138330   6.695   3.872   5.962 -1.3082  0.2764  2.0182
 5613TIP3    H238331   6.583   3.769   5.967 -2.1049  0.8885 -0.9833
 5614TIP3   OH238332   4.364   1.771   1.527  0.3797 -0.2461 -0.5327
 5614TIP3    H138333   4.393   1.858   1.555  2.7991 -1.1977  0.1430
 5614TIP3    H238334   4.442   1.715   1.536 -1.1193 -2.5194 -0.8634
 5615TIP3   OH238335   1.804   2.355  14.038  0.0649 -0.1722 -0.1811
 5615TIP3    H138336   1.758   2.425  14.083 -3.2968 -1.2665 -1.5784
 5615TIP3    H238337   1.846   2.304  14.108  0.7068  1.9044  1.0133
 5616TIP3   OH238338   1.778   5.297  15.921  0.8424  0.0118  0.5370
 5616TIP3    H138339   1.766   5.391  15.937  0.2210 -0.1679  1.1449
 5616TIP3    H238340   1.694   5.258  15.942  1.2410 -0.7492  0.7404
 5617TIP3   OH238341   2.126   6.246   3.153 -0.5182 -0.5092  0.2239
 5617TIP3    H138342   2.037   6.279   3.139 -0.3305 -0.3912 -0.7224
 5617TIP3    H238343   2.163   6.305   3.219 -0.9558 -0.2261  0.2206
 5618TIP3   OH238344   0.107   0.968   2.294  0.4376  1.0038  0.5008
 5618TIP3    H138345   0.083   1.026   2.222  0.8139 -2.0491 -2.3633
 5618TIP3    H238346   0.045   0.895   2.288  1.8552 -0.4044  1.8183
 5619TIP3   OH238347   2.255   2.340  11.133  0.0560 -0.5184  0.8481
 5619TIP3    H138348   2.234   2.371  11.221  0.3384  0.7513  0.4872
 5619TIP3    H238349   2.252   2.244  11.140  0.1115 -0.4378  2.2424
 5620TIP3   OH238350   2.353   2.355  13.397  0.5449  0.1125  0.1254
 5620TIP3    H138351   2.388   2.282  13.346 -1.8531  0.3174 -2.0234
 5620TIP3    H238352   2.377   2.433  13.346 -2.2386  0.2952 -1.1041
 5621TIP3   OH238353   4.121   6.484  13.663 -0.4300  0.5487 -0.0474
 5621TIP3    H138354   4.069   6.409  13.634 -1.9618  1.3743  0.4421
 5621TIP3    H238355   4.068   6.560  13.638  1.6418  1.5529 -1.6474
 5622TIP3   OH238356   1.762   2.009  15.036  0.2589 -0.3728 -0.1378
 5622TIP3    H138357   1.713   2.020  15.118  0.7226 -0.6858  0.1870
 5622TIP3    H238358   1.846   1.974  15.064 -0.3140 -2.5114 -0.9178
 5623TIP3   OH238359   0.293   5.435  13.852  0.1233  0.1069  0.2136
 5623TIP3    H138360   0.307   5.452  13.945  0.2200 -1.9383  0.6220
 5623TIP3    H238361   0.221   5.373  13.849  0.0455  0.2314 -1.0914
 5624TIP3   OH238362   6.352   4.554   4.582  0.5431  0.2852 -0.2556
 5624TIP3    H138363   6.317   4.508   4.658  1.8505  0.6902  0.6312
 5624TIP3    H238364   6.365   4.486   4.516  0.7510 -0.3191  0.3977
 5625TIP3   OH238365   1.505   1.349  14.563  0.4486 -0.1121  0.0889
 5625TIP3    H138366   1.480   1.439  14.585  1.7056  1.0843 -2.8359
 5625TIP3    H238367   1.575   1.328  14.624  0.5600  1.1427  0.4113
 5626TIP3   OH238368   2.710   5.691  14.182 -0.0944 -0.1379 -0.0707
 5626TIP3    H138369   2.725   5.731  14.267 -0.0124 -0.4164  0.0470
 5626TIP3    H238370   2.628   5.644  14.191 -0.0839 -0.1714 -0.1427
 5627TIP3   OH238371   4.404   2.825   0.119  0.2237 -0.3673  0.8519
 5627TIP3    H138372   4.372   2.911   0.092 -1.3127 -1.1356  0.1215
 5627TIP3    H238373   4.497   2.838   0.134  0.1867  1.2287 -0.0910
 5628TIP3   OH238374   0.668   3.756   4.018  0.0983  0.5073 -0.5740
 5628TIP3    H138375   0.746   3.775   3.967  0.2293 -0.3883 -0.7330
 5628TIP3    H238376   0.619   3.838   4.020  1.3623  1.2793  0.0958
 5629TIP3   OH238377   4.065   3.213  13.857 -0.5727 -0.0292 -0.0471
 5629TIP3    H138378   4.159   3.234  13.860 -0.6539  0.5858 -1.3496
 5629TIP3    H238379   4.041   3.200  13.949  0.6424  0.4230  0.3611
 5630TIP3   OH238380   4.082   5.792  17.197 -0.0650  0.5289  0.4192
 5630TIP3    H138381   4.065   5.885  17.182 -0.9200  0.1318 -1.3758
 5630TIP3    H238382   4.080   5.782  17.292 -3.5039  1.7688  0.6256
 5631TIP3   OH238383   3.080   4.353  14.018 -0.1704  0.7580 -0.3486
 5631TIP3    H138384   3.015   4.410  13.978 -1.1293 -1.9176 -2.9662
 5631TIP3    H238385   3.065   4.361  14.112 -1.2049  3.5835 -0.6720
 5632TIP3   OH238386   0.594   4.608   5.730 -0.2481 -0.2690 -0.3190
 5632TIP3    H138387   0.632   4.605   5.819  0.0666 -1.0655 -0.4733
 5632TIP3    H238388   0.520   4.548   5.734  0.1270 -0.7661 -0.7555
 5633TIP3   OH238389   5.111   5.276   5.269  0.5771  0.3487 -0.1206
 5633TIP3    H138390   5.075   5.354   5.227 -0.8169 -0.9507 -1.4886
 5633TIP3    H238391   5.061   5.267   5.350 -0.3770  0.0186 -0.7312
 5634TIP3   OH238392   2.435   3.500  15.493 -0.2630  0.2445  0.1513
 5634TIP3    H138393   2.358   3.505  15.549 -0.2782 -2.0782  0.4315
 5634TIP3    H238394   2.505   3.541  15.545 -0.7399  0.0123  0.9928
 5635TIP3   OH238395   6.750   0.915  13.277  0.4536 -0.6972 -0.1035
 5635TIP3    H138396   6.783   1.005  13.273 -0.7279 -0.2576 -0.1336
 5635TIP3    H238397   6.815   0.868  13.330  0.1276  0.5980  1.4856
 5636TIP3   OH238398   3.024   3.287   2.175 -0.3630  0.4234  0.1932
 5636TIP3    H138399   3.042   3.292   2.269  0.8475 -0.7751  0.0600
 5636TIP3    H238400   3.093   3.230   2.141 -1.3326  0.0891 -1.2827
 5637TIP3   OH238401   0.418   3.126  17.246 -0.4647  0.3884  0.5233
 5637TIP3    H138402   0.355   3.175  17.299 -0.6689  0.4124  0.2589
 5637TIP3    H238403   0.463   3.193  17.194  0.1794  0.4369  1.1182
 5638TIP3   OH238404   5.418   0.359   0.716 -0.0388 -0.6749 -0.3404
 5638TIP3    H138405   5.395   0.266   0.711 -0.1031 -0.9138  2.5146
 5638TIP3    H238406   5.343   0.399   0.761  1.2597  0.1397  1.2240
 5639TIP3   OH238407   1.531   5.212  15.962  0.5287  0.4292 -0.2264
 5639TIP3    H138408   1.445   5.186  15.930 -0.1743  1.0631  1.0549
 5639TIP3    H238409   1.537   5.174  16.050  1.6870  0.1499 -0.4070
 5640TIP3   OH238410   3.469   2.366   6.252 -0.0710  0.1837  0.8279
 5640TIP3    H138411   3.462   2.404   6.339 -1.4370  1.5594  0.1576
 5640TIP3    H238412   3.396   2.304   6.247  0.1465 -0.0669  0.7397
 5641TIP3   OH238413   0.520   4.884   4.182  0.1284 -0.1386 -0.2404
 5641TIP3    H138414   0.540   4.932   4.101  1.6670  0.0121  0.1968
 5641TIP3    H238415   0.578   4.808   4.179 -0.7869 -0.8601  0.0814
 5642TIP3   OH238416   4.211   1.463  15.894  0.1807 -0.3522  0.1748
 5642TIP3    H138417   4.213   1.373  15.928  0.4441  0.6022  2.8558
 5642TIP3    H238418   4.212   1.518  15.972  1.1649  2.0226 -1.4259
 5643TIP3   OH238419   4.292   5.698   6.639  0.6766  0.2173 -0.0767
 5643TIP3    H138420   4.204   5.672   6.612  1.0482  0.5586 -1.6940
 5643TIP3    H238421   4.296   5.792   6.621  1.6438  0.0432 -0.8236
 5644TIP3   OH238422   5.191   4.157  16.814 -0.0419 -0.1452  0.1447
 5644TIP3    H138423   5.139   4.123  16.887 -0.0545 -2.1670 -0.7342
 5644TIP3    H238424   5.278   4.171  16.851 -0.3241 -0.0665  0.7997
 5645TIP3   OH238425   3.128   0.554   2.175 -0.1020  0.6559  0.0860
 5645TIP3    H138426   3.113   0.531   2.266  0.9960 -2.1439 -0.3408
 5645TIP3    H238427   3.053   0.609   2.151 -2.8013 -2.0953  1.5175
 5646TIP3   OH238428   0.305   2.717   3.450 -0.2916  0.7250  0.1765
 5646TIP3    H138429   0.295   2.734   3.356  0.4721  0.9637  0.1311
 5646TIP3    H238430   0.242   2.774   3.492 -1.1247  0.1177 -0.2222
 5647TIP3   OH238431   2.766   6.068  13.745 -0.2782  0.7220 -0.0261
 5647TIP3    H138432   2.704   6.135  13.715 -0.1440  0.9042  0.1034
 5647TIP3    H238433   2.793   6.023  13.665 -0.0986  1.0558 -0.1529
 5648TIP3   OH238434   5.336   5.981  17.263 -0.1368 -0.1283 -0.5136
 5648TIP3    H138435   5.406   5.967  17.326 -0.2207  0.3032 -0.3251
 5648TIP3    H238436   5.315   5.893  17.231 -0.1234 -0.3485  0.0830
 5649TIP3   OH238437   1.132   2.896  14.722  0.0621 -0.7650  0.2105
 5649TIP3    H138438   1.141   2.975  14.776  0.8428 -1.0562  0.5205
 5649TIP3    H238439   1.180   2.916  14.641  0.0747 -0.8394  0.1990
 5650TIP3   OH238440   5.023   2.947   2.847  0.4676 -0.6057 -0.1116
 5650TIP3    H138441   5.071   2.865   2.859 -0.4995 -1.0501  0.9903
 5650TIP3    H238442   4.942   2.920   2.804  0.1641 -0.2368  0.2243
 5651TIP3   OH238443   4.251   5.102  13.995 -0.8887 -0.0735 -0.1858
 5651TIP3    H138444   4.283   5.174  13.940  0.3370  0.9254  1.7243
 5651TIP3    H238445   4.268   5.023  13.944  0.6413  0.7697 -1.0547
 5652TIP3   OH238446   5.401   2.014   1.743  0.2353  0.3514 -0.9164
 5652TIP3    H138447   5.337   2.056   1.801  0.3532 -0.2117 -0.3711
 5652TIP3    H238448   5.373   1.923   1.738  0.4568  0.3070 -1.4359
 5653TIP3   OH238449   2.571   2.009   4.453  0.1393  0.2379  0.1410
 5653TIP3    H138450   2.554   1.954   4.530 -0.6501  1.7724  1.0966
 5653TIP3    H238451   2.490   2.007   4.403  0.3148  0.0617 -0.1427
 5654TIP3   OH238452   4.244   1.333  14.824 -0.0916 -0.6439 -0.2598
 5654TIP3    H138453   4.236   1.395  14.897 -1.8641 -0.5971 -0.4534
 5654TIP3    H238454   4.338   1.318  14.816  0.1763 -0.3251  1.7531
 5655TIP3   OH238455   2.536   5.945   4.670 -0.5291  0.2244  0.0939
 5655TIP3    H138456   2.621   5.980   4.697 -0.9139  0.0840  1.6127
 5655TIP3    H238457   2.474   5.984   4.731 -1.5284  0.0918 -0.8075
 5656TIP3   OH238458   2.620   3.778   6.569  0.0021 -0.4242  0.1463
 5656TIP3    H138459   2.679   3.847   6.539 -1.2785  0.5635 -0.1766
 5656TIP3    H238460   2.634   3.706   6.506 -1.3644  0.9675 -1.8544
 5657TIP3   OH238461   0.170   6.600  11.619  0.3322 -0.0429 -0.3801
 5657TIP3    H138462   0.238   6.560  11.565 -0.1241 -1.2835 -0.0575
 5657TIP3    H238463   0.088   6.585  11.571  0.4277  3.2724 -1.8357
 5658TIP3   OH238464   3.752   4.190   3.674  0.3182  0.2087  0.0065
 5658TIP3    H138465   3.816   4.202   3.604  1.3568  0.2990  0.9488
 5658TIP3    H238466   3.721   4.278   3.694  1.1500  0.3652  0.6741
 5659TIP3   OH238467   5.719   5.046  14.647  0.1026  0.3556 -0.2083
 5659TIP3    H138468   5.729   4.966  14.597  1.2026 -1.7542  3.0678
 5659TIP3    H238469   5.653   5.024  14.714  0.7118  2.0206  1.0105
 5660TIP3   OH238470   5.014   2.109  13.420  0.1313 -0.1518 -0.6601
 5660TIP3    H138471   4.981   2.070  13.338 -0.9586  0.0701 -0.3409
 5660TIP3    H238472   5.003   2.040  13.485  0.7943 -0.2510 -0.6481
 5661TIP3   OH238473   5.040   1.783   2.891 -0.3683  0.0752  0.3692
 5661TIP3    H138474   4.964   1.725   2.891  0.3635 -0.8962  0.2381
 5661TIP3    H238475   5.105   1.738   2.838  0.8081  0.2419  1.6259
 5662TIP3   OH238476   4.300   4.396  10.568 -0.2304  0.1879  0.2836
 5662TIP3    H138477   4.214   4.412  10.607 -0.1334  0.7880  0.2617
 5662TIP3    H238478   4.304   4.455  10.492  0.0461 -0.1183  0.0545
 5663TIP3   OH238479   5.280   5.602  13.135 -0.7076  0.0747  0.0941
 5663TIP3    H138480   5.368   5.629  13.160 -0.6638 -1.0847  1.3371
 5663TIP3    H238481   5.291   5.514  13.100 -1.3876 -0.1873  0.5157
 5664TIP3   OH238482   5.455   3.011   4.278 -0.5373 -0.0181  0.4068
 5664TIP3    H138483   5.519   3.022   4.348 -1.1599 -0.6598  1.0895
 5664TIP3    H238484   5.428   2.919   4.284  0.3599 -0.4600 -1.5168
 5665TIP3   OH238485   0.857   3.005  12.147 -0.0681 -0.3761 -0.1732
 5665TIP3    H138486   0.896   2.950  12.079  0.6501  0.0590 -0.1316
 5665TIP3    H238487   0.839   3.088  12.104  0.0727 -0.2106  0.0801
 5666TIP3   OH238488   6.399   0.951  13.684 -0.3959  0.3374  0.0216
 5666TIP3    H138489   6.355   1.024  13.642 -1.2724  1.1457  2.1839
 5666TIP3    H238490   6.484   0.946  13.641 -0.7483  1.9037 -0.9291
 5667TIP3   OH238491   2.885   2.218  10.960  0.3822 -0.4302  0.2077
 5667TIP3    H138492   2.908   2.204  11.052 -0.8415  0.2557  0.6359
 5667TIP3    H238493   2.921   2.303  10.938  1.8963 -1.1875 -0.3909
 5668TIP3   OH238494   5.445   1.238   2.263  0.2663 -0.2697 -0.0776
 5668TIP3    H138495   5.398   1.259   2.182 -0.3958  2.3474  0.8566
 5668TIP3    H238496   5.537   1.258   2.244 -0.1209  2.1463  0.2429
 5669TIP3   OH238497   5.230   5.755  11.752  0.0817 -0.5107  0.2764
 5669TIP3    H138498   5.137   5.733  11.752  0.1345 -0.9534  2.5592
 5669TIP3    H238499   5.238   5.826  11.689 -1.7800 -0.5550 -0.0514
 5670TIP3   OH238500   3.032   3.595  11.376 -0.2899  0.2211  0.0900
 5670TIP3    H138501   3.000   3.506  11.388  1.8142 -0.4553  1.1930
 5670TIP3    H238502   2.969   3.650  11.424 -1.6969 -0.6080 -0.7418
 5671TIP3   OH238503   4.089   6.721  15.824  0.0537 -0.0999 -0.2946
 5671TIP3    H138504   3.995   6.715  15.839 -0.2162  1.2516 -1.2216
 5671TIP3    H238505   4.120   6.785  15.888  0.7198 -1.8547  1.2581
 5672TIP3   OH238506   5.393   0.427   4.873  0.0150 -0.3261 -0.3484
 5672TIP3    H138507   5.452   0.379   4.931 -0.5587  0.6952  1.1345
 5672TIP3    H238508   5.307   0.390   4.891 -0.4893  1.3971  1.0520
 5673TIP3   OH238509   1.347   6.592   3.656  0.3666  0.3410 -0.1296
 5673TIP3    H138510   1.259   6.607   3.692  0.6966  1.9209  0.0959
 5673TIP3    H238511   1.401   6.661   3.695  1.8439 -0.9117  0.1383
 5674TIP3   OH238512   4.026   5.684   4.039 -0.7513 -0.7094 -0.0766
 5674TIP3    H138513   4.055   5.731   4.117 -1.1168 -0.1400 -0.2760
 5674TIP3    H238514   4.074   5.724   3.967 -3.3640  1.6351 -0.6927
 5675TIP3   OH238515   3.022   2.067   2.101 -0.0163 -0.2151 -0.3570
 5675TIP3    H138516   3.001   2.136   2.164  1.1935 -0.4681  0.3576
 5675TIP3    H238517   2.962   2.082   2.028 -0.9889  0.4990  0.5588
 5676TIP3   OH238518   4.784   4.490  12.416 -0.3863 -0.0187  0.3677
 5676TIP3    H138519   4.744   4.422  12.470 -0.4497  0.5484  1.0457
 5676TIP3    H238520   4.747   4.572  12.450  1.7173  0.5761  1.3761
 5677TIP3   OH238521   0.482   6.354   1.015  0.0477  0.0570 -0.1122
 5677TIP3    H138522   0.478   6.446   1.039  0.8992  0.2891 -0.8057
 5677TIP3    H238523   0.507   6.309   1.096 -3.2001  0.0295  1.0059
 5678TIP3   OH238524   2.944   3.782   2.437  0.3872 -0.7941  0.2704
 5678TIP3    H138525   2.964   3.697   2.398  0.0353 -1.5497  1.6449
 5678TIP3    H238526   2.931   3.762   2.530 -4.7536 -0.1558 -0.0240
 5679TIP3   OH238527   6.675   2.573  14.234 -0.3257 -0.4074 -0.3831
 5679TIP3    H138528   6.715   2.583  14.147 -1.3384 -0.1572 -0.8397
 5679TIP3    H238529   6.596   2.627  14.230 -2.5790 -3.4620 -0.6950
 5680TIP3   OH238530   6.654   3.441   5.870 -0.1050  0.3232 -0.7759
 5680TIP3    H138531   6.701   3.455   5.952  0.0517  0.3094 -0.8648
 5680TIP3    H238532   6.718   3.458   5.801  0.1399 -0.9604 -0.8945
 5681TIP3   OH238533   1.313   3.978   3.524 -0.5514  0.0476 -0.2745
 5681TIP3    H138534   1.382   3.932   3.477 -1.8904 -3.1106  0.5484
 5681TIP3    H238535   1.274   4.036   3.459  0.6577 -0.6932 -1.7232
 5682TIP3   OH238536   5.423   1.006   6.259 -0.0772  0.6531 -0.1042
 5682TIP3    H138537   5.351   1.062   6.288  0.1260  0.2261  1.3162
 5682TIP3    H238538   5.400   0.919   6.290  0.5818  0.3313 -0.4917
 5683TIP3   OH238539   3.922   3.802   3.142  0.3508  0.1618 -0.3544
 5683TIP3    H138540   4.008   3.818   3.104  0.3483  0.2731 -0.3117
 5683TIP3    H238541   3.864   3.864   3.099  0.0662 -0.6743 -1.2158
 5684TIP3   OH238542   1.302   4.032   3.796 -0.5160 -0.2589 -0.0415
 5684TIP3    H138543   1.301   3.997   3.706 -1.8656  0.4113 -0.3152
 5684TIP3    H238544   1.210   4.050   3.815 -0.2911 -0.7597  1.6426
 5685TIP3   OH238545   6.477   1.723  12.945 -0.2155  0.0222 -0.7575
 5685TIP3    H138546   6.424   1.647  12.971 -1.6306  1.1226 -0.2941
 5685TIP3    H238547   6.480   1.778  13.023 -1.2092  1.5317 -1.7305
 5686TIP3   OH238548   3.793   5.516  12.386 -0.1664  0.4280 -0.0918
 5686TIP3    H138549   3.856   5.557  12.445  3.1175 -1.7414 -1.7801
 5686TIP3    H238550   3.749   5.590  12.344  0.5151  2.0537  1.8581
 5687TIP3   OH238551   5.311   0.247  12.597  0.3647  0.2918  0.1933
 5687TIP3    H138552   5.312   0.159  12.635 -0.5102  0.4568  0.6102
 5687TIP3    H238553   5.303   0.306  12.672 -0.9975  0.6413 -0.2018
 5688TIP3   OH238554   5.918   6.798   2.311 -0.0922 -0.1515 -0.1560
 5688TIP3    H138555   5.918   6.752   2.227  2.0956 -0.9100  0.1885
 5688TIP3    H238556   6.010   6.821   2.325 -0.7294  1.9490  0.9932
 5689TIP3   OH238557   6.771   0.327   6.821  0.1155 -0.7467 -0.0376
 5689TIP3    H138558   6.748   0.419   6.838  0.2825 -0.5759 -0.6986
 5689TIP3    H238559   6.691   0.278   6.839 -0.0771 -0.4279 -0.0201
 5690TIP3   OH238560   0.769   1.379  14.785 -0.3623  0.5929  0.1836
 5690TIP3    H138561   0.726   1.416  14.862 -1.3654  1.4628 -0.7548
 5690TIP3    H238562   0.831   1.315  14.820 -2.5514 -0.8696  1.6037
 5691TIP3   OH238563   4.457   2.398  17.257 -0.2545  0.1786  0.6454
 5691TIP3    H138564   4.468   2.393  17.351  0.8913 -1.2640  0.4579
 5691TIP3    H238565   4.489   2.314  17.224 -2.7564 -0.3129 -0.8385
 5692TIP3   OH238566   3.768   1.512   2.694 -0.0774 -0.0214  0.1553
 5692TIP3    H138567   3.766   1.579   2.626 -1.0900 -1.0045 -0.8142
 5692TIP3    H238568   3.860   1.487   2.699  0.0788  0.3821 -0.5205
 5693TIP3   OH238569   1.989   2.924   1.845  0.2015  0.0955  0.3528
 5693TIP3    H138570   1.962   2.834   1.860  2.4642 -0.7018  0.0421
 5693TIP3    H238571   2.079   2.917   1.811 -0.2181  2.3648 -1.5002
 5694TIP3   OH238572   1.002   0.056  17.158  0.1763  0.7261  0.5727
 5694TIP3    H138573   0.933  -0.005  17.183  0.2325  0.7162  0.7059
 5694TIP3    H238574   1.036   0.089  17.241 -0.5621  1.7453  0.4789
 5695TIP3   OH238575   2.350   1.505   3.148 -0.5686 -0.0898  0.3942
 5695TIP3    H138576   2.355   1.597   3.176  0.8159 -0.0020 -0.0576
 5695TIP3    H238577   2.344   1.456   3.230 -1.2229  0.3895  0.6441
 5696TIP3   OH238578   6.722   3.130   5.160  0.4385 -0.1648 -0.1067
 5696TIP3    H138579   6.761   3.117   5.247  1.5462  0.5466 -0.4839
 5696TIP3    H238580   6.739   3.048   5.114  0.7957 -0.1513 -0.0032
 5697TIP3   OH238581   6.793   2.862   0.186 -0.1785  0.5882  0.1554
 5697TIP3    H138582   6.774   2.779   0.229  0.5818 -0.5630 -1.5978
 5697TIP3    H238583   6.712   2.884   0.139  0.1795 -0.1167 -0.8178
 5698TIP3   OH238584   1.282   4.181   5.453 -0.6534  0.2234 -0.1771
 5698TIP3    H138585   1.231   4.225   5.385  1.1362  2.1948 -0.3709
 5698TIP3    H238586   1.364   4.158   5.409 -1.0603 -2.3225  0.2673
 5699TIP3   OH238587   2.260   0.845   6.384 -0.0694 -0.2844  0.0542
 5699TIP3    H138588   2.208   0.795   6.448 -0.4436  1.3315  1.0652
 5699TIP3    H238589   2.222   0.822   6.300 -0.6543 -1.1983  0.5465
 5700TIP3   OH238590   0.712   2.356   5.123 -0.0102 -0.5359 -0.1433
 5700TIP3    H138591   0.691   2.293   5.055  1.1517 -0.7390 -0.3407
 5700TIP3    H238592   0.663   2.435   5.099 -0.7687 -1.0765 -0.3867
 5701TIP3   OH238593   2.216   4.709   0.182 -0.3614 -0.4171 -0.2012
 5701TIP3    H138594   2.274   4.711   0.106 -0.8654 -0.1011 -0.5857
 5701TIP3    H238595   2.274   4.722   0.257 -0.2344  2.9993 -0.7460
 5702TIP3   OH238596   1.824   6.108  15.806 -0.5396 -0.1332 -0.0883
 5702TIP3    H138597   1.849   6.119  15.714  0.1103 -0.7024  0.0104
 5702TIP3    H238598   1.834   6.194  15.845 -0.6457  0.0717 -0.5104
 5703TIP3   OH238599   5.291   5.845  15.103  1.2871 -0.0067  0.0649
 5703TIP3    H138600   5.248   5.776  15.153  1.2400 -0.2511 -0.3057
 5703TIP3    H238601   5.233   5.920  15.110  1.9460  0.3981  1.5289
 5704TIP3   OH238602   3.243   5.811  11.496 -0.1280 -0.3970  0.7671
 5704TIP3    H138603   3.338   5.817  11.504  0.0446 -1.5807 -0.1354
 5704TIP3    H238604   3.211   5.891  11.538  1.2708  0.1787  0.8132
 5705TIP3   OH238605   4.638   5.158  14.395  0.0965  0.2942  0.0613
 5705TIP3    H138606   4.576   5.204  14.337 -0.9582 -0.9072  0.1889
 5705TIP3    H238607   4.712   5.137  14.339 -0.8657 -0.7667 -0.8859
 5706TIP3   OH238608   6.520   5.981  17.113 -0.2893  0.4064 -0.4800
 5706TIP3    H138609   6.557   6.064  17.144 -2.0018  0.2505  2.3810
 5706TIP3    H238610   6.431   6.002  17.087 -0.6505 -0.4626 -0.0013
 5707TIP3   OH238611   1.342   2.850  12.208  0.4314 -0.4495  0.0286
 5707TIP3    H138612   1.392   2.840  12.289  1.5966 -0.3097 -0.6544
 5707TIP3    H238613   1.264   2.901  12.234  0.6239 -0.6818  1.1069
 5708TIP3   OH238614   2.668   4.121  17.096  0.1601  0.0929  0.0537
 5708TIP3    H138615   2.634   4.202  17.136  0.2184 -1.1869  2.9877
 5708TIP3    H238616   2.755   4.145  17.064 -0.4539  1.5607 -0.6155
 5709TIP3   OH238617   0.830   4.794   4.027  0.2142  0.1146  0.3428
 5709TIP3    H138618   0.911   4.774   3.979 -0.0939  3.0690 -1.6135
 5709TIP3    H238619   0.854   4.782   4.119  2.9423  1.0326 -0.1532
 5710TIP3   OH238620   2.910   4.770   2.853 -0.3266 -0.4498 -0.3843
 5710TIP3    H138621   2.914   4.697   2.792 -0.0211  0.9595 -2.1448
 5710TIP3    H238622   2.831   4.754   2.905  0.7526 -2.9686  0.6114
 5711TIP3   OH238623   5.060   1.375   4.049 -0.0059  0.5275 -0.1238
 5711TIP3    H138624   5.093   1.463   4.067  1.5700  0.0488 -0.4798
 5711TIP3    H238625   5.073   1.328   4.131 -0.0098  0.3947 -0.1998
 5712TIP3   OH238626   3.627   0.994   2.102  0.1755 -0.0563  0.5961
 5712TIP3    H138627   3.722   0.986   2.107  0.3754  1.8956  1.0236
 5712TIP3    H238628   3.609   1.004   2.008  0.4330 -0.0966  0.5416
 5713TIP3   OH238629   0.202   4.704  14.628 -0.0342 -0.3555  0.3592
 5713TIP3    H138630   0.282   4.691  14.678  0.2841 -1.6425 -0.4189
 5713TIP3    H238631   0.210   4.792  14.592  1.1381 -0.5226  0.1510
 5714TIP3   OH238632   2.277   2.067  12.903  0.4188  0.2323  0.1191
 5714TIP3    H138633   2.290   2.151  12.861  1.7909 -0.5549 -1.0979
 5714TIP3    H238634   2.365   2.034  12.921 -0.0361 -1.5461 -0.6907
 5715TIP3   OH238635   5.044   5.183  16.244 -0.1840  0.4570 -0.2031
 5715TIP3    H138636   5.068   5.252  16.306  0.5071 -0.7968  0.9892
 5715TIP3    H238637   4.950   5.169  16.258  0.2537 -0.9193  1.8046
 5716TIP3   OH238638   5.815   5.824  12.831  0.5037 -0.0826 -0.0741
 5716TIP3    H138639   5.791   5.899  12.776  0.0786  0.7682  1.1942
 5716TIP3    H238640   5.737   5.769  12.831  0.3508  0.1308  0.0105
 5717TIP3   OH238641   6.011   3.281  14.861 -0.0718 -0.1673  0.1637
 5717TIP3    H138642   5.952   3.205  14.860  0.2050 -0.3875 -0.6733
 5717TIP3    H238643   6.042   3.287  14.951 -0.0855 -1.0605  0.2324
 5718TIP3   OH238644   5.478   3.537  10.829  0.0129  0.0372 -0.0593
 5718TIP3    H138645   5.551   3.497  10.783  0.5352  1.4671 -0.5538
 5718TIP3    H238646   5.518   3.602  10.886 -0.6198 -1.7099  2.5408
 5719TIP3   OH238647   5.965   6.104   4.533 -0.1513  0.4994 -0.1053
 5719TIP3    H138648   6.047   6.107   4.485  0.9626 -0.5890  1.6147
 5719TIP3    H238649   5.962   6.016   4.570 -2.5881  0.1665 -0.8984
 5720TIP3   OH238650   3.870   0.954  16.947  0.4204 -0.3252 -0.0492
 5720TIP3    H138651   3.823   0.924  16.870  0.5135 -0.5884 -0.0040
 5720TIP3    H238652   3.890   1.046  16.928 -1.7774  0.3918  0.7199
 5721TIP3   OH238653   3.056   5.142   0.529  0.1347  0.2045  0.6432
 5721TIP3    H138654   3.112   5.148   0.452  0.5282 -1.9274  0.6837
 5721TIP3    H238655   3.058   5.230   0.568  0.8718  1.0003 -1.1060
 5722TIP3   OH238656   1.928   4.610   4.747 -0.5182  0.1918  0.2352
 5722TIP3    H138657   1.960   4.536   4.798 -1.1282  0.3492  0.8649
 5722TIP3    H238658   1.892   4.570   4.667 -0.4771 -0.1496  0.3871
 5723TIP3   OH238659   6.578   6.026  14.690  0.0337  0.4580 -0.2490
 5723TIP3    H138660   6.597   5.972  14.613 -0.8545 -0.1048 -0.0854
 5723TIP3    H238661   6.486   6.050  14.680 -0.0627  0.4589  0.5887
 5724TIP3   OH238662   6.517   5.662  15.156  0.1656 -0.5998 -0.6281
 5724TIP3    H138663   6.486   5.583  15.201  2.3546 -0.9859  0.3429
 5724TIP3    H238664   6.478   5.657  15.069 -1.4947 -1.5875  0.1220
 5725TIP3   OH238665   6.061   5.484  14.071 -0.0406  0.5754  0.1991
 5725TIP3    H138666   6.124   5.418  14.041  0.1953  1.0591 -0.3846
 5725TIP3    H238667   6.074   5.558  14.013 -1.7694  0.3673 -0.5224
 5726TIP3   OH238668   4.318   1.180  16.879  0.3817 -0.6953  0.0375
 5726TIP3    H138669   4.318   1.140  16.965  1.9209 -0.3687  0.2277
 5726TIP3    H238670   4.383   1.250  16.885 -2.3268  2.0768 -0.1895
 5727TIP3   OH238671   3.917   6.638   4.371  0.7966  0.2964  0.5501
 5727TIP3    H138672   3.986   6.687   4.416 -0.5288  1.2829  1.5784
 5727TIP3    H238673   3.838   6.658   4.420 -0.4438  0.1205 -1.2906
 5728TIP3   OH238674   3.067   0.818  11.230  0.2153 -0.2835  0.1031
 5728TIP3    H138675   3.010   0.891  11.253 -0.2426 -0.7599  0.5134
 5728TIP3    H238676   3.078   0.825  11.136  0.5731  0.5980  0.2067
 5729TIP3   OH238677   1.120   4.763   1.748 -0.1084 -0.0023  0.5342
 5729TIP3    H138678   1.076   4.707   1.685  0.0060  1.3725 -0.8344
 5729TIP3    H238679   1.055   4.830   1.770  0.5339  0.7521  0.2110
 5730TIP3   OH238680   4.506   0.068   3.363 -0.1233 -0.5592  0.1507
 5730TIP3    H138681   4.590   0.064   3.409 -0.2440 -0.8805  0.3450
 5730TIP3    H238682   4.446   0.016   3.417 -0.0410 -1.7272 -0.8496
 5731TIP3   OH238683   6.469   4.553  12.337  0.7530  0.3011  0.1977
 5731TIP3    H138684   6.480   4.470  12.291 -1.2593  0.7210 -1.1263
 5731TIP3    H238685   6.556   4.593  12.334  1.3194 -0.9270 -0.7652
 5732TIP3   OH238686   0.236   5.715  16.621  0.3344 -0.3686  0.3673
 5732TIP3    H138687   0.251   5.621  16.632 -0.1512 -0.4176  0.6561
 5732TIP3    H238688   0.221   5.747  16.710 -0.4809 -0.2002  0.1826
 5733TIP3   OH238689   5.606   1.096   4.223 -0.4674 -0.3708 -0.0196
 5733TIP3    H138690   5.553   1.038   4.169 -0.3169 -0.1847 -0.3660
 5733TIP3    H238691   5.582   1.185   4.195 -0.0506 -0.2830 -0.1113
 5734TIP3   OH238692   4.913   4.311   5.462 -0.1350  0.0186  0.0856
 5734TIP3    H138693   4.848   4.247   5.490  2.3983 -1.5564  2.9888
 5734TIP3    H238694   4.874   4.396   5.485 -2.0794 -0.6687 -0.4836
 5735TIP3   OH238695   5.717   3.461   4.880  0.7496 -0.2141 -0.0053
 5735TIP3    H138696   5.640   3.480   4.934 -0.0891 -0.1305 -1.2121
 5735TIP3    H238697   5.781   3.426   4.943 -0.9757 -2.3338  0.7335
 5736TIP3   OH238698   1.259   3.905  11.950  0.2142 -0.5685 -0.0383
 5736TIP3    H138699   1.331   3.959  11.917 -0.2401 -0.2032 -0.4490
 5736TIP3    H238700   1.181   3.959  11.937 -0.0116 -0.5206  1.4086
 5737TIP3   OH238701   4.485   1.411   4.403 -0.0719  0.5200  0.1980
 5737TIP3    H138702   4.469   1.329   4.356  0.9645 -0.3039  1.2186
 5737TIP3    H238703   4.579   1.410   4.422 -0.1608  1.6347  0.8062
 5738TIP3   OH238704   6.754   0.913   2.621  0.1012  0.3650 -0.1063
 5738TIP3    H138705   6.705   0.847   2.571 -0.1102 -0.0390  0.6283
 5738TIP3    H238706   6.840   0.914   2.580 -0.3855  0.8155 -1.1763
 5739TIP3   OH238707   5.479   1.564  14.733 -0.1639  0.1859  0.2610
 5739TIP3    H138708   5.479   1.620  14.811  0.2745  3.8716 -2.1085
 5739TIP3    H238709   5.568   1.573  14.697  0.2785 -3.0473  0.2502
 5740TIP3   OH238710   1.825   0.430  13.513  0.0327  0.0982  0.5959
 5740TIP3    H138711   1.904   0.406  13.465 -0.5872  1.2199 -1.0649
 5740TIP3    H238712   1.769   0.353  13.508  0.5453 -0.2902  0.7761
 5741TIP3   OH238713   6.648   1.541  16.204 -0.3286  0.1837 -0.1886
 5741TIP3    H138714   6.601   1.623  16.217  1.0533  0.9777  0.0336
 5741TIP3    H238715   6.715   1.562  16.139 -0.0468 -0.8121 -0.2386
 5742TIP3   OH238716   0.896   4.307   0.616  0.1164  0.2782 -0.0797
 5742TIP3    H138717   0.928   4.392   0.646  0.6383 -0.2163  0.7912
 5742TIP3    H238718   0.806   4.325   0.587  0.5175  1.2944 -0.7547
 5743TIP3   OH238719   0.944   4.638   3.575 -0.0548 -0.0208 -0.3812
 5743TIP3    H138720   1.024   4.654   3.625  0.6466  0.7447 -1.6709
 5743TIP3    H238721   0.940   4.712   3.514 -2.6985  0.9211  0.7804
 5744TIP3   OH238722   5.317   5.141   2.509  0.4844 -0.3920  0.2794
 5744TIP3    H138723   5.324   5.186   2.425 -0.0645 -0.5591  0.1429
 5744TIP3    H238724   5.223   5.132   2.524  0.5659  0.2364  1.2376
 5745TIP3   OH238725   5.009   5.874   0.938 -0.4256  0.0200  0.3361
 5745TIP3    H138726   4.989   5.795   0.887 -1.7560 -0.9582  2.2570
 5745TIP3    H238727   4.924   5.912   0.959  0.0536  0.3274  1.8694
 5746TIP3   OH238728   0.707   5.826   0.615  0.5575  0.1922  0.1022
 5746TIP3    H138729   0.773   5.867   0.559 -0.0295 -0.4059 -1.0419
 5746TIP3    H238730   0.654   5.773   0.556 -0.4344 -0.0069  1.1362
 5747TIP3   OH238731   4.507   1.949   6.102  0.5817  0.0599  0.5994
 5747TIP3    H138732   4.497   1.936   6.196  2.0044 -1.4485  0.6004
 5747TIP3    H238733   4.582   2.009   6.094 -1.1887  2.3727  0.4260
 5748TIP3   OH238734   1.074   1.945  13.122 -0.2455 -0.1378 -0.2898
 5748TIP3    H138735   1.007   1.877  13.108 -0.4294  0.3576 -2.1530
 5748TIP3    H238736   1.156   1.896  13.129 -0.4322 -0.6089 -1.1684
 5749TIP3   OH238737   6.411   6.803   4.839  0.5485 -0.3946 -0.0152
 5749TIP3    H138738   6.355   6.870   4.876  1.7584  0.3423  0.5398
 5749TIP3    H238739   6.498   6.821   4.875  1.1151 -1.6102 -0.6933
 5750TIP3   OH238740   1.277   1.761   2.577  0.4410 -0.4108 -0.8894
 5750TIP3    H138741   1.243   1.844   2.543 -1.1962 -0.8954 -0.5142
 5750TIP3    H238742   1.345   1.788   2.639  0.9262  0.5930 -1.8284
 5751TIP3   OH238743   5.399   2.133   3.478 -0.3831 -0.2933 -0.4315
 5751TIP3    H138744   5.341   2.196   3.522 -1.2145 -0.8128 -0.7667
 5751TIP3    H238745   5.485   2.149   3.518 -0.8077  0.2885  0.2930
 5752TIP3   OH238746   5.832   3.698   4.767  0.7667 -0.1140 -0.3439
 5752TIP3    H138747   5.773   3.773   4.771  1.3292  0.3073  2.8513
 5752TIP3    H238748   5.782   3.626   4.806  2.0496  0.1494  2.0205
 5753TIP3   OH238749   3.165   6.072  12.141 -0.1534  0.4059  0.0340
 5753TIP3    H138750   3.172   6.167  12.152  0.8370  0.3886 -0.3189
 5753TIP3    H238751   3.072   6.055  12.131 -0.1733  1.8064 -3.7276
 5754TIP3   OH238752   1.682   2.922   3.412  0.0457 -0.0902 -0.0774
 5754TIP3    H138753   1.612   2.912   3.347 -0.2153  1.5498 -0.0724
 5754TIP3    H238754   1.636   2.941   3.494  0.4771  1.4040 -0.1552
 5755TIP3   OH238755   0.712   4.736  16.994 -0.1565 -0.2052  0.4073
 5755TIP3    H138756   0.644   4.796  16.962 -1.9008 -1.8252  0.8553
 5755TIP3    H238757   0.745   4.693  16.916  0.7254  0.9237  0.1377
 5756TIP3   OH238758   1.944   3.893  14.430 -0.1461  0.2605  0.4132
 5756TIP3    H138759   1.984   3.864  14.512 -0.0967 -2.8451 -0.6045
 5756TIP3    H238760   1.901   3.815  14.395 -2.5374  2.1699 -1.2123
 5757TIP3   OH238761   0.654   1.984   3.269  0.0728 -0.1158 -0.4537
 5757TIP3    H138762   0.680   1.893   3.256 -2.4611 -1.0364  0.2211
 5757TIP3    H238763   0.689   2.030   3.193 -0.6676 -2.1644 -2.1494
 5758TIP3   OH238764   2.638   4.863   5.240  0.1219 -0.0376  0.0982
 5758TIP3    H138765   2.587   4.941   5.218  2.4097  1.1931 -1.1625
 5758TIP3    H238766   2.690   4.888   5.316 -0.1154 -0.8292  0.5413
 5759TIP3   OH238767   6.275   4.326   2.996 -0.0368 -0.4919 -0.4864
 5759TIP3    H138768   6.250   4.234   2.985  1.9666 -1.2252  0.5160
 5759TIP3    H238769   6.329   4.346   2.920 -1.6757  0.3789 -1.4829
 5760TIP3   OH238770   4.134   3.557   5.037  0.0760  0.1005 -0.2759
 5760TIP3    H138771   4.227   3.533   5.035  0.0545  0.0017 -0.1072
 5760TIP3    H238772   4.116   3.575   5.129 -0.2455 -0.5674 -0.1996
 5761TIP3   OH238773   4.515   6.306  14.188  0.1457  0.2037 -0.2786
 5761TIP3    H138774   4.441   6.334  14.134  0.7245  0.7102 -0.8204
 5761TIP3    H238775   4.502   6.211  14.198 -1.7087  0.5607  1.3861
 5762TIP3   OH238776   5.915   3.037   5.716  0.2955 -0.3622  0.0731
 5762TIP3    H138777   5.838   3.073   5.760  0.5822 -0.2270  0.4679
 5762TIP3    H238778   5.927   3.093   5.640  1.0360  0.7078  0.9487
 5763TIP3   OH238779   0.762   4.537  11.004 -0.3129 -0.1035  0.0110
 5763TIP3    H138780   0.800   4.460  10.962  2.3695  1.1761 -0.1430
 5763TIP3    H238781   0.743   4.509  11.094 -0.3303 -1.1884 -0.3220
 5764TIP3   OH238782   0.805   5.037   2.525 -0.8155  0.1647 -0.2482
 5764TIP3    H138783   0.748   5.096   2.476 -1.9390  0.5575  1.4645
 5764TIP3    H238784   0.873   5.094   2.561 -0.8582  0.1109 -0.0841
 5765TIP3   OH238785   2.439   4.991  15.885 -0.7560  0.0589 -0.4194
 5765TIP3    H138786   2.491   4.922  15.926 -2.9165 -0.6782  1.2667
 5765TIP3    H238787   2.425   4.961  15.795 -0.5542 -1.0396 -0.0976
 5766TIP3   OH238788   2.446   1.115  15.222 -0.9766  0.3159  0.3862
 5766TIP3    H138789   2.443   1.066  15.304 -0.0284  0.4524  0.5099
 5766TIP3    H238790   2.429   1.050  15.154  2.0720 -0.6119  0.3959
 5767TIP3   OH238791   6.155   6.293   3.467 -0.0911  0.0882 -0.1315
 5767TIP3    H138792   6.105   6.227   3.419  2.4130 -1.8896 -0.2099
 5767TIP3    H238793   6.155   6.262   3.557 -2.1385  2.1274  0.6412
 5768TIP3   OH238794   0.073   1.064  14.585  0.0288  0.4323 -0.0235
 5768TIP3    H138795   0.047   1.156  14.583  0.1136  0.4439 -0.9628
 5768TIP3    H238796   0.144   1.060  14.649  1.6380  1.4770 -1.6496
 5769TIP3   OH238797   2.850   5.943  11.089 -0.3072 -0.3834 -0.1469
 5769TIP3    H138798   2.830   6.025  11.044 -1.7579  0.0354  1.1583
 5769TIP3    H238799   2.861   5.968  11.180 -1.2971 -1.6836  0.3598
 5770TIP3   OH238800   3.459   1.410  16.653 -0.7163 -0.9303 -0.4122
 5770TIP3    H138801   3.483   1.480  16.591 -0.4597 -2.4614 -2.1427
 5770TIP3    H238802   3.370   1.385  16.628 -0.2979 -2.1400 -0.7701
 5771TIP3   OH238803   5.561   1.878  12.286 -0.2459  0.5079 -0.0581
 5771TIP3    H138804   5.476   1.844  12.258 -0.1916 -0.3315  0.7838
 5771TIP3    H238805   5.558   1.876  12.381  0.6875  0.5660 -0.0187
 5772TIP3   OH238806   0.969   0.693   3.398 -0.2352  0.3162 -0.4733
 5772TIP3    H138807   1.030   0.754   3.356  0.8032 -0.2566  0.1580
 5772TIP3    H238808   1.010   0.672   3.482 -1.4777  0.1723  0.1111
 5773TIP3   OH238809   0.822   1.002  14.713  0.0541 -0.1735 -0.0805
 5773TIP3    H138810   0.732   1.026  14.689  0.3706  1.3450  0.1867
 5773TIP3    H238811   0.852   1.073  14.769  1.8165 -0.0983 -1.0456
 5774TIP3   OH238812   0.423   1.346   5.544 -0.1711 -0.5945 -0.1345
 5774TIP3    H138813   0.475   1.413   5.588  0.4793  0.0559 -1.7739
 5774TIP3    H238814   0.452   1.263   5.581  0.8436 -0.1208  0.1687
 5775TIP3   OH238815   4.483   3.609  12.493 -0.0195  0.0366 -0.3325
 5775TIP3    H138816   4.407   3.552  12.504  0.4009 -0.3328  0.8570
 5775TIP3    H238817   4.493   3.618  12.399 -1.6898  0.3093 -0.5204
 5776TIP3   OH238818   4.846   3.635  11.263 -0.8035 -0.5234  0.3108
 5776TIP3    H138819   4.942   3.635  11.272 -0.7775  0.9757  0.2007
 5776TIP3    H238820   4.818   3.720  11.296 -1.9394 -0.2618 -1.2158
 5777TIP3   OH238821   1.019   1.459   3.388  0.4908  0.3435 -0.0040
 5777TIP3    H138822   0.988   1.506   3.465 -0.0324  0.1734 -0.1060
 5777TIP3    H238823   1.113   1.476   3.386 -0.0641  4.1486 -1.8885
 5778TIP3   OH238824   2.019   0.148  13.661  0.8339  0.3789  0.8910
 5778TIP3    H138825   1.996   0.187  13.745 -0.1386  1.2978  0.2149
 5778TIP3    H238826   1.945   0.091  13.640  1.5116 -0.6037  1.0975
 5779TIP3   OH238827   2.527   5.202  13.504  0.1334 -0.0603 -0.2172
 5779TIP3    H138828   2.591   5.245  13.562 -2.0023 -1.6202  3.6524
 5779TIP3    H238829   2.556   5.111  13.500 -0.2638 -0.1636 -0.8643
 5780TIP3   OH238830   0.662   4.959   4.580 -0.0197 -0.4061  0.2153
 5780TIP3    H138831   0.608   4.933   4.654 -1.2754  1.1352 -0.1114
 5780TIP3    H238832   0.713   5.033   4.612 -0.3204  0.0526 -0.3622
 5781TIP3   OH238833   2.225   2.770  16.349  0.6676  0.8299  0.6257
 5781TIP3    H138834   2.271   2.704  16.401 -1.3247  0.2828  1.7893
 5781TIP3    H238835   2.189   2.722  16.274  0.9760  1.0206  0.3509
 5782TIP3   OH238836   4.686   6.228   1.737  0.3422 -0.5712 -0.3035
 5782TIP3    H138837   4.781   6.241   1.734  0.5359 -1.6672  0.5904
 5782TIP3    H238838   4.654   6.297   1.796  0.3078  1.0592 -2.1421
 5783TIP3   OH238839   1.486   2.382  14.810 -0.0008 -0.3531  0.5482
 5783TIP3    H138840   1.555   2.317  14.825 -0.6480 -0.9242  1.0984
 5783TIP3    H238841   1.429   2.375  14.886 -1.5158 -0.9620 -0.5879
 5784TIP3   OH238842   2.690   4.907  16.680  0.1157 -0.4015  0.1547
 5784TIP3    H138843   2.620   4.883  16.619  0.0825  0.8269 -0.3235
 5784TIP3    H238844   2.746   4.966  16.630  2.2178 -2.3091  0.1298
 5785TIP3   OH238845   4.872   1.084  13.626 -0.2093  0.4511 -0.2240
 5785TIP3    H138846   4.842   1.053  13.541  0.7547 -1.4496  0.0701
 5785TIP3    H238847   4.960   1.117  13.610  0.8028 -1.7989  0.3153
 5786TIP3   OH238848   2.199   6.594  12.465  0.0401  0.3321 -0.0912
 5786TIP3    H138849   2.200   6.500  12.445  0.6486  0.5380 -1.1143
 5786TIP3    H238850   2.149   6.601  12.546 -1.6378 -0.6937 -0.9780
 5787TIP3   OH238851   2.703   2.874   3.661 -0.3431  0.1201  0.6902
 5787TIP3    H138852   2.649   2.953   3.666 -0.8673 -0.1942  0.2122
 5787TIP3    H238853   2.793   2.906   3.661 -0.5548  0.7873 -0.3564
 5788TIP3   OH238854   0.012   1.256   5.068 -0.0620  0.5164  0.1788
 5788TIP3    H138855  -0.070   1.303   5.084 -1.2393 -1.4340  0.1952
 5788TIP3    H238856  -0.010   1.190   5.003  0.9752 -1.3085  1.5767
 5789TIP3   OH238857   0.959   2.415   1.460 -0.1141 -0.1863  0.2362
 5789TIP3    H138858   1.029   2.444   1.518 -0.4978  2.5795 -0.5202
 5789TIP3    H238859   0.881   2.461   1.491 -1.3322 -2.0802  0.1707
 5790TIP3   OH238860   6.102   0.280   4.167 -0.2953  0.1387  0.2717
 5790TIP3    H138861   6.192   0.249   4.160 -0.5964 -0.5924 -0.5168
 5790TIP3    H238862   6.053   0.204   4.196 -0.5822  0.6906  1.2855
 5791TIP3   OH238863   0.609   1.247  14.297  0.3237 -0.3965  0.2705
 5791TIP3    H138864   0.688   1.236  14.246  1.4241 -2.2802  2.2228
 5791TIP3    H238865   0.639   1.285  14.380 -1.1379  0.8910  0.2620
 5792TIP3   OH238866   3.590   3.792  12.209  0.1057 -0.1125 -0.2244
 5792TIP3    H138867   3.649   3.861  12.240 -1.6432  1.6088 -0.5558
 5792TIP3    H238868   3.637   3.711  12.229  2.8654  1.1419 -1.0671
 5793TIP3   OH238869   6.791   6.568  16.012  0.1726  0.1559  0.0633
 5793TIP3    H138870   6.723   6.582  16.079 -0.3957 -1.8165 -0.0398
 5793TIP3    H238871   6.859   6.632  16.033 -1.8079  2.4100  0.0113
 5794TIP3   OH238872   6.665   4.805   4.469  0.5063  0.0233  0.1848
 5794TIP3    H138873   6.732   4.779   4.406 -1.2425 -1.3576 -1.1958
 5794TIP3    H238874   6.651   4.727   4.522 -1.7533 -0.5927 -1.2034
 5795TIP3   OH238875   4.076   0.197  15.746 -0.4374  0.3366  0.1544
 5795TIP3    H138876   4.085   0.128  15.812 -0.4814 -0.3909 -0.5703
 5795TIP3    H238877   4.000   0.248  15.774 -0.9835 -0.4882  0.2197
 5796TIP3   OH238878   2.169   2.394   2.959  0.1433 -0.4351  0.6921
 5796TIP3    H138879   2.233   2.388   3.031  0.1586 -0.0596  0.7090
 5796TIP3    H238880   2.212   2.448   2.893  1.0935 -2.6285 -0.6229
 5797TIP3   OH238881   2.120   1.354  11.127 -0.0518  0.3215  0.2395
 5797TIP3    H138882   2.101   1.260  11.120 -0.6511  0.4145  0.5228
 5797TIP3    H238883   2.213   1.358  11.148 -0.2290 -0.2535  1.2151
 5798TIP3   OH238884   1.044   5.446  15.148  0.6541 -0.2036 -0.3128
 5798TIP3    H138885   0.991   5.418  15.223  1.4753  0.0485  0.3735
 5798TIP3    H238886   0.984   5.440  15.073 -0.6367  0.9858  0.5690
 5799TIP3   OH238887   1.240   1.681   0.490  0.1022 -0.0734 -0.4085
 5799TIP3    H138888   1.189   1.627   0.429 -1.1665 -1.1902  1.5498
 5799TIP3    H238889   1.187   1.759   0.503 -0.7859 -0.8894  1.0331
 5800TIP3   OH238890   6.178   5.286  17.015 -0.0341  0.3867 -0.1081
 5800TIP3    H138891   6.153   5.243  17.097  0.0151 -0.4352 -0.5104
 5800TIP3    H238892   6.180   5.215  16.950 -2.4804  1.3799 -1.3773
 5801TIP3   OH238893   2.442   5.044   3.097  1.2121 -0.0549  0.0909
 5801TIP3    H138894   2.403   5.073   3.180 -0.4287 -0.3653 -0.5294
 5801TIP3    H238895   2.435   4.949   3.100  0.2253 -0.0303 -0.7976
 5802TIP3   OH238896   5.215   1.713  13.201 -0.1847  0.2549 -0.2410
 5802TIP3    H138897   5.265   1.789  13.171  1.3859  0.0598  1.6730
 5802TIP3    H238898   5.226   1.648  13.132  2.3644  0.1945  0.1410
 5803TIP3   OH238899   5.076   1.066  16.716 -0.3930 -0.0343 -0.1431
 5803TIP3    H138900   5.000   1.009  16.723  0.1469 -0.6563  0.7592
 5803TIP3    H238901   5.055   1.125  16.642 -1.6696 -0.2842  0.0009
 5804TIP3   OH238902   5.047   2.920  13.768 -0.0171 -0.1071  0.0585
 5804TIP3    H138903   5.068   2.934  13.675  0.0340 -1.3468 -0.1216
 5804TIP3    H238904   5.072   3.002  13.810  1.9144 -0.2643 -0.7000
 5805TIP3   OH238905   0.465   3.669  16.221  0.1980 -0.2623 -0.1340
 5805TIP3    H138906   0.411   3.605  16.266  2.0442 -0.9761  1.1723
 5805TIP3    H238907   0.475   3.634  16.132  2.0540 -2.4655  0.8386
 5806TIP3   OH238908   2.051   4.315   4.557  0.3859 -0.4303  0.0954
 5806TIP3    H138909   2.019   4.402   4.532  2.2762  0.2923  0.0384
 5806TIP3    H238910   1.994   4.288   4.629 -0.9097  0.3813 -0.5960
 5807TIP3   OH238911   0.019   6.343  14.221  0.2189  0.4408 -0.8760
 5807TIP3    H138912   0.017   6.264  14.167 -1.3815 -0.7916  0.8436
 5807TIP3    H238913  -0.070   6.378  14.216  0.2904  0.8153  0.1526
 5808TIP3   OH238914   1.014   6.430   4.623  0.0058  0.1325 -0.0645
 5808TIP3    H138915   0.981   6.409   4.711  2.1350 -3.7238  0.0270
 5808TIP3    H238916   0.986   6.357   4.569  1.3347  0.8944 -1.8748
 5809TIP3   OH238917   0.856   1.636  14.672  0.7555 -0.3281  0.1138
 5809TIP3    H138918   0.809   1.565  14.717 -0.2794 -0.4288 -1.0759
 5809TIP3    H238919   0.881   1.599  14.588  2.3572 -0.0249  0.4217
 5810TIP3   OH238920   1.482   5.130   6.805 -0.1542  0.0379 -0.6122
 5810TIP3    H138921   1.492   5.224   6.820  0.6585 -0.1367  0.0627
 5810TIP3    H238922   1.422   5.123   6.731 -0.2953  1.0844 -0.6093
 5811TIP3   OH238923   5.809   6.720   4.133 -0.4102  0.2286  0.2069
 5811TIP3    H138924   5.796   6.710   4.039 -2.5746 -2.6672  0.6488
 5811TIP3    H238925   5.859   6.642   4.158  0.0649  0.9115  1.4606
 5812TIP3   OH238926   4.579   4.328   4.337 -0.1025  0.0863  0.1915
 5812TIP3    H138927   4.498   4.280   4.353 -0.0106  0.3254  1.4720
 5812TIP3    H238928   4.642   4.262   4.309 -0.3155 -0.3472  0.7226
 5813TIP3   OH238929   6.066   0.073   6.218 -0.0630 -0.1038  0.0180
 5813TIP3    H138930   6.123   0.143   6.186 -0.5128 -0.3632 -1.4351
 5813TIP3    H238931   6.058   0.089   6.312 -1.2202  2.6106 -0.4568
 5814TIP3   OH238932   4.978   5.159   4.442 -0.5396 -0.6966  0.3718
 5814TIP3    H138933   5.070   5.132   4.437 -0.7451 -1.2119 -0.9530
 5814TIP3    H238934   4.934   5.087   4.487 -1.0038 -2.5711 -2.7466
 5815TIP3   OH238935   3.598   6.618  13.163  0.2013 -0.5717  0.0791
 5815TIP3    H138936   3.541   6.588  13.092  0.0265 -2.1126  0.8268
 5815TIP3    H238937   3.674   6.560  13.159  0.9069  0.3271  0.1975
 5816TIP3   OH238938   3.825   3.019   3.362  1.0045  0.0999 -0.0957
 5816TIP3    H138939   3.754   2.956   3.369  0.5882  0.4792 -0.8362
 5816TIP3    H238940   3.850   3.017   3.269  2.3107 -0.4052  0.2308
 5817TIP3   OH238941   3.709   2.941  14.844  0.0511 -0.5292 -0.0313
 5817TIP3    H138942   3.785   2.964  14.790  0.8025 -0.3819  1.0695
 5817TIP3    H238943   3.733   2.860  14.887  1.0846  1.2438  3.0310
 5818TIP3   OH238944   1.444   5.885   5.054 -0.0194 -0.6434 -0.7260
 5818TIP3    H138945   1.487   5.814   5.006  2.2971 -1.4043  2.1966
 5818TIP3    H238946   1.462   5.964   5.001  1.2766 -1.5904 -1.7741
 5819TIP3   OH238947   3.877   0.444  12.642 -0.1617  1.1136 -0.0898
 5819TIP3    H138948   3.858   0.517  12.582  1.5617  0.5285 -1.4214
 5819TIP3    H238949   3.966   0.460  12.671 -0.3296  0.3551  0.8623
 5820TIP3   OH238950   1.574   3.128  17.189 -0.3845 -0.2139  0.1101
 5820TIP3    H138951   1.517   3.051  17.193 -0.4471 -0.3079 -1.7085
 5820TIP3    H238952   1.603   3.132  17.098  1.2218  0.7870  0.6192
 5821TIP3   OH238953   3.949   5.451   2.870  0.0870 -0.1825 -0.3207
 5821TIP3    H138954   4.008   5.483   2.938  2.3325 -0.9191 -1.8189
 5821TIP3    H238955   3.960   5.511   2.797 -0.9949 -0.3651 -0.6535
 5822TIP3   OH238956   5.154   5.001  12.104  0.0173  0.1664 -0.2343
 5822TIP3    H138957   5.231   4.992  12.160 -0.9228 -1.3812  0.8677
 5822TIP3    H238958   5.150   4.920  12.054 -0.7189  0.3735 -0.5249
 5823TIP3   OH238959   6.198   2.812  14.046 -0.0549 -0.6556  0.2136
 5823TIP3    H138960   6.195   2.889  13.989 -4.4471  0.5001  1.6070
 5823TIP3    H238961   6.219   2.848  14.133 -0.2456 -1.3213  0.5401
 5824TIP3   OH238962   4.704   5.921   0.792  0.6100  0.4935 -0.8570
 5824TIP3    H138963   4.751   5.970   0.725 -0.3248  0.4971 -1.5291
 5824TIP3    H238964   4.749   5.942   0.874  1.2852  1.1024 -1.3770
 5825TIP3   OH238965   6.529   5.710  16.072 -0.1480  0.5048  0.2127
 5825TIP3    H138966   6.500   5.756  16.151 -0.0130  0.5047  0.2632
 5825TIP3    H238967   6.595   5.768  16.034  2.9203 -1.3437  2.3097
 5826TIP3   OH238968   5.606   5.757   2.850 -0.4289 -0.3229  0.3489
 5826TIP3    H138969   5.525   5.708   2.864 -0.8406  0.5938  1.2676
 5826TIP3    H238970   5.600   5.788   2.759  0.3340 -2.8143 -0.6295
 5827TIP3   OH238971   6.742   1.292  11.745 -0.0657  0.2109  0.5328
 5827TIP3    H138972   6.751   1.197  11.752 -0.4705  0.1317  0.0057
 5827TIP3    H238973   6.823   1.327  11.783  0.3117 -0.3521  0.2490
 5828TIP3   OH238974   1.241   5.891   3.508 -0.4295 -0.3248 -0.3673
 5828TIP3    H138975   1.281   5.893   3.421 -0.0907 -2.7234 -0.3467
 5828TIP3    H238976   1.148   5.877   3.491 -0.5816  0.5860 -0.3390
 5829TIP3   OH238977   4.744   1.322  14.515 -0.1048  0.0248  0.0832
 5829TIP3    H138978   4.772   1.374  14.590 -0.4524  1.0099 -0.4486
 5829TIP3    H238979   4.802   1.351  14.444 -0.9106  0.3782 -0.4457
 5830TIP3   OH238980   1.533   4.350  10.963  0.3067 -0.0916 -0.3320
 5830TIP3    H138981   1.550   4.443  10.976  0.0874 -0.0635 -0.2332
 5830TIP3    H238982   1.511   4.343  10.870  1.2240 -0.1880 -0.5455
 5831TIP3   OH238983   0.237   2.999  15.926  0.0742  0.1218 -0.0906
 5831TIP3    H138984   0.208   3.066  15.864 -0.3374  0.7860  0.7924
 5831TIP3    H238985   0.322   3.029  15.957  0.6862 -0.6566 -0.9646
 5832TIP3   OH238986   1.912   5.485   0.528  0.4637  0.2746  0.5523
 5832TIP3    H138987   1.887   5.571   0.561  0.3735  0.0356  1.1159
 5832TIP3    H238988   1.838   5.428   0.550  0.0556  0.2651 -0.7579
 5833TIP3   OH238989   5.089   6.027  12.777 -0.3204 -0.6941  0.1327
 5833TIP3    H138990   5.016   6.033  12.715 -0.6222  0.1766  0.5578
 5833TIP3    H238991   5.166   6.010  12.721 -0.6553 -0.3669 -0.4435
 5834TIP3   OH238992   6.513   1.885  12.187  0.1313  0.3995 -0.3265
 5834TIP3    H138993   6.511   1.981  12.189  0.8992  0.4328  1.5632
 5834TIP3    H238994   6.539   1.860  12.276 -2.2513 -1.6444 -0.1010
 5835TIP3   OH238995   2.269   3.833   5.426  0.0238 -0.0304  0.7230
 5835TIP3    H138996   2.212   3.767   5.464  0.7942 -1.3910 -0.3967
 5835TIP3    H238997   2.335   3.784   5.377  0.0537  1.5575 -0.9804
 5836TIP3   OH238998   2.144   0.203  16.584  0.3676  0.2966  0.4943
 5836TIP3    H138999   2.111   0.229  16.669 -0.0067  0.1290  0.4012
 5836TIP3    H239000   2.115   0.272  16.524 -2.4032 -1.2494 -0.1420
 5837TIP3   OH239001   0.308   3.060   3.494 -0.4076 -0.1009  0.0072
 5837TIP3    H139002   0.328   3.021   3.579 -1.6218  0.7543  0.7183
 5837TIP3    H239003   0.313   3.154   3.509  0.9652  0.0655 -1.2937
 5838TIP3   OH239004   1.117   3.782  13.485 -0.2807 -0.0959 -0.7061
 5838TIP3    H139005   1.209   3.795  13.508  0.3387 -2.8429 -1.2309
 5838TIP3    H239006   1.076   3.754  13.566 -0.9068  1.9520 -0.2702
 5839TIP3   OH239007   5.420   2.737   3.471  0.0675  0.3042  0.2643
 5839TIP3    H139008   5.413   2.722   3.377 -2.3800 -0.2225  0.4665
 5839TIP3    H239009   5.462   2.658   3.505 -0.5416 -0.2333 -0.2126
 5840TIP3   OH239010   5.126   5.812   3.400  0.7489 -0.2856  0.2996
 5840TIP3    H139011   5.055   5.875   3.401  0.8985 -0.0810 -0.8023
 5840TIP3    H239012   5.124   5.772   3.487 -0.8016 -0.3928  0.2386
 5841TIP3   OH239013   6.606   2.217   1.578 -0.2405  0.9563 -0.0151
 5841TIP3    H139014   6.589   2.130   1.612 -0.9226  0.6331 -1.1305
 5841TIP3    H239015   6.533   2.270   1.610 -0.3040  0.9090 -0.0825
 5842TIP3   OH239016   3.820   4.716  14.459  0.0006 -0.3972  0.4191
 5842TIP3    H139017   3.755   4.778  14.427  2.1944  0.4866 -2.8799
 5842TIP3    H239018   3.770   4.637  14.479 -2.2086  0.6573 -0.5763
 5843TIP3   OH239019   0.357   3.095  12.185 -0.2087  0.5628 -0.5798
 5843TIP3    H139020   0.356   3.173  12.131  2.5134 -0.6718 -2.6664
 5843TIP3    H239021   0.372   3.023  12.124 -2.0510 -1.5866  1.3130
 5844TIP3   OH239022   6.093   2.696   4.389 -0.0630  0.2358 -0.0346
 5844TIP3    H139023   6.165   2.736   4.437 -1.0612  0.8739  0.9916
 5844TIP3    H239024   6.065   2.622   4.444  0.3129 -0.5088 -0.8183
 5845TIP3   OH239025   6.518   4.105   0.507 -0.4048  0.1698  0.3849
 5845TIP3    H139026   6.506   4.139   0.418 -0.5948 -0.2167  0.2636
 5845TIP3    H239027   6.529   4.184   0.560  0.3623  0.3906 -0.0677
 5846TIP3   OH239028   4.305   5.076  13.176  0.0206  0.1748 -0.5664
 5846TIP3    H139029   4.278   5.157  13.219 -2.5318 -0.5557 -0.6515
 5846TIP3    H239030   4.345   5.024  13.246 -2.6160 -0.3435  0.6668
 5847TIP3   OH239031   0.421   5.583   2.741  0.2709  0.3858  0.1751
 5847TIP3    H139032   0.350   5.639   2.773 -0.2633  0.5729 -1.2573
 5847TIP3    H239033   0.432   5.608   2.650  1.0485 -0.8140 -0.0841
 5848TIP3   OH239034   1.927   2.152  11.032  0.1964  0.1839  0.1780
 5848TIP3    H139035   1.856   2.213  11.013  1.1065  1.4073  0.6561
 5848TIP3    H239036   1.990   2.166  10.961  2.1075  2.4661  2.1662
 5849TIP3   OH239037   3.787   5.425  15.648  0.8104  0.6624  0.0674
 5849TIP3    H139038   3.743   5.392  15.726  1.5908 -1.1065 -0.1897
 5849TIP3    H239039   3.720   5.424  15.580  0.6016  0.4477  0.2761
 5850TIP3   OH239040   4.018   0.536   0.130  0.1822  0.8787  0.8996
 5850TIP3    H139041   4.011   0.451   0.085 -0.7533  0.4548  1.8217
 5850TIP3    H239042   3.935   0.579   0.113 -0.6793  0.2380  3.1153
 5851TIP3   OH239043   4.141   1.402  13.822  0.2015 -0.1930 -0.6516
 5851TIP3    H139044   4.192   1.404  13.740  0.2310 -1.1346 -0.6569
 5851TIP3    H239045   4.130   1.310  13.841 -0.1534  0.0246  0.2073
 5852TIP3   OH239046   6.227   5.455   0.245  0.0279 -0.2539  0.2767
 5852TIP3    H139047   6.191   5.408   0.170  0.2443  0.7652 -0.4922
 5852TIP3    H239048   6.156   5.459   0.309 -0.8381  0.6523 -0.7124
 5853TIP3   OH239049   4.791   1.758   1.103  0.6305  0.4113  0.4926
 5853TIP3    H139050   4.796   1.795   1.191  0.0837 -0.0951  0.7409
 5853TIP3    H239051   4.795   1.834   1.045 -0.4485  0.8773  0.9907
 5854TIP3   OH239052   4.736   0.982   5.025  0.3615 -0.2926  0.1430
 5854TIP3    H139053   4.728   1.003   5.118 -1.9772  2.3828 -0.5214
 5854TIP3    H239054   4.804   1.040   4.993 -0.3591  0.3930 -0.1814
 5855TIP3   OH239055   0.516   3.517   5.191 -0.0599  0.5013 -0.0874
 5855TIP3    H139056   0.536   3.424   5.197  3.2027  1.1851  2.3913
 5855TIP3    H239057   0.555   3.544   5.108  1.8378  0.1520  0.6419
 5856TIP3   OH239058   1.649   3.064  15.250  0.0667  0.0592 -0.4025
 5856TIP3    H139059   1.738   3.032  15.269 -1.1805 -1.2052  4.8914
 5856TIP3    H239060   1.648   3.154  15.281 -0.4241  0.2257 -0.8771
 5857TIP3   OH239061   2.643   5.916   4.424 -0.5879  0.1480 -0.6053
 5857TIP3    H139062   2.645   5.823   4.401  1.2071 -0.4889  1.7798
 5857TIP3    H239063   2.588   5.920   4.502  1.3728  0.6256  0.8238
 5858TIP3   OH239064   0.882   6.163   5.750 -0.0892 -0.2217  0.7713
 5858TIP3    H139065   0.811   6.219   5.780 -1.2002 -0.2948 -1.4792
 5858TIP3    H239066   0.840   6.104   5.687  1.9185 -0.3080 -0.5782
 5859TIP3   OH239067   4.463   1.922   6.386 -0.1497 -0.6248 -0.2528
 5859TIP3    H139068   4.477   1.828   6.400 -0.2356 -0.4403  1.3248
 5859TIP3    H239069   4.405   1.948   6.458  1.3277  0.9682  0.4398
 5860TIP3   OH239070   5.866   2.660   2.770 -0.8798 -0.4913  0.2161
 5860TIP3    H139071   5.925   2.588   2.792  0.5932 -0.4844 -3.1134
 5860TIP3    H239072   5.787   2.617   2.736 -0.5493 -0.5685 -0.4767
 5861TIP3   OH239073   1.184   2.411  15.804  0.2019 -0.5157 -0.6395
 5861TIP3    H139074   1.140   2.397  15.720  1.7434  0.4084 -1.6459
 5861TIP3    H239075   1.231   2.329  15.820  1.3960 -0.0510 -1.6367
 5862TIP3   OH239076   5.194   0.440  12.129 -0.0186 -0.2396 -0.1440
 5862TIP3    H139077   5.132   0.367  12.125  0.2466 -0.4151 -1.6376
 5862TIP3    H239078   5.266   0.414  12.071  1.3434  0.0789  1.3226
 5863TIP3   OH239079   3.066   2.381  14.521 -0.4457  0.2101  0.0334
 5863TIP3    H139080   2.984   2.379  14.471  0.3617  0.0190 -1.3274
 5863TIP3    H239081   3.111   2.460  14.490  1.2040 -1.2271 -1.4754
 5864TIP3   OH239082   0.100   4.033   5.378  0.5397  0.3362  0.3182
 5864TIP3    H139083   0.135   3.979   5.448  0.9659 -1.1828 -0.9960
 5864TIP3    H239084   0.177   4.056   5.325 -0.0514 -0.7453 -1.0807
 5865TIP3   OH239085   1.751   1.937  12.758 -0.1350 -0.6150  0.0140
 5865TIP3    H139086   1.736   1.870  12.691 -0.9413  0.2572 -0.7139
 5865TIP3    H239087   1.846   1.950  12.758 -0.0138 -1.4738 -0.1222
 5866TIP3   OH239088   3.546   4.175  10.967  0.1960 -0.5877  0.3235
 5866TIP3    H139089   3.458   4.210  10.983  0.0689 -0.0444 -1.3605
 5866TIP3    H239090   3.572   4.214  10.883  2.0156 -0.8106  0.7479
 5867TIP3   OH239091   4.977   4.990  15.406  0.3254  0.3099  0.0691
 5867TIP3    H139092   4.949   4.912  15.453 -1.1080  0.5235 -0.3877
 5867TIP3    H239093   4.945   5.063  15.459 -1.1214  0.5561 -1.0592
 5868TIP3   OH239094   0.656   4.991   1.397 -0.2425 -0.0577 -0.1612
 5868TIP3    H139095   0.615   5.010   1.312  1.5349  1.6822 -0.7060
 5868TIP3    H239096   0.582   4.977   1.456 -1.5643  0.4052 -1.6333
 5869TIP3   OH239097   6.200   4.586  13.917 -0.2371  0.2096 -0.1444
 5869TIP3    H139098   6.110   4.565  13.894 -0.0035 -0.9490 -0.0967
 5869TIP3    H239099   6.194   4.667  13.967 -1.0793  0.9812 -1.4488
 5870TIP3   OH239100   0.919   3.303  15.300 -0.2912  0.0502  0.5022
 5870TIP3    H139101   0.965   3.219  15.303  0.6682  0.5479  0.0488
 5870TIP3    H239102   0.969   3.360  15.358  0.2146  0.8539 -0.6803
 5871TIP3   OH239103   5.053   4.231   1.663 -0.5450  0.0530 -0.6614
 5871TIP3    H139104   4.976   4.278   1.629 -0.1932  1.0019 -0.1930
 5871TIP3    H239105   5.016   4.158   1.712 -1.1372  0.1488 -0.9562
 5872TIP3   OH239106   2.031   2.104   3.712  0.4761  0.0431  0.4275
 5872TIP3    H139107   2.050   2.141   3.798  0.0810 -0.1345  0.5890
 5872TIP3    H239108   2.115   2.071   3.681  0.5154 -0.3505  0.9577
 5873TIP3   OH239109   0.179   5.486  12.890 -0.1315 -0.0079  0.7607
 5873TIP3    H139110   0.174   5.517  12.980  1.8481  0.7731  0.6452
 5873TIP3    H239111   0.145   5.396  12.894  0.4917 -0.2068  2.4160
 5874TIP3   OH239112   4.713   3.594   1.412 -0.5686  0.8407  0.2113
 5874TIP3    H139113   4.746   3.680   1.435 -5.1499  2.2178  2.8886
 5874TIP3    H239114   4.671   3.606   1.327 -0.0283  0.8307 -0.0631
 5875TIP3   OH239115   3.805   2.155  11.198 -0.1158  0.1503  0.3432
 5875TIP3    H139116   3.843   2.116  11.119  0.9106  1.7347  0.0183
 5875TIP3    H239117   3.877   2.160  11.260 -0.5178  0.4756  0.7942
 5876TIP3   OH239118   6.674   3.601  15.976  0.0452  0.5874 -0.3205
 5876TIP3    H139119   6.718   3.612  16.061 -0.8344  0.0247  0.2200
 5876TIP3    H239120   6.700   3.513  15.947 -3.1592 -1.1853  1.5446
 5877TIP3   OH239121   3.443   3.380   3.873  0.6965 -0.9390  0.2220
 5877TIP3    H139122   3.484   3.295   3.858  3.3703 -0.1650  2.3128
 5877TIP3    H239123   3.438   3.387   3.969  0.5161  1.2053  0.1066
 5878TIP3   OH239124   1.197   2.049  12.893 -0.8109 -0.4241 -0.6200
 5878TIP3    H139125   1.279   2.066  12.939  0.2617 -3.5960 -1.0879
 5878TIP3    H239126   1.138   2.018  12.961 -1.1466  0.3922 -0.5277
 5879TIP3   OH239127   2.199   4.362  15.260  0.5408 -0.1894  0.3369
 5879TIP3    H139128   2.142   4.408  15.322 -0.0358  1.8666 -1.5834
 5879TIP3    H239129   2.143   4.341  15.186  1.3827 -1.8928  0.1311
 5880TIP3   OH239130   6.059   6.771   2.036 -0.6774 -0.2742 -0.2269
 5880TIP3    H139131   6.051   6.865   2.050  0.4783 -0.3180  0.8849
 5880TIP3    H239132   6.115   6.740   2.107 -0.6903 -1.7389 -0.8085
 5881TIP3   OH239133   2.606   6.080   0.065  0.3853 -0.5150  0.1552
 5881TIP3    H139134   2.574   6.170   0.058  1.0505 -0.2828  0.0528
 5881TIP3    H239135   2.532   6.026   0.038 -0.2412 -0.0316  0.8378
 5882TIP3   OH239136   1.707   2.295   2.481 -0.4340 -0.3548  0.3237
 5882TIP3    H139137   1.681   2.285   2.389 -3.6815 -0.6736  1.1363
 5882TIP3    H239138   1.757   2.377   2.483  1.6753 -1.4539 -1.9894
 5883TIP3   OH239139   3.733   5.708   5.749  0.1633  0.2104 -0.6007
 5883TIP3    H139140   3.698   5.791   5.716 -0.7839  0.1230  0.1549
 5883TIP3    H239141   3.656   5.655   5.767  0.7636 -0.8340 -1.0461
 5884TIP3   OH239142   5.932   5.237  16.280 -0.4405  0.0088  0.1607
 5884TIP3    H139143   5.939   5.238  16.376 -0.4468  1.4266  0.1589
 5884TIP3    H239144   5.838   5.243  16.264 -0.3730  0.8547  0.0650
 5885TIP3   OH239145   4.228   4.015  13.406 -0.2949 -0.3661 -0.0213
 5885TIP3    H139146   4.235   4.072  13.483  0.0944  1.0710 -1.0858
 5885TIP3    H239147   4.146   3.967  13.419  0.5569 -1.4144  2.0863
 5886TIP3   OH239148   3.058   3.858   1.078 -0.3354  0.9644 -0.2748
 5886TIP3    H139149   2.996   3.818   1.017  0.9902  0.7878 -1.5753
 5886TIP3    H239150   3.055   3.951   1.058 -0.4680  1.0077 -0.0579
 5887TIP3   OH239151   5.022   0.939  12.216  0.8052 -0.4432 -0.0280
 5887TIP3    H139152   5.036   0.865  12.156  1.6385 -0.7980  0.5790
 5887TIP3    H239153   4.994   0.898  12.298  1.1131 -0.0755  0.2655
 5888TIP3   OH239154   0.667   3.995   5.872  0.1463 -0.8165 -0.4149
 5888TIP3    H139155   0.642   4.082   5.840  2.9905  0.2499  0.0027
 5888TIP3    H239156   0.583   3.950   5.885 -1.5242  2.2840  0.6188
 5889TIP3   OH239157   0.031   1.875  15.003 -0.4727 -0.4456  0.3683
 5889TIP3    H139158  -0.063   1.860  14.999 -0.8873  1.7731  0.6682
 5889TIP3    H239159   0.055   1.855  15.094 -0.7816 -0.4092  0.4587
 5890TIP3   OH239160   0.463   3.833   0.735 -0.2019  0.0164 -0.4528
 5890TIP3    H139161   0.399   3.769   0.704 -0.8447  1.1157 -1.4603
 5890TIP3    H239162   0.470   3.897   0.664  1.1048  0.5850  0.1526
 5891TIP3   OH239163   5.520   1.025  12.084 -0.1060  0.0140 -0.7477
 5891TIP3    H139164   5.436   1.055  12.119 -0.3559  0.7212 -1.8999
 5891TIP3    H239165   5.533   1.077  12.005 -0.1680 -2.3775 -2.4370
 5892TIP3   OH239166   1.279   5.329  11.638  0.1832  0.0439  0.4121
 5892TIP3    H139167   1.314   5.266  11.575 -0.1156  0.3268 -0.0453
 5892TIP3    H239168   1.278   5.282  11.722  0.6098 -0.3252  0.2111
 5893TIP3   OH239169   0.483   6.265   5.722 -0.1242  0.4813 -0.4008
 5893TIP3    H139170   0.521   6.344   5.683 -0.1064  0.8241  0.2921
 5893TIP3    H239171   0.442   6.296   5.803 -1.0962 -0.0364 -0.6874
 5894TIP3   OH239172   4.512   1.631   4.154 -0.6751 -1.1752 -0.0245
 5894TIP3    H139173   4.489   1.599   4.241  1.7173  2.4203  2.2113
 5894TIP3    H239174   4.608   1.626   4.152 -0.5569  0.5280 -1.6655
 5895TIP3   OH239175   5.647   1.879   1.159 -0.9567 -0.4715 -1.0382
 5895TIP3    H139176   5.574   1.843   1.108 -1.7935 -0.9212  0.4323
 5895TIP3    H239177   5.699   1.803   1.183 -0.2037 -0.1909 -1.7488
 5896TIP3   OH239178   1.249   5.681  10.601  0.0752  0.7355 -0.5829
 5896TIP3    H139179   1.186   5.634  10.656  1.7939 -1.7707 -0.6274
 5896TIP3    H239180   1.276   5.617  10.536  3.2579  1.4257 -0.0831
 5897TIP3   OH239181   2.920   4.335   5.259 -0.2143  0.6009 -0.5365
 5897TIP3    H139182   2.883   4.272   5.198 -1.5076 -0.5605  1.3626
 5897TIP3    H239183   2.935   4.285   5.339  0.7648  2.2377  0.3589
 5898TIP3   OH239184   2.112   5.630   2.890 -0.1560 -0.0712 -0.3795
 5898TIP3    H139185   2.105   5.709   2.836  0.3314  0.5321  0.4129
 5898TIP3    H239186   2.064   5.564   2.841 -1.0237  0.8489 -0.8158
 5899TIP3   OH239187   3.906   6.446   5.229 -0.0604  0.0480  0.3575
 5899TIP3    H139188   3.935   6.525   5.183 -0.1562  0.4410  0.9536
 5899TIP3    H239189   3.985   6.411   5.270  0.5470 -1.7182 -2.0959
 5900TIP3   OH239190   2.497   3.239   0.738 -0.0273 -0.3234 -0.9533
 5900TIP3    H139191   2.470   3.161   0.689 -0.0017 -0.2429 -1.0955
 5900TIP3    H239192   2.423   3.257   0.797  0.6443 -1.4373  0.2717
 5901TIP3   OH239193   6.340   6.084   2.566  0.3479  0.6947 -0.0210
 5901TIP3    H139194   6.288   6.008   2.592  1.3303 -0.1646 -0.5140
 5901TIP3    H239195   6.397   6.052   2.496  0.3306  2.0458 -0.6917
 5902TIP3   OH239196   5.359   4.374   0.570  0.4248  0.1096 -0.0725
 5902TIP3    H139197   5.345   4.280   0.568  1.5707 -0.1176  1.3500
 5902TIP3    H239198   5.278   4.409   0.608  0.5243 -0.4458  0.6840
 5903TIP3   OH239199   3.385   2.780   4.215 -0.4711 -0.5106  0.0635
 5903TIP3    H139200   3.292   2.789   4.196 -0.2492  1.3700 -0.3470
 5903TIP3    H239201   3.426   2.853   4.168  1.0158 -0.3692  1.4859
 5904TIP3   OH239202   0.073   0.769  12.654 -0.3728  0.4434 -0.6843
 5904TIP3    H139203   0.159   0.728  12.663 -0.5093  0.3260  0.1283
 5904TIP3    H239204   0.015   0.699  12.623 -0.0111  0.7257 -2.0742
 5905TIP3   OH239205   3.673   1.970  14.176 -0.1418  0.5833 -0.1959
 5905TIP3    H139206   3.690   1.991  14.084  3.2968 -0.8600 -0.0342
 5905TIP3    H239207   3.721   2.038  14.225  0.3078 -0.1843  0.4515
 5906TIP3   OH239208   0.050   2.336   1.688 -0.5279  0.4470  0.8575
 5906TIP3    H139209   0.023   2.354   1.598  2.2853 -4.1805 -1.2415
 5906TIP3    H239210  -0.027   2.296   1.729 -1.1422  0.4865 -0.2334
 5907TIP3   OH239211   6.691   2.712  16.421  0.7135 -0.1148  0.2650
 5907TIP3    H139212   6.618   2.655  16.444 -0.1668  1.4283  1.5088
 5907TIP3    H239213   6.685   2.722  16.326 -0.1479 -0.7377  0.2471
 5908TIP3   OH239214   4.396   6.319   1.166 -0.5369 -0.2864 -0.3543
 5908TIP3    H139215   4.474   6.297   1.116 -1.1950 -0.7130 -1.2292
 5908TIP3    H239216   4.429   6.351   1.250  0.5534 -1.9667 -0.0877
 5909TIP3   OH239217   4.671   0.483  15.203  0.5106 -1.0310 -0.0092
 5909TIP3    H139218   4.639   0.437  15.281 -0.0109 -0.4947  0.0999
 5909TIP3    H239219   4.765   0.464  15.202  0.7088 -0.2474  1.3175
 5910TIP3   OH239220   2.872   3.783  12.191  1.0616  0.2667  0.5645
 5910TIP3    H139221   2.788   3.745  12.216  1.2909  1.0071  2.6525
 5910TIP3    H239222   2.863   3.876  12.211  1.8709  0.6370 -0.6804
 5911TIP3   OH239223   3.033   0.527  15.446 -0.1741 -0.0581  0.0464
 5911TIP3    H139224   2.954   0.492  15.486  0.7372 -1.3984  0.7580
 5911TIP3    H239225   3.104   0.495  15.502  0.9191  0.6473 -0.8865
 5912TIP3   OH239226   2.630   4.421   0.780  0.5970  0.5439 -0.2889
 5912TIP3    H139227   2.699   4.370   0.737 -0.3200 -1.5080  0.5230
 5912TIP3    H239228   2.551   4.367   0.770 -0.4614  1.8753  0.5516
 5913TIP3   OH239229   6.219   4.377  15.695 -0.0258 -0.5290  0.3596
 5913TIP3    H139230   6.194   4.286  15.677  3.1352 -1.5716  0.6275
 5913TIP3    H239231   6.280   4.371  15.768  0.5368  1.7684  0.1461
 5914TIP3   OH239232   4.202   0.901  14.120 -0.0793 -0.1253  0.1857
 5914TIP3    H139233   4.151   0.822  14.100  0.1279 -0.3004  0.3433
 5914TIP3    H239234   4.247   0.880  14.202 -0.6946  0.4703  0.6956
 5915TIP3   OH239235   5.048   0.220  12.864  0.1747  0.2728  0.0933
 5915TIP3    H139236   5.103   0.181  12.931  1.9784  1.2892 -0.7117
 5915TIP3    H239237   5.002   0.292  12.909  0.1684 -0.0357  0.5837
 5916TIP3   OH239238   1.820   4.118   5.936 -0.0855 -0.2592  0.1054
 5916TIP3    H139239   1.884   4.188   5.949 -0.5022  0.1742 -0.1294
 5916TIP3    H239240   1.844   4.051   6.000 -0.0828  0.3868  0.8022
 5917TIP3   OH239241   3.696   4.941   5.079 -0.1428 -0.1070 -0.0345
 5917TIP3    H139242   3.652   4.865   5.118  0.3382 -0.5426 -0.3281
 5917TIP3    H239243   3.628   5.008   5.073 -0.3416 -0.1788  1.1425
 5918TIP3   OH239244   4.540   6.249  17.026  0.1210 -0.4070  0.4460
 5918TIP3    H139245   4.501   6.305  17.093 -0.3055  0.6281 -0.6238
 5918TIP3    H239246   4.633   6.273  17.025  0.0622 -0.1774  0.4394
 5919TIP3   OH239247   3.068   6.776   5.929 -0.1608 -0.5950  0.2230
 5919TIP3    H139248   3.099   6.699   5.881  0.1173 -0.2047 -0.2211
 5919TIP3    H239249   3.105   6.765   6.017  1.3983 -0.0618 -0.3318
 5920TIP3   OH239250   4.516   3.871   2.023  0.1853  0.7592 -0.5190
 5920TIP3    H139251   4.474   3.854   1.938  1.8570  0.5010 -1.3524
 5920TIP3    H239252   4.534   3.965   2.022  0.4149  0.7159 -0.5672
 5921TIP3   OH239253   4.551   2.623   1.135 -0.0200 -0.5461  0.1376
 5921TIP3    H139254   4.635   2.597   1.172 -0.3398 -0.2235  1.1237
 5921TIP3    H239255   4.518   2.543   1.093  0.7654 -0.6728 -0.2632
 5922TIP3   OH239256   6.811   3.257   0.724  0.4115 -0.1155 -0.1636
 5922TIP3    H139257   6.720   3.285   0.718  0.6949  0.5712 -1.5251
 5922TIP3    H239258   6.844   3.301   0.803 -0.1435  0.5005 -0.2641
 5923TIP3   OH239259   6.185   0.842   3.958  0.0943  0.0452  0.2773
 5923TIP3    H139260   6.253   0.892   4.005  1.0190 -1.1189  0.2369
 5923TIP3    H239261   6.229   0.809   3.880 -0.4655 -0.9040  0.3502
 5924TIP3   OH239262   0.600   2.281  14.607  0.3365  0.0175 -0.3084
 5924TIP3    H139263   0.654   2.359  14.597 -1.4864  1.4628  0.5594
 5924TIP3    H239264   0.544   2.299  14.682 -1.1763 -1.4888 -0.9949
 5925TIP3   OH239265   3.480   0.503  11.294  0.0271 -0.3962 -0.3340
 5925TIP3    H139266   3.396   0.550  11.291  0.8134  1.2712  1.4169
 5925TIP3    H239267   3.459   0.417  11.330 -1.1049 -0.5165 -1.2347
 5926TIP3   OH239268   0.966   6.348  13.279  0.3433  0.2373  0.2926
 5926TIP3    H139269   1.036   6.356  13.344  0.9109  0.8827 -0.3767
 5926TIP3    H239270   0.946   6.255  13.277 -0.3508  0.3276  2.0667
 5927TIP3   OH239271   0.147   0.808   1.620 -0.4823 -0.4616  0.4108
 5927TIP3    H139272   0.225   0.789   1.567 -0.5604  0.7118 -0.1593
 5927TIP3    H239273   0.123   0.724   1.659  0.0731 -1.1808 -0.7528
 5928TIP3   OH239274   0.044   3.398   3.553 -0.2267 -0.4914 -0.5852
 5928TIP3    H139275   0.053   3.310   3.589  0.7328 -0.1339  0.1036
 5928TIP3    H239276   0.124   3.411   3.502  1.1259  1.0032  1.6858
 5929TIP3   OH239277   5.130   1.872  15.504  0.1556 -0.4952 -0.0857
 5929TIP3    H139278   5.144   1.779  15.484  0.7270 -1.0639  2.6003
 5929TIP3    H239279   5.218   1.909  15.511 -0.0283 -0.1640  0.5390
 5930TIP3   OH239280   1.674   3.868   3.476 -0.3629  0.3996 -0.9252
 5930TIP3    H139281   1.618   3.834   3.546  1.9226 -1.0805  0.2864
 5930TIP3    H239282   1.645   3.959   3.465 -1.8353  0.1999  0.8033
 5931TIP3   OH239283   0.262   3.506   4.711 -0.3568  0.5419  0.0132
 5931TIP3    H139284   0.314   3.585   4.698 -0.8680  1.3023  2.0917
 5931TIP3    H239285   0.171   3.537   4.710 -0.5485  0.0723  1.1458
 5932TIP3   OH239286   3.954   0.228   4.336  0.0320 -0.5784  0.1794
 5932TIP3    H139287   3.909   0.312   4.344 -0.8108 -0.9920 -0.0639
 5932TIP3    H239288   3.925   0.194   4.251  0.6725 -0.9366  0.1008
 5933TIP3   OH239289   2.313   6.787   1.572  0.4160  0.1128  0.8493
 5933TIP3    H139290   2.300   6.694   1.556 -1.2561  0.6058 -1.1729
 5933TIP3    H239291   2.227   6.819   1.600  0.3314  1.4266 -0.7780
 5934TIP3   OH239292   3.663   4.890   6.132  0.3193 -0.0408  0.2809
 5934TIP3    H139293   3.758   4.880   6.131  0.4525  1.1190  0.5021
 5934TIP3    H239294   3.646   4.970   6.083 -0.4960  0.1115  0.7912
 5935TIP3   OH239295   6.347   1.676   0.136 -0.1265  0.1597 -0.0504
 5935TIP3    H139296   6.442   1.684   0.139 -0.1389  0.0775  0.6230
 5935TIP3    H239297   6.315   1.766   0.142 -0.0580  0.5754 -3.5517
 5936TIP3   OH239298   1.474   2.809  14.632  0.1287 -0.1364  0.1992
 5936TIP3    H139299   1.444   2.826  14.721 -0.8556  0.5329 -0.2408
 5936TIP3    H239300   1.534   2.735  14.640 -2.3248 -2.1635  1.0295
 5937TIP3   OH239301   4.496   6.444  16.593  0.1113  0.0372 -0.4791
 5937TIP3    H139302   4.549   6.510  16.550  0.5679  0.0434  0.0786
 5937TIP3    H239303   4.447   6.493  16.660  0.2059 -0.1367 -0.2822
 5938TIP3   OH239304   2.484   5.297   0.187  0.3498  0.1393  0.2530
 5938TIP3    H139305   2.468   5.274   0.279 -0.8504 -0.4935 -0.0853
 5938TIP3    H239306   2.396   5.306   0.150  0.8185  1.3763 -0.6029
 5939TIP3   OH239307   4.438   4.530  12.572  0.0821  0.1728  0.2669
 5939TIP3    H139308   4.374   4.548  12.642  0.7296 -0.3636  1.0138
 5939TIP3    H239309   4.487   4.612  12.563 -0.8254  0.6493 -0.4438
 5940TIP3   OH239310   3.069   1.061  12.139  0.3772 -0.1356  0.0092
 5940TIP3    H139311   3.012   1.000  12.187 -1.0247  0.2126 -1.1233
 5940TIP3    H239312   3.145   1.008  12.114 -0.5970 -1.3149 -0.5669
 5941TIP3   OH239313   4.149   2.924  12.271  0.2330  0.1025 -0.5584
 5941TIP3    H139314   4.125   2.862  12.203  1.3959 -0.2541 -0.6662
 5941TIP3    H239315   4.069   2.975  12.287 -0.3829 -0.5983 -1.3325
 5942TIP3   OH239316   2.651   0.670  16.482  0.0888  0.8058 -0.1701
 5942TIP3    H139317   2.643   0.740  16.547  0.1085  0.7761 -0.1356
 5942TIP3    H239318   2.563   0.661  16.446 -0.9625 -1.8260  2.6232
 5943TIP3   OH239319   0.809   6.647   2.800  0.4079 -0.6314 -0.4144
 5943TIP3    H139320   0.863   6.611   2.870 -1.1398 -1.0867  0.5933
 5943TIP3    H239321   0.760   6.573   2.766 -2.1352  0.2805  1.0591
 5944TIP3   OH239322   1.279   2.662  13.093 -0.0496  0.1415  0.2971
 5944TIP3    H139323   1.189   2.691  13.110 -0.4917 -1.6328  1.2601
 5944TIP3    H239324   1.268   2.579  13.045  1.0791  0.0634  0.1653
 5945TIP3   OH239325   6.236   5.284   2.414  0.2436  0.1791  0.2029
 5945TIP3    H139326   6.234   5.257   2.506 -1.2853  0.1030  0.1785
 5945TIP3    H239327   6.146   5.272   2.384  0.3723  1.6232 -0.8830
 5946TIP3   OH239328   2.798   1.905  16.488 -0.2056  0.0801  0.6941
 5946TIP3    H139329   2.818   1.987  16.443  0.4867 -0.2169  0.4356
 5946TIP3    H239330   2.795   1.840  16.418  0.7049 -0.3590  1.0437
 5947TIP3   OH239331   5.966   5.227   3.590  0.3464 -0.1974 -0.2935
 5947TIP3    H139332   5.990   5.316   3.565 -2.3892  0.9982  0.9190
 5947TIP3    H239333   5.995   5.218   3.680 -2.0723  0.6943  0.6492
 5948TIP3   OH239334   1.307   1.758   3.060  0.3604  0.3877 -0.3952
 5948TIP3    H139335   1.257   1.731   2.984 -0.5197  0.4604  0.1414
 5948TIP3    H239336   1.398   1.756   3.031  0.1320 -0.7467 -1.0873
 5949TIP3   OH239337   0.874   1.377   4.876  0.0784 -0.2425  0.1134
 5949TIP3    H139338   0.820   1.394   4.953  0.1061 -4.2659  1.2539
 5949TIP3    H239339   0.963   1.402   4.902 -0.2441  0.5198  0.5113
 5950TIP3   OH239340   1.856   6.093  15.521  0.0424 -0.3556  0.6559
 5950TIP3    H139341   1.924   6.026  15.526 -1.7115 -2.2059  1.2659
 5950TIP3    H239342   1.775   6.043  15.504 -1.4048  1.5800  1.5308
 5951TIP3   OH239343   4.224   2.239  13.293  0.3480  0.2300 -0.7223
 5951TIP3    H139344   4.230   2.331  13.265 -0.1567  0.0452 -1.4525
 5951TIP3    H239345   4.135   2.213  13.272  0.3306 -0.2898 -0.0437
 5952TIP3   OH239346   2.004   4.391   2.871  0.2993  0.4153  0.1488
 5952TIP3    H139347   1.999   4.451   2.945  0.5697 -0.2503  0.7249
 5952TIP3    H239348   1.984   4.305   2.910  2.8373 -0.3424 -0.0397
 5953TIP3   OH239349   4.264   2.400  10.642 -0.8924 -0.3179  0.6162
 5953TIP3    H139350   4.225   2.476  10.598  0.1362  0.0976  0.3952
 5953TIP3    H239351   4.222   2.325  10.601 -0.7041  0.0959 -0.3589
 5954TIP3   OH239352   1.063   3.572  15.288 -0.4443  0.0561 -0.1225
 5954TIP3    H139353   0.980   3.618  15.295 -0.7215 -0.5070  0.4067
 5954TIP3    H239354   1.109   3.615  15.216 -0.4561  1.5261  0.7114
 5955TIP3   OH239355   6.107   2.000  14.304  0.6962 -0.4776  0.3136
 5955TIP3    H139356   6.082   2.056  14.377  3.0109  0.4527  0.4765
 5955TIP3    H239357   6.133   2.060  14.235 -0.7069 -1.3566 -1.0657
 5956TIP3   OH239358   2.001   0.181  12.875  0.4053  0.2381 -0.1635
 5956TIP3    H139359   2.005   0.142  12.963  2.0088 -1.6813 -0.9964
 5956TIP3    H239360   1.965   0.268  12.889  2.1383  0.6561  2.6517
 5957TIP3   OH239361   3.802   1.047   0.325  0.0532 -0.6108 -0.5726
 5957TIP3    H139362   3.733   1.086   0.379  3.2873  1.5597  2.3558
 5957TIP3    H239363   3.798   1.096   0.243 -0.6745  0.8436  0.2814
 5958TIP3   OH239364   4.986   2.863   5.164  0.2399  0.2519 -0.1666
 5958TIP3    H139365   4.898   2.831   5.183  0.4437 -0.5665 -0.5548
 5958TIP3    H239366   4.972   2.939   5.108 -0.1864 -0.7628 -1.4725
 5959TIP3   OH239367   6.112   6.148   2.084  0.0133 -0.2292  0.4188
 5959TIP3    H139368   6.140   6.238   2.066  0.9327 -1.0586 -2.9612
 5959TIP3    H239369   6.021   6.157   2.113  0.5716  1.8478  1.7118
 5960TIP3   OH239370   5.617   1.862  14.816  0.2113 -0.4660  0.8571
 5960TIP3    H139371   5.706   1.886  14.840  0.9338 -1.9011 -0.3081
 5960TIP3    H239372   5.611   1.881  14.722 -0.8462 -0.0372  0.9913
 5961TIP3   OH239373   6.391   2.050  13.911  0.0753  0.1363 -0.1896
 5961TIP3    H139374   6.436   2.038  13.827 -1.8120 -2.4884 -0.9715
 5961TIP3    H239375   6.385   2.145  13.922  0.3780  0.5837 -3.0733
 5962TIP3   OH239376   6.528   4.531  14.115 -0.5959  0.1079 -0.4580
 5962TIP3    H139377   6.518   4.552  14.022  2.4231 -0.9149 -1.1109
 5962TIP3    H239378   6.609   4.574  14.141 -0.8009 -0.5613  1.4205
 5963TIP3   OH239379   6.690   3.239   4.143 -0.0504 -0.2413  0.2105
 5963TIP3    H139380   6.746   3.308   4.106 -0.9191  0.2691 -0.1893
 5963TIP3    H239381   6.720   3.231   4.234  1.5402 -0.9131 -0.3444
 5964TIP3   OH239382   2.653   5.861  16.698  0.0983 -0.4844  0.5239
 5964TIP3    H139383   2.618   5.871  16.786 -0.1880  1.5837  0.2099
 5964TIP3    H239384   2.740   5.823  16.711  1.7269  3.3247  2.0897
 5965TIP3   OH239385   1.137   0.965  16.315 -0.1336  0.2181  0.2473
 5965TIP3    H139386   1.073   0.901  16.348  1.8179 -1.0340  1.8414
 5965TIP3    H239387   1.123   1.043  16.370  0.8747 -0.7040  1.8967
 5966TIP3   OH239388   2.216   4.701   4.309 -0.2443 -0.6668 -0.1116
 5966TIP3    H139389   2.296   4.712   4.360 -0.0429  1.1730 -0.7423
 5966TIP3    H239390   2.145   4.721   4.371 -0.2693 -2.5360  0.5122
 5967TIP3   OH239391   3.308   3.398   4.383 -0.4012  0.2743  0.8371
 5967TIP3    H139392   3.264   3.380   4.300 -0.4109  2.6765  0.2526
 5967TIP3    H239393   3.242   3.380   4.449 -0.0276 -2.8642  0.4934
 5968TIP3   OH239394   2.113   0.286  14.406  0.5014  0.3750 -0.6675
 5968TIP3    H139395   2.064   0.238  14.474  0.1180  1.0248 -0.4761
 5968TIP3    H239396   2.196   0.239  14.399  1.2132  1.1995  1.3982
 5969TIP3   OH239397   0.037   3.987  14.998 -0.1285 -0.0053 -0.4494
 5969TIP3    H139398   0.034   3.920  14.929  2.0260 -0.6816  0.0617
 5969TIP3    H239399   0.046   4.070  14.951  0.0162 -0.3357 -1.0074
 5970TIP3   OH239400   4.368   1.678  14.673  0.2180 -0.3328  0.2542
 5970TIP3    H139401   4.272   1.681  14.683  0.3072  0.4231  0.9783
 5970TIP3    H239402   4.401   1.692  14.761  1.0419  3.1244 -0.4709
 5971TIP3   OH239403   1.527   3.601  15.705  0.2258 -0.4968 -0.8133
 5971TIP3    H139404   1.519   3.552  15.623 -2.3024  0.6426 -1.3283
 5971TIP3    H239405   1.561   3.686  15.678 -0.1361 -0.2881 -0.6153
 5972TIP3   OH239406   0.116   3.294   2.644  0.4817 -0.1502 -0.3116
 5972TIP3    H139407   0.159   3.327   2.722  1.0900 -0.3242 -0.5724
 5972TIP3    H239408   0.109   3.200   2.658  0.4721 -0.1648 -0.4119
 5973TIP3   OH239409   4.613   4.589   0.297 -0.1507  0.1886 -0.0505
 5973TIP3    H139410   4.540   4.577   0.358 -1.7412 -1.2987 -2.1169
 5973TIP3    H239411   4.604   4.517   0.234  2.0920  0.9792 -1.3750
 5974TIP3   OH239412   4.058   5.166  11.320 -0.0287 -0.1917  0.0128
 5974TIP3    H139413   4.128   5.229  11.340 -0.6312  0.1966  0.9459
 5974TIP3    H239414   3.996   5.216  11.267 -0.6533  0.0924  1.0036
 5975TIP3   OH239415   1.828   5.737   0.051  0.2337  0.0972  0.1033
 5975TIP3    H139416   1.777   5.657   0.036  1.7043 -0.8192 -0.1938
 5975TIP3    H239417   1.762   5.806   0.060 -1.0499 -1.0400 -0.2497
 5976TIP3   OH239418   1.723   1.673   3.958 -0.9010  0.2162  0.6896
 5976TIP3    H139419   1.797   1.614   3.944  0.6937  1.9750  1.3548
 5976TIP3    H239420   1.646   1.615   3.956  0.5264 -1.8096  0.9470
 5977TIP3   OH239421   2.546   3.319   1.998 -0.4111 -0.5251 -0.1751
 5977TIP3    H139422   2.635   3.352   1.987 -1.3003  1.9669 -0.4139
 5977TIP3    H239423   2.510   3.372   2.069 -0.8267 -3.5366  2.0823
 5978TIP3   OH239424   3.345   2.223  15.202 -0.2733  0.1220 -0.6955
 5978TIP3    H139425   3.332   2.224  15.107  0.8481 -0.5000 -0.8857
 5978TIP3    H239426   3.388   2.306  15.222 -1.6611  0.8141 -0.5280
 5979TIP3   OH239427   3.924   2.654   5.693  0.2900  0.4584  0.8112
 5979TIP3    H139428   3.934   2.745   5.664  0.5841  0.4769  0.9603
 5979TIP3    H239429   3.929   2.659   5.788 -1.9520  0.5453  0.9665
 5980TIP3   OH239430   5.807   4.630  13.240 -0.2707  0.2688 -0.0281
 5980TIP3    H139431   5.788   4.660  13.151 -2.2918  4.0661  1.4392
 5980TIP3    H239432   5.892   4.669  13.261 -1.0787  1.8092  0.5473
 5981TIP3   OH239433   0.121   1.388   4.570 -1.0602 -0.2102 -0.1939
 5981TIP3    H139434   0.170   1.317   4.610  2.0075  1.8058  0.0332
 5981TIP3    H239435   0.101   1.357   4.482  1.5460 -0.8877 -0.6356
 5982TIP3   OH239436   6.404   0.736   3.767 -0.0858  0.5411  0.7249
 5982TIP3    H139437   6.472   0.720   3.702 -0.2462  2.4230  0.0579
 5982TIP3    H239438   6.441   0.702   3.849  1.6568  1.4984  0.3753
 5983TIP3   OH239439   2.515   5.707  15.764 -0.7654 -0.3114 -0.5623
 5983TIP3    H139440   2.555   5.679  15.846 -0.4976  1.8228  0.1001
 5983TIP3    H239441   2.474   5.791  15.785 -0.1007  0.6424 -2.7343
 5984TIP3   OH239442   4.352   3.908  14.487 -0.4604  0.0221 -0.3020
 5984TIP3    H139443   4.302   3.898  14.406 -3.6871  0.8308  1.4280
 5984TIP3    H239444   4.302   3.971  14.539  1.0020 -1.0647  2.6625
 5985TIP3   OH239445   4.067   0.837  15.511  0.4395 -0.3181  0.2562
 5985TIP3    H139446   3.996   0.901  15.509  0.0608 -0.6650  1.5716
 5985TIP3    H239447   4.145   0.886  15.486 -0.3897 -0.1802 -2.4625
 5986TIP3   OH239448   1.488   3.562   1.812  0.5768 -0.3474 -0.1505
 5986TIP3    H139449   1.483   3.657   1.803 -0.5443 -0.2822  0.9398
 5986TIP3    H239450   1.538   3.547   1.892  0.8396 -0.6778 -0.3735
 5987TIP3   OH239451   0.770   2.525   3.127 -0.8254 -0.1598 -0.3960
 5987TIP3    H139452   0.815   2.489   3.203 -0.7067 -1.3155 -0.9928
 5987TIP3    H239453   0.832   2.588   3.090  0.1047 -1.3457 -0.9010
 5988TIP3   OH239454   4.467   3.806   5.976 -0.3448 -0.0197  0.0049
 5988TIP3    H139455   4.417   3.846   5.906  0.4421 -1.9574 -1.7612
 5988TIP3    H239456   4.551   3.782   5.936  0.3999 -0.5682  1.7726
 5989TIP3   OH239457   2.352   6.522  15.738 -0.0764  0.0128  0.5245
 5989TIP3    H139458   2.344   6.562  15.651 -0.1354 -1.3048 -0.0954
 5989TIP3    H239459   2.276   6.555  15.786  0.9967  2.3329  0.7747
 5990TIP3   OH239460   4.252   0.688  16.431  0.1579  0.7033  0.2155
 5990TIP3    H139461   4.268   0.623  16.499  0.7155 -0.9599 -1.4175
 5990TIP3    H239462   4.164   0.721  16.449 -1.1813 -2.3095 -0.2519
 5991TIP3   OH239463   5.856   3.022   1.029  0.3331  0.4092  0.4967
 5991TIP3    H139464   5.904   3.083   0.973 -0.6749  1.3276  0.5929
 5991TIP3    H239465   5.885   3.042   1.118  0.9003 -0.0967  0.4320
 5992TIP3   OH239466   0.098   5.458  12.499  0.2692 -0.2192  0.0585
 5992TIP3    H139467   0.097   5.529  12.563  0.8992  0.0129 -0.1763
 5992TIP3    H239468   0.045   5.389  12.538  1.4726 -0.4796  1.3071
 5993TIP3   OH239469   6.305   1.445   0.808 -0.4650  0.1969 -0.2648
 5993TIP3    H139470   6.246   1.422   0.737  1.7116 -1.1914 -1.7226
 5993TIP3    H239471   6.391   1.413   0.781  0.6134  0.2026  2.7013
 5994TIP3   OH239472   2.069   5.714  16.543 -0.1074  0.3729 -0.4583
 5994TIP3    H139473   2.132   5.667  16.488 -0.3694  0.9399 -1.2612
 5994TIP3    H239474   2.048   5.652  16.613  0.9795 -0.0028 -0.4381
 5995TIP3   OH239475   4.987   3.964   3.807 -0.2347  0.0177  0.1956
 5995TIP3    H139476   4.961   4.055   3.826 -0.8353  0.0210 -0.6267
 5995TIP3    H239477   4.964   3.951   3.715  1.6685 -0.3363 -0.2819
 5996TIP3   OH239478   2.957   3.760   2.723  0.1976  0.0845 -0.0709
 5996TIP3    H139479   3.042   3.801   2.739  0.9200 -1.5275  0.3536
 5996TIP3    H239480   2.942   3.704   2.800 -1.8671  1.2999  0.4974
 5997TIP3   OH239481   2.068   0.302   5.869 -0.3880 -0.0142 -0.0942
 5997TIP3    H139482   2.044   0.225   5.920 -0.3696 -0.1943 -0.3499
 5997TIP3    H239483   1.991   0.359   5.872 -0.3487  0.0226  0.2166
 5998TIP3   OH239484   5.499   0.335   4.068  0.4258 -0.1997  0.2349
 5998TIP3    H139485   5.458   0.336   4.155 -1.1182 -1.3499 -0.4246
 5998TIP3    H239486   5.574   0.276   4.077 -0.3213 -1.1221  0.5620
 5999TIP3   OH239487   0.411   2.952   4.008 -0.6217 -0.0611  0.0117
 5999TIP3    H139488   0.403   2.870   4.056 -1.9045  0.1967  0.2865
 5999TIP3    H239489   0.466   3.008   4.064  0.1664 -0.6822 -0.1313
 6000TIP3   OH239490   2.194   3.203   4.301 -0.2619  0.0490 -0.4004
 6000TIP3    H139491   2.139   3.214   4.379 -0.0673  0.3096 -0.2999
 6000TIP3    H239492   2.274   3.253   4.320  0.3591 -0.9802 -0.2011
 6001TIP3   OH239493   4.958   6.364  16.084  0.3903  0.2833  0.5350
 6001TIP3    H139494   4.889   6.302  16.110  1.5208 -0.9321  0.7531
 6001TIP3    H239495   4.932   6.394  15.997 -1.3060  1.2139  1.3190
 6002TIP3   OH239496   0.660   2.027  12.404  0.2034 -0.3927 -0.4034
 6002TIP3    H139497   0.589   2.090  12.394  2.1027  1.6483 -2.2325
 6002TIP3    H239498   0.634   1.953  12.350 -1.4512 -0.6485  0.6724
 6003TIP3   OH239499   1.494   6.732  15.688  0.4359 -0.3842 -0.4601
 6003TIP3    H139500   1.570   6.676  15.704  0.1458 -1.0005 -1.1769
 6003TIP3    H239501   1.531   6.818  15.671  0.9584 -0.6113 -0.4931
 6004TIP3   OH239502   1.201   3.095   1.907  0.5774  0.2842  0.3619
 6004TIP3    H139503   1.276   3.131   1.859 -0.0718  2.1672  0.6910
 6004TIP3    H239504   1.171   3.022   1.853  3.1568 -1.1184  0.6444
 6005TIP3   OH239505   3.747   3.449  13.990  0.3575  0.9443 -0.0966
 6005TIP3    H139506   3.749   3.509  13.916  0.1136 -0.5166 -1.3462
 6005TIP3    H239507   3.834   3.456  14.029  1.5832 -0.4023 -2.3709
 6006TIP3   OH239508   2.026   6.772   0.193 -0.7257 -0.0737 -0.5029
 6006TIP3    H139509   2.018   6.677   0.200  1.8889 -0.2374  1.7615
 6006TIP3    H239510   1.945   6.806   0.229 -1.7415 -1.4128 -1.4402
 6007TIP3   OH239511   6.339   6.108  12.645 -0.4294 -0.0525 -0.8306
 6007TIP3    H139512   6.366   6.185  12.596  0.0551  0.4035  0.1128
 6007TIP3    H239513   6.421   6.064  12.668 -0.4980  0.6683  0.9918
 6008TIP3   OH239514   4.918   5.392   2.450 -0.4038  0.3107  0.3504
 6008TIP3    H139515   4.988   5.370   2.388  0.4144 -0.6423  1.5644
 6008TIP3    H239516   4.941   5.480   2.481 -1.3810  1.2354 -1.4110
 6009TIP3   OH239517   6.425   5.811  16.286  0.3730  0.2475  0.5175
 6009TIP3    H139518   6.443   5.820  16.380  0.3008 -1.6367  0.7453
 6009TIP3    H239519   6.331   5.793  16.281  0.5655 -0.7442  0.1941
 6010TIP3   OH239520   1.411   4.826  16.963  0.2065  0.3288 -0.3894
 6010TIP3    H139521   1.353   4.750  16.956  0.0237  0.5443 -1.3030
 6010TIP3    H239522   1.489   4.793  17.009 -0.4889 -0.0384  0.5610
 6011TIP3   OH239523   2.856   2.338   1.908 -0.1024  0.2140 -0.1112
 6011TIP3    H139524   2.885   2.403   1.844  0.7926  0.2337  0.2972
 6011TIP3    H239525   2.838   2.389   1.987 -0.8746  0.1480 -0.2374
 6012TIP3   OH239526   1.907   1.070   0.486  0.4805  0.0939  0.2977
 6012TIP3    H139527   1.895   1.131   0.559  0.3380  3.1433 -2.0690
 6012TIP3    H239528   1.820   1.033   0.472  0.1338  0.7378  0.6590
 6013TIP3   OH239529   2.424   3.833  11.496 -0.0223 -0.0684  0.0827
 6013TIP3    H139530   2.423   3.739  11.510  0.7585 -0.2766 -1.0894
 6013TIP3    H239531   2.514   3.853  11.472 -0.4687  0.7538 -1.0125
 6014TIP3   OH239532   2.210   5.435  17.185 -0.3464 -0.2659  0.5878
 6014TIP3    H139533   2.118   5.457  17.172 -0.3668 -0.7678 -0.2166
 6014TIP3    H239534   2.250   5.516  17.215 -0.8512  0.2472 -0.0765
 6015TIP3   OH239535   6.378   6.493  15.879  0.0703  0.0708  0.0677
 6015TIP3    H139536   6.358   6.521  15.789  1.8712  2.4879  0.3215
 6015TIP3    H239537   6.373   6.398  15.876 -1.7288  0.1495 -2.1226
 6016TIP3   OH239538   5.630   3.438  14.198 -0.0978  0.2807  0.4969
 6016TIP3    H139539   5.556   3.406  14.250 -0.2055  2.3829  1.7535
 6016TIP3    H239540   5.685   3.361  14.185  0.0935 -0.3461  4.0443
 6017TIP3   OH239541   3.538   2.887  12.596  0.1486 -0.4525 -0.2938
 6017TIP3    H139542   3.512   2.847  12.513 -2.4134 -2.8462  1.4740
 6017TIP3    H239543   3.629   2.915  12.582 -0.8638  1.5158 -4.5951
 6018TIP3   OH239544   4.449   0.517   1.240 -0.1130  0.1613 -0.8995
 6018TIP3    H139545   4.538   0.548   1.256 -0.7183  1.7157 -0.3186
 6018TIP3    H239546   4.394   0.572   1.296 -1.3267 -1.7335 -0.1675
 6019TIP3   OH239547   0.368   5.395   4.250 -0.9762  0.7953  0.1197
 6019TIP3    H139548   0.429   5.443   4.194  0.1684  0.4040  0.9945
 6019TIP3    H239549   0.374   5.304   4.219  0.2230  0.4394  1.3168
 6020TIP3   OH239550   6.584   2.388  16.894 -0.0643 -0.3105  0.6387
 6020TIP3    H139551   6.545   2.302  16.911 -1.4134 -0.0262 -0.7759
 6020TIP3    H239552   6.665   2.370  16.847  0.0529 -0.8226  1.0308
 6021TIP3   OH239553   5.631   2.779   5.726 -0.5595  0.0228  0.2761
 6021TIP3    H139554   5.662   2.694   5.755  2.3640  0.9801  0.3701
 6021TIP3    H239555   5.592   2.819   5.804  0.0915 -0.4209  0.8445
 6022TIP3   OH239556   5.265   3.881  14.923 -0.3470 -0.2453  0.1021
 6022TIP3    H139557   5.229   3.798  14.892  1.3624 -0.7575 -0.6089
 6022TIP3    H239558   5.244   3.944  14.854  0.0092 -0.5056 -0.2431
 6023TIP3   OH239559   1.708   6.386  16.265 -0.4568 -0.0440  0.2673
 6023TIP3    H139560   1.792   6.342  16.253 -0.9999 -1.1173  0.3170
 6023TIP3    H239561   1.729   6.463  16.319  0.5774  0.0408 -0.2374
 6024TIP3   OH239562   1.677   3.193  15.850  0.4554 -0.0101 -0.6815
 6024TIP3    H139563   1.583   3.205  15.865  0.5536 -0.2244  0.1021
 6024TIP3    H239564   1.697   3.252  15.777 -0.3851 -0.3269 -1.1825
 6025TIP3   OH239565   4.083   2.902  16.247 -0.2728 -0.1643 -0.2504
 6025TIP3    H139566   4.162   2.886  16.299 -0.2569  1.0085  0.1174
 6025TIP3    H239567   4.068   2.996  16.254 -2.9124 -0.5871  1.4749
 6026TIP3   OH239568   0.299   4.828  13.472  0.5012  0.3458  0.1600
 6026TIP3    H139569   0.251   4.911  13.480  1.7511  1.0268  0.7112
 6026TIP3    H239570   0.352   4.822  13.551  3.4934  1.0256 -1.6395
 6027TIP3   OH239571   0.702   1.478   5.065  0.3371  0.8724 -0.0963
 6027TIP3    H139572   0.685   1.559   5.112 -1.7846  0.6464 -0.3970
 6027TIP3    H239573   0.653   1.411   5.112  0.3304  0.1558 -1.0859
 6028TIP3   OH239574   5.531   6.027  17.052 -0.0767 -0.0054 -0.1708
 6028TIP3    H139575   5.543   5.958  16.987 -0.7447 -0.3438  0.0495
 6028TIP3    H239576   5.473   5.988  17.118  2.4706 -0.5080  1.9119
 6029TIP3   OH239577   4.168   5.039  15.514 -0.3315 -0.4872  0.0339
 6029TIP3    H139578   4.156   5.128  15.482  1.8800 -0.2260 -0.2376
 6029TIP3    H239579   4.086   4.995  15.493 -1.8147  1.6687  0.9269
 6030TIP3   OH239580   1.174   1.632  14.650  0.0840 -0.3017 -0.7160
 6030TIP3    H139581   1.156   1.668  14.563 -0.4030  2.8371  0.5825
 6030TIP3    H239582   1.097   1.579  14.670  0.9406 -2.5182 -2.7885
 6031TIP3   OH239583   2.431   4.766   3.517  0.0874  0.1854  0.1415
 6031TIP3    H139584   2.466   4.743   3.431 -0.8310  0.5976 -0.3500
 6031TIP3    H239585   2.362   4.702   3.533  1.5752 -1.1900  1.5097
 6032TIP3   OH239586   3.789   4.638  12.165  0.4071  0.5418 -0.0803
 6032TIP3    H139587   3.819   4.728  12.179  0.3854  0.6564 -0.7185
 6032TIP3    H239588   3.698   4.648  12.136  0.8879  0.4344 -1.7559
 6033TIP3   OH239589   5.766   3.959  15.100 -0.1851  0.0662 -0.1484
 6033TIP3    H139590   5.765   4.028  15.034 -1.7238 -0.6317 -0.9056
 6033TIP3    H239591   5.689   3.906  15.081  0.4457 -1.3338  0.9803
 6034TIP3   OH239592   2.807   3.617   4.714 -0.0328 -0.2515 -0.5688
 6034TIP3    H139593   2.821   3.526   4.739  0.5180  0.1294  0.5528
 6034TIP3    H239594   2.849   3.668   4.783 -1.2582  0.8634 -0.6001
 6035TIP3   OH239595   2.773   4.766   0.471 -0.1885  0.2841  0.2916
 6035TIP3    H139596   2.787   4.840   0.412 -1.1666  0.5403  0.3617
 6035TIP3    H239597   2.754   4.806   0.556 -1.2770 -0.0158  0.2051
 6036TIP3   OH239598   6.269   1.204   4.012  0.2693 -0.2684  0.0938
 6036TIP3    H139599   6.364   1.211   4.006  0.0202  2.7317 -2.5902
 6036TIP3    H239600   6.241   1.179   3.924 -1.5429  1.6138  0.0578
 6037TIP3   OH239601   6.057   5.743   0.595 -0.4851  0.4112  0.1974
 6037TIP3    H139602   6.030   5.651   0.600  0.4135  0.2050  2.4941
 6037TIP3    H239603   6.139   5.741   0.546 -1.4885  0.3045 -1.5710
 6038TIP3   OH239604   1.052   1.442  13.701  0.5484 -0.1635 -0.1019
 6038TIP3    H139605   1.004   1.481  13.628 -1.5796  0.5660  1.5780
 6038TIP3    H239606   1.013   1.355  13.712  2.3896 -1.1973 -1.1577
 6039TIP3   OH239607   4.221   3.840  15.888  0.0317 -0.2514 -0.3240
 6039TIP3    H139608   4.149   3.797  15.933  1.7523 -2.0165  0.8613
 6039TIP3    H239609   4.208   3.933  15.905 -0.4978 -0.7268  2.1466
 6040TIP3   OH239610   5.996   5.879  16.554  0.2931 -0.1035 -0.2518
 6040TIP3    H139611   5.965   5.895  16.643 -1.4736 -0.0629 -0.8412
 6040TIP3    H239612   5.920   5.844  16.508  1.2787 -0.4725 -1.6585
 6041TIP3   OH239613   3.624   1.134  12.950 -0.3080 -0.3714  0.4038
 6041TIP3    H139614   3.574   1.195  12.897  1.5184  1.0186  0.1703
 6041TIP3    H239615   3.561   1.100  13.014 -2.0438 -0.4840 -1.2817
 6042TIP3   OH239616   5.158   2.459  16.640  0.2204 -0.2516  0.0843
 6042TIP3    H139617   5.169   2.397  16.712  0.8510  1.5165  1.5856
 6042TIP3    H239618   5.247   2.475  16.608  0.5042  2.2302  1.8559
 6043TIP3   OH239619   0.853   2.340  13.597  0.0393 -0.1441  1.0008
 6043TIP3    H139620   0.848   2.320  13.504  2.5849 -1.6516  1.1107
 6043TIP3    H239621   0.812   2.427  13.605 -0.9325 -0.3067 -1.3544
 6044TIP3   OH239622   0.096   3.811   1.861  0.2418 -0.5255  0.0059
 6044TIP3    H139623   0.075   3.849   1.775  1.3977  0.7282  0.2361
 6044TIP3    H239624   0.191   3.818   1.867  0.2811 -1.6547  0.9324
 6045TIP3   OH239625   2.267   1.786  15.797 -0.0035 -0.2105  0.3336
 6045TIP3    H139626   2.228   1.711  15.753 -0.9338  0.0504  0.6764
 6045TIP3    H239627   2.300   1.842  15.726 -2.8313  0.9521 -0.2103
 6046TIP3   OH239628   4.362   3.102   0.592  0.4537 -0.2691  0.0565
 6046TIP3    H139629   4.399   3.132   0.674  0.6644 -0.4257  0.0199
 6046TIP3    H239630   4.345   3.182   0.542 -0.6667 -0.1092  0.6672
 6047TIP3   OH239631   5.060   4.995   5.995  0.7587  0.0777  0.0929
 6047TIP3    H139632   5.030   4.917   6.042 -0.2715  1.0138  1.0387
 6047TIP3    H239633   4.980   5.031   5.956  1.4231 -0.0552 -1.4827
 6048TIP3   OH239634   5.167   1.702   1.247 -0.4844 -0.8774  0.0990
 6048TIP3    H139635   5.182   1.725   1.155 -2.1960 -0.9752 -0.2215
 6048TIP3    H239636   5.142   1.609   1.244  0.4075 -1.1554  0.7842
 6049TIP3   OH239637   0.154   6.603  13.219 -0.1525 -0.2124  0.2918
 6049TIP3    H139638   0.243   6.637  13.218  0.6587 -2.2018 -0.3432
 6049TIP3    H239639   0.102   6.667  13.171  1.0200  0.7375  0.2608
 6050TIP3   OH239640   3.943   4.741   5.398  0.4311 -0.2147  0.3304
 6050TIP3    H139641   3.868   4.686   5.372  0.7086 -1.3714  1.8250
 6050TIP3    H239642   4.018   4.699   5.357  0.3468  0.5694 -0.6380
 6051TIP3   OH239643   2.678   3.542   3.083  0.2629  0.7579  0.5745
 6051TIP3    H139644   2.693   3.637   3.091  2.1673  0.6179 -0.6711
 6051TIP3    H239645   2.736   3.504   3.149  0.9077  0.4073 -0.1830
 6052TIP3   OH239646   6.405   2.517   0.204 -0.2942  0.0321  0.2287
 6052TIP3    H139647   6.320   2.497   0.165  0.5258  1.1534 -2.3159
 6052TIP3    H239648   6.469   2.473   0.148  0.8645 -1.5426  2.5963
 6053TIP3   OH239649   1.916   2.359   6.296  0.2686 -0.6234  0.0340
 6053TIP3    H139650   1.851   2.301   6.337  0.0757 -0.3813  0.0715
 6053TIP3    H239651   1.865   2.421   6.245  0.4651 -0.3915  0.1136
 6054TIP3   OH239652   4.114   6.409   2.877 -0.0177  0.1881  0.0758
 6054TIP3    H139653   4.095   6.503   2.881 -1.2946 -0.0244 -0.5655
 6054TIP3    H239654   4.049   6.368   2.934  1.6283 -0.2050  1.7622
 6055TIP3   OH239655   0.874   3.804   2.954  0.1475  0.4586 -0.1566
 6055TIP3    H139656   0.892   3.730   3.013  0.8108  1.7932  1.3959
 6055TIP3    H239657   0.959   3.826   2.916 -0.5223 -1.4827 -3.1112
 6056TIP3   OH239658   5.804   1.953   1.651  0.2026  0.2646  0.1204
 6056TIP3    H139659   5.739   1.996   1.707 -0.2809 -0.7764  0.3883
 6056TIP3    H239660   5.836   2.022   1.593 -2.0406  0.5820 -0.8510
 6057TIP3   OH239661   6.266   2.110  13.556 -0.2920  0.6560 -0.7007
 6057TIP3    H139662   6.216   2.077  13.630  0.6943  0.8818  0.0961
 6057TIP3    H239663   6.236   2.058  13.481  0.4686 -1.3448  0.3115
 6058TIP3   OH239664   5.581   6.349  15.707 -0.5881  1.0157  0.1439
 6058TIP3    H139665   5.507   6.409  15.711 -0.6261  0.9937 -0.1803
 6058TIP3    H239666   5.638   6.375  15.780 -1.5534  0.1794  1.2298
 6059TIP3   OH239667   1.109   4.851   4.001  0.3512  0.2355 -0.2513
 6059TIP3    H139668   1.076   4.901   4.075  2.1781 -0.0489  0.8132
 6059TIP3    H239669   1.204   4.849   4.013  0.8956  1.4699 -3.4510
 6060TIP3   OH239670   0.105   5.025  13.540  0.1010 -0.1654  0.0555
 6060TIP3    H139671   0.048   5.086  13.493 -0.1909  0.3610  1.0698
 6060TIP3    H239672   0.046   4.977  13.598  0.5989 -0.0354  0.6818
 6061TIP3   OH239673   2.744   4.631  16.877 -0.3348  0.4812  0.0188
 6061TIP3    H139674   2.714   4.646  16.788  3.3251 -1.2637 -1.7475
 6061TIP3    H239675   2.669   4.652  16.932 -2.6294  2.0898 -3.3912
 6062TIP3   OH239676   6.234   3.821   4.898 -0.1537 -0.1351  0.3713
 6062TIP3    H139677   6.265   3.885   4.834  1.2360 -0.1783  0.9803
 6062TIP3    H239678   6.193   3.752   4.846  0.6154  0.0151 -0.4507
 6063TIP3   OH239679   1.273   2.380   4.355  0.5267 -0.1167  0.2051
 6063TIP3    H139680   1.358   2.337   4.361  0.3764 -0.9675 -2.5152
 6063TIP3    H239681   1.209   2.309   4.364  0.0632  0.4529  1.7519
 6064TIP3   OH239682   1.204   2.644   2.900 -0.5406 -0.4353 -0.5703
 6064TIP3    H139683   1.151   2.567   2.919 -0.5912 -0.5183 -1.0609
 6064TIP3    H239684   1.163   2.684   2.824 -1.2513  0.7613  0.3901
 6065TIP3   OH239685   2.955   2.409  14.267  0.3087  0.2227  0.2482
 6065TIP3    H139686   3.020   2.341  14.254 -0.7454 -0.5903 -0.9746
 6065TIP3    H239687   2.931   2.438  14.179  0.1617  1.6365  0.7160
 6066TIP3   OH239688   3.523   6.305   0.380 -0.8750 -0.4289 -0.3349
 6066TIP3    H139689   3.565   6.338   0.300  1.6882  2.5126  1.9180
 6066TIP3    H239690   3.430   6.320   0.367 -0.5432 -0.1857 -2.8156
 6067TIP3   OH239691   2.936   4.587  16.139  0.2831 -0.4812  0.3974
 6067TIP3    H139692   2.935   4.678  16.167 -1.4152  0.0654 -1.2740
 6067TIP3    H239693   2.929   4.537  16.221 -1.0251  0.9509  1.2177
 6068TIP3   OH239694   3.265   0.655  14.297 -0.3267  0.4649  0.2672
 6068TIP3    H139695   3.217   0.648  14.379 -0.2055 -2.3572  0.1644
 6068TIP3    H239696   3.350   0.616  14.316 -0.0712  0.3663 -1.0348
 6069TIP3   OH239697   4.656   1.635  14.550 -0.1076 -0.3775 -0.2753
 6069TIP3    H139698   4.566   1.603  14.561 -0.4358  0.5676 -0.0924
 6069TIP3    H239699   4.667   1.643  14.456 -0.5743  0.4449 -0.2715
 6070TIP3   OH239700   3.419   2.982  10.838 -0.4441 -0.0330 -0.0373
 6070TIP3    H139701   3.419   3.042  10.764 -0.0778 -0.1985 -0.1737
 6070TIP3    H239702   3.420   2.895  10.799 -0.1691 -0.1202  0.1598
 6071TIP3   OH239703   5.850   4.069  12.349 -0.1038 -0.2021  0.2172
 6071TIP3    H139704   5.826   4.125  12.275  0.5205  0.6592  0.6475
 6071TIP3    H239705   5.774   4.013  12.362 -0.0074 -0.7834 -1.4452
 6072TIP3   OH239706   1.257   5.584   1.869  0.1925  0.2766  0.6134
 6072TIP3    H139707   1.209   5.555   1.791  1.3014 -0.0976  0.0568
 6072TIP3    H239708   1.243   5.679   1.872 -0.9191  0.1271  0.7074
 6073TIP3   OH239709   1.288   6.518   3.357 -0.3663 -0.3702  0.4372
 6073TIP3    H139710   1.330   6.508   3.442  0.3848 -1.3351 -0.0338
 6073TIP3    H239711   1.291   6.431   3.318 -0.1481  0.1803 -0.8328
 6074TIP3   OH239712   3.601   1.755  16.840 -0.0175 -0.1822  0.0977
 6074TIP3    H139713   3.673   1.707  16.800 -0.0892 -0.5422  0.3944
 6074TIP3    H239714   3.603   1.841  16.798  0.5124 -0.2299  0.0159
 6075TIP3   OH239715   1.823   2.069   1.395  0.3577 -0.2617  0.1358
 6075TIP3    H139716   1.857   1.983   1.370 -1.9751 -0.8526 -1.2678
 6075TIP3    H239717   1.873   2.131   1.343  0.0086 -1.0260 -1.1553
 6076TIP3   OH239718   1.612   3.700  14.419 -0.0062 -0.0188  0.4509
 6076TIP3    H139719   1.695   3.748  14.416  1.4405 -2.4613 -0.5546
 6076TIP3    H239720   1.630   3.624  14.473 -1.0616 -1.5245 -1.2181
 6077TIP3   OH239721   5.183   2.009   0.049 -0.1625  0.1413 -0.0249
 6077TIP3    H139722   5.161   2.025  -0.043 -1.3141 -1.6963 -0.1104
 6077TIP3    H239723   5.270   2.047   0.059  0.8489 -1.2788 -2.4180
 6078TIP3   OH239724   5.794   6.217  16.539  0.3949  0.4178 -0.1061
 6078TIP3    H139725   5.733   6.144  16.550 -1.0405  1.2706 -1.7931
 6078TIP3    H239726   5.745   6.280  16.486  2.4863  1.5044 -0.8249
 6079TIP3   OH239727   1.466   6.502   4.540 -0.1866 -0.8317 -0.4305
 6079TIP3    H139728   1.483   6.504   4.634  0.6787 -0.1243 -0.5876
 6079TIP3    H239729   1.400   6.570   4.526  1.7929  1.1510 -0.6905
 6080TIP3   OH239730   3.279   3.284  12.882 -0.3027  0.6524 -0.0749
 6080TIP3    H139731   3.349   3.276  12.818  0.0311  0.4891  0.3065
 6080TIP3    H239732   3.265   3.194  12.914 -0.3689  0.7538  0.1833
 6081TIP3   OH239733   0.212   2.213  13.652 -0.1175  0.1364  0.1607
 6081TIP3    H139734   0.231   2.294  13.700  0.0823 -0.7457  1.6216
 6081TIP3    H239735   0.291   2.160  13.661 -0.4765 -0.4828 -0.2459
 6082TIP3   OH239736   3.560   0.785   2.936 -0.3254  0.2699  0.4182
 6082TIP3    H139737   3.582   0.875   2.915  1.7334  0.0878  1.5095
 6082TIP3    H239738   3.526   0.789   3.026 -3.1629  0.2840 -0.5683
 6083TIP3   OH239739   1.412   4.890  13.327  0.8603  0.3283 -0.4883
 6083TIP3    H139740   1.427   4.984  13.325  1.1141  0.3088  0.3425
 6083TIP3    H239741   1.406   4.868  13.420  0.7703 -0.4696 -0.6739
 6084TIP3   OH239742   1.046   4.463  17.121  1.0237 -0.7314 -0.4762
 6084TIP3    H139743   1.099   4.449  17.200 -0.8426 -2.9396  0.4914
 6084TIP3    H239744   0.979   4.395  17.124 -2.5326  2.3676 -1.0945
 6085TIP3   OH239745   1.157   1.525   3.952  0.1567 -0.2349 -0.2249
 6085TIP3    H139746   1.080   1.552   4.004  1.1440 -0.8844  1.6938
 6085TIP3    H239747   1.185   1.605   3.907 -1.9016 -0.0930 -1.3832
 6086TIP3   OH239748   1.208   0.384   6.127 -0.1548  0.2871 -0.4964
 6086TIP3    H139749   1.302   0.367   6.138 -0.1849  0.9052  1.0449
 6086TIP3    H239750   1.191   0.457   6.186 -1.3863  0.9837 -1.6598
 6087TIP3   OH239751   2.564   4.397  14.696  0.3165  0.0830  0.1006
 6087TIP3    H139752   2.504   4.464  14.664 -0.2928 -0.7999 -0.6928
 6087TIP3    H239753   2.511   4.317  14.698  1.4636 -0.7311 -0.6680
 6088TIP3   OH239754   2.994   1.203   5.815  0.1360 -0.0602 -0.4178
 6088TIP3    H139755   3.039   1.147   5.878 -2.4728 -2.4110 -0.4338
 6088TIP3    H239756   3.034   1.181   5.730  0.4255 -0.4800 -0.1758
 6089TIP3   OH239757   1.104   4.821   4.567 -0.1888  0.1667  0.6370
 6089TIP3    H139758   1.072   4.736   4.598 -0.2723  0.4023  1.2087
 6089TIP3    H239759   1.125   4.869   4.647 -0.6627  0.8904  0.3337
 6090TIP3   OH239760   4.919   1.689   0.318 -0.5864  0.1359 -0.2836
 6090TIP3    H139761   5.011   1.664   0.326 -1.2123 -2.6590 -0.7756
 6090TIP3    H239762   4.921   1.783   0.303  2.2718 -0.0291 -1.5568
 6091TIP3   OH239763   2.784   3.767  12.741 -0.0671  0.0408  0.0898
 6091TIP3    H139764   2.707   3.780  12.796 -0.1775  0.6224 -0.1898
 6091TIP3    H239765   2.858   3.794  12.795 -0.3492  2.6141 -0.7041
 6092TIP3   OH239766   1.092   3.641   5.368  0.6508 -0.2705  0.6416
 6092TIP3    H139767   1.139   3.685   5.439  1.4594  1.3852 -0.8742
 6092TIP3    H239768   1.003   3.675   5.374  0.5581 -0.5795  1.1822
 6093TIP3   OH239769   5.821   5.702   2.294  0.1564 -0.3832  0.0846
 6093TIP3    H139770   5.872   5.717   2.374  2.1141 -0.5602 -1.0553
 6093TIP3    H239771   5.794   5.789   2.266  0.6875 -0.1827  0.1820
 6094TIP3   OH239772   4.410   5.538   5.134 -0.1754 -0.2552  0.1218
 6094TIP3    H139773   4.344   5.606   5.122 -0.4602 -0.7884 -1.6388
 6094TIP3    H239774   4.414   5.525   5.228 -0.2337  2.0681  0.5053
 6095TIP3   OH239775   2.921   3.017  15.650  0.5266 -0.1183 -0.5796
 6095TIP3    H139776   3.011   3.051  15.658  0.2852  0.2842  0.5449
 6095TIP3    H239777   2.869   3.073  15.707 -0.2973 -0.9096 -0.5371
 6096TIP3   OH239778   0.137   2.781  11.434  0.5624 -0.1962 -0.1858
 6096TIP3    H139779   0.155   2.743  11.520  1.2572 -0.0308 -0.2462
 6096TIP3    H239780   0.222   2.816  11.406  0.2175  0.2431 -0.6941
 6097TIP3   OH239781   6.793   1.463   0.630  0.1947 -0.3543  0.5146
 6097TIP3    H139782   6.775   1.554   0.606  2.1783  0.5504  2.1511
 6097TIP3    H239783   6.833   1.425   0.552 -0.0485  0.3536  0.0315
 6098TIP3   OH239784   5.791   6.248   0.573  0.6138  0.2452  0.5184
 6098TIP3    H139785   5.839   6.309   0.518  0.0617  0.9878  0.8462
 6098TIP3    H239786   5.842   6.167   0.570  0.8262  0.4135 -0.7090
 6099TIP3   OH239787   1.973   2.736  13.357 -0.0492  0.2492  0.3284
 6099TIP3    H139788   2.033   2.667  13.387  1.6299  1.2318 -0.6139
 6099TIP3    H239789   1.965   2.794  13.433  3.8534  2.5023 -0.7241
 6100TIP3   OH239790   5.861   2.250  12.275 -0.0749 -0.0304 -0.0460
 6100TIP3    H139791   5.808   2.200  12.212 -1.2002  1.3496 -0.2626
 6100TIP3    H239792   5.878   2.188  12.346  2.4563 -2.1001 -2.2337
 6101TIP3   OH239793   0.077   5.129  11.947  0.1353  0.3813  0.4694
 6101TIP3    H139794   0.121   5.190  11.887 -2.0020  0.3470 -1.2502
 6101TIP3    H239795   0.126   5.047  11.936  0.7158  0.7807 -0.0593
 6102TIP3   OH239796   1.109   5.392  14.031 -0.4134 -0.2425 -0.2657
 6102TIP3    H139797   1.150   5.464  13.984 -1.5848  1.1008  0.6619
 6102TIP3    H239798   1.062   5.342  13.964 -1.6602  1.3451 -0.6154
 6103TIP3   OH239799   5.267   1.046   3.039 -0.2917  0.1444 -0.0485
 6103TIP3    H139800   5.339   0.996   3.078 -2.1141 -1.5413  1.3826
 6103TIP3    H239801   5.265   1.017   2.948 -0.7083 -1.7540  0.5229
 6104TIP3   OH239802   4.894   2.358  12.974  0.2043 -0.1765  0.6459
 6104TIP3    H139803   4.826   2.385  13.036 -1.3371 -0.6860 -0.7697
 6104TIP3    H239804   4.895   2.263  12.979 -1.7550 -0.4196 -1.8767
 6105TIP3   OH239805   4.742   3.388   4.869 -0.6190 -0.6578  0.4794
 6105TIP3    H139806   4.764   3.416   4.780 -1.7937 -0.4848  0.2289
 6105TIP3    H239807   4.686   3.312   4.857 -0.1045 -1.1371  1.0987
 6106TIP3   OH239808   4.169   1.545   3.203 -0.3384 -0.4686 -0.1018
 6106TIP3    H139809   4.252   1.533   3.250  0.4537  0.1360 -1.2891
 6106TIP3    H239810   4.102   1.517   3.265  0.8522 -2.7979  0.2521
 6107TIP3   OH239811   1.523   3.054  13.179 -0.6596 -0.2318 -0.2305
 6107TIP3    H139812   1.506   3.145  13.155 -1.6876 -0.2302  0.4768
 6107TIP3    H239813   1.458   3.034  13.246 -0.1092 -1.3330 -0.0100
 6108TIP3   OH239814   0.534   6.432  14.850  0.1782 -0.3725  0.4569
 6108TIP3    H139815   0.628   6.427  14.834  0.0594 -2.0063  0.1409
 6108TIP3    H239816   0.508   6.342  14.868 -1.9410 -0.5971 -2.8835
 6109TIP3   OH239817   1.884   3.643   1.082 -0.5528 -0.1954 -0.2513
 6109TIP3    H139818   1.968   3.601   1.062  0.5404  2.4394 -1.6333
 6109TIP3    H239819   1.896   3.677   1.171  0.3753  1.2046 -0.8706
 6110TIP3   OH239820   6.803   0.836   0.359  1.0389  0.4902  0.6621
 6110TIP3    H139821   6.791   0.824   0.265  1.1719 -1.0095  0.8019
 6110TIP3    H239822   6.715   0.833   0.395  1.0457  0.2773  0.6606
 6111TIP3   OH239823   3.629   3.216   2.771 -0.6671  0.0984 -0.7614
 6111TIP3    H139824   3.647   3.297   2.820  0.1908 -0.0855 -0.7519
 6111TIP3    H239825   3.542   3.230   2.733 -1.1463  0.4510  0.3937
 6112TIP3   OH239826   1.076   4.768  13.658  0.3685 -0.5541 -0.2107
 6112TIP3    H139827   1.158   4.771  13.610  1.0062  1.3902  0.8864
 6112TIP3    H239828   1.100   4.740  13.746  0.0022  0.7293  0.3199
 6113TIP3   OH239829   6.649   6.299  12.135  0.5102  0.4045 -0.6995
 6113TIP3    H139830   6.572   6.287  12.081  0.6482 -2.1743 -0.4242
 6113TIP3    H239831   6.714   6.337  12.076 -0.6003  1.6289 -1.1931
 6114TIP3   OH239832   6.617   0.646   0.970  0.2665  0.1922 -0.3018
 6114TIP3    H139833   6.554   0.716   0.985 -0.7809 -0.6816 -0.4904
 6114TIP3    H239834   6.563   0.570   0.947  1.3595 -0.7126  0.0354
 6115TIP3   OH239835   0.109   0.392  16.232  0.3096  0.0133 -0.0101
 6115TIP3    H139836   0.119   0.340  16.153 -1.1416  0.1861 -0.3283
 6115TIP3    H239837   0.187   0.447  16.234  0.7569 -0.5657 -0.8766
 6116TIP3   OH239838   0.632   3.624   2.845 -0.0060 -0.3158 -0.0656
 6116TIP3    H139839   0.576   3.549   2.865  0.1454 -1.6644 -3.9732
 6116TIP3    H239840   0.719   3.587   2.834  0.1871  0.4940 -1.4694
 6117TIP3   OH239841   3.790   4.956   0.166 -0.1867  0.0818 -0.2056
 6117TIP3    H139842   3.813   4.942   0.074  2.4378  0.1594  0.3378
 6117TIP3    H239843   3.804   5.050   0.179 -3.5580  0.7210 -0.3788
 6118TIP3   OH239844   3.472   1.241  13.271 -0.0863 -0.7279  0.2670
 6118TIP3    H139845   3.564   1.219  13.286  0.4508  1.3406  0.3948
 6118TIP3    H239846   3.423   1.167  13.305  1.5635 -2.8739 -1.7070
 6119TIP3   OH239847   3.004   1.129  11.256 -0.9364 -0.4740 -0.5259
 6119TIP3    H139848   3.089   1.140  11.298 -0.4205 -3.9462 -0.3340
 6119TIP3    H239849   2.941   1.133  11.327 -0.7955  0.4801 -0.4423
 6120TIP3   OH239850   0.060   1.753  17.261  1.0178 -0.4565 -0.3541
 6120TIP3    H139851   0.014   1.810  17.200 -1.7503 -3.6365 -1.6081
 6120TIP3    H239852   0.035   1.784  17.348 -1.7240 -0.5936 -1.0108
 6121TIP3   OH239853   0.774   4.452   2.401 -0.1769 -0.3322 -0.4767
 6121TIP3    H139854   0.856   4.438   2.355  1.2230 -0.5107  1.9256
 6121TIP3    H239855   0.761   4.547   2.399  0.8706 -0.1527  0.3067
 6122TIP3   OH239856   6.564   4.168  10.303 -0.0548  0.3125 -0.2413
 6122TIP3    H139857   6.544   4.081  10.336 -0.4879  0.7206  0.5846
 6122TIP3    H239858   6.658   4.177  10.316  0.1610 -0.3780 -1.1939
 6123TIP3   OH239859   5.121   2.504   1.096 -0.1889  0.0134 -0.3406
 6123TIP3    H139860   5.084   2.534   1.178  0.3374  1.1637 -0.4985
 6123TIP3    H239861   5.115   2.409   1.100  0.1202  0.0319  1.1687
 6124TIP3   OH239862   3.733   0.065   1.086 -0.3899  0.0632  0.5499
 6124TIP3    H139863   3.676   0.027   1.153 -1.5332 -0.3044 -0.5847
 6124TIP3    H239864   3.682   0.059   1.005  1.2122 -0.1130 -0.4890
 6125TIP3   OH239865   2.260   5.254  11.283 -0.4611  0.5233 -0.8519
 6125TIP3    H139866   2.182   5.203  11.261 -0.1948  0.5942 -1.9760
 6125TIP3    H239867   2.323   5.188  11.314 -0.7424  0.3899 -0.5608
 6126TIP3   OH239868   6.448   5.413   0.458 -0.2140  0.0625  0.2785
 6126TIP3    H139869   6.361   5.429   0.420 -0.4676 -0.6648  0.5262
 6126TIP3    H239870   6.504   5.481   0.420 -0.6515 -0.1176 -0.7306
 6127TIP3   OH239871   5.402   4.353  14.600 -0.0183 -0.2683 -0.0570
 6127TIP3    H139872   5.452   4.314  14.671 -0.4539 -0.5321  0.1074
 6127TIP3    H239873   5.376   4.278  14.545 -1.7457 -0.3776  0.8169
 6128TIP3   OH239874   3.076   6.453  11.810 -0.2463  0.4417  0.1162
 6128TIP3    H139875   3.081   6.376  11.755 -0.6426 -0.2049  0.9635
 6128TIP3    H239876   3.103   6.525  11.753 -0.8015 -0.1750 -0.9563
 6129TIP3   OH239877   2.090   5.503  10.311 -0.0106 -0.7376  0.5534
 6129TIP3    H139878   2.048   5.569  10.367  0.4885  0.7874 -0.7917
 6129TIP3    H239879   2.018   5.447  10.282 -0.5237 -0.5019  1.3320
 6130TIP3   OH239880   4.794   3.962   0.192 -0.1129  0.0019  0.5437
 6130TIP3    H139881   4.882   3.981   0.159  0.0504 -1.7868 -0.1786
 6130TIP3    H239882   4.744   3.935   0.115 -1.5133  1.6253  0.8402
 6131TIP3   OH239883   3.137   5.684   4.235  0.3330 -0.0739 -0.3251
 6131TIP3    H139884   3.198   5.631   4.287  0.5638  0.5547  0.0467
 6131TIP3    H239885   3.190   5.758   4.204 -0.1943  0.3796 -0.1473
 6132TIP3   OH239886   1.248   1.985  14.982  0.0725  0.1856  0.3526
 6132TIP3    H139887   1.215   1.948  14.900 -1.1619  0.5688  0.6432
 6132TIP3    H239888   1.312   1.922  15.014 -0.3367 -0.5735 -0.2923
 6133TIP3   OH239889   6.246   0.582   3.153  0.0486  0.6471 -0.1141
 6133TIP3    H139890   6.331   0.544   3.171  0.1197  0.9134  0.1216
 6133TIP3    H239891   6.238   0.654   3.216 -1.4115 -0.9256  1.6389
 6134TIP3   OH239892   0.026   4.708   4.294  0.0850  0.0087  0.1475
 6134TIP3    H139893   0.106   4.685   4.248  0.1665 -0.0681  0.3264
 6134TIP3    H239894  -0.042   4.707   4.226  0.5935  2.3457 -0.4769
 6135TIP3   OH239895   6.674   0.328  17.125  0.3764 -0.2569  0.4662
 6135TIP3    H139896   6.583   0.304  17.110  0.4246 -0.6584  0.8127
 6135TIP3    H239897   6.677   0.422  17.111  0.0688 -0.3568 -0.3476
 6136TIP3   OH239898   5.201   3.184  13.871 -0.0286 -0.0466  0.5604
 6136TIP3    H139899   5.260   3.247  13.913 -0.7966  0.4523  0.9050
 6136TIP3    H239900   5.120   3.190  13.922 -1.6053  1.7868 -1.9627
 6137TIP3   OH239901   5.753   3.493   5.801 -0.3922  0.1919  0.0989
 6137TIP3    H139902   5.762   3.531   5.889  2.4753 -1.2157  0.5461
 6137TIP3    H239903   5.711   3.562   5.749 -0.9227  1.5797  2.2444
 6138TIP3   OH239904   3.610   5.354  14.981 -0.2676  0.1531 -0.5476
 6138TIP3    H139905   3.667   5.300  14.926 -0.6576 -0.4333 -0.3962
 6138TIP3    H239906   3.554   5.400  14.918  0.9217  1.3931 -0.7323
 6139TIP3   OH239907   5.340   6.788  13.833  0.1045 -0.6136  0.0628
 6139TIP3    H139908   5.413   6.760  13.777  1.1585  1.0979  0.5049
 6139TIP3    H239909   5.267   6.800  13.772  1.0874  0.7009 -0.8961
 6140TIP3   OH239910   0.424   2.733   2.002  0.3179 -0.0714 -0.7049
 6140TIP3    H139911   0.409   2.796   1.931  0.9679  0.3149 -0.5130
 6140TIP3    H239912   0.384   2.652   1.971 -0.1026  0.3062 -1.1718
 6141TIP3   OH239913   2.970   1.396  14.782  0.2574  0.7165 -0.1914
 6141TIP3    H139914   3.006   1.328  14.839 -1.8821  1.9061  2.8319
 6141TIP3    H239915   3.023   1.473  14.802  0.8865  0.6524 -1.5207
 6142TIP3   OH239916   3.243   0.205   2.834  0.4006 -0.5807 -0.0581
 6142TIP3    H139917   3.298   0.205   2.755  0.5661 -2.8008  0.0174
 6142TIP3    H239918   3.172   0.266   2.812  0.9745 -0.3894 -1.5433
 6143TIP3   OH239919   2.963   5.332   0.277  0.0891  0.1623 -0.1585
 6143TIP3    H139920   2.888   5.353   0.221 -0.7599 -1.9018  0.1039
 6143TIP3    H239921   2.947   5.382   0.357 -0.9739 -0.1333 -0.1619
 6144TIP3   OH239922   4.158   6.497  11.433 -0.4380  0.2845 -0.0544
 6144TIP3    H139923   4.173   6.543  11.515  0.2302  1.0861 -0.6074
 6144TIP3    H239924   4.217   6.421  11.437 -1.0824 -0.1942  0.5871
 6145TIP3   OH239925   1.766   3.398  11.886  0.1807  0.3610  0.5027
 6145TIP3    H139926   1.781   3.368  11.975 -1.7167 -0.8853  0.4689
 6145TIP3    H239927   1.677   3.432  11.886 -1.2094 -2.7794 -1.5659
 6146TIP3   OH239928   0.997   0.370  15.363 -0.1283  0.1223 -0.1904
 6146TIP3    H139929   1.080   0.382  15.316 -0.4513 -1.9320 -1.4155
 6146TIP3    H239930   0.946   0.448  15.340  1.0066  0.8302 -0.4098
 6147TIP3   OH239931   1.795   0.424  12.953 -0.1567  0.3034 -0.4822
 6147TIP3    H139932   1.762   0.347  12.999 -0.1889  1.0555  0.7871
 6147TIP3    H239933   1.720   0.454  12.901 -1.1296  1.2217  1.3621
 6148TIP3   OH239934   4.521   4.298   5.257 -0.0553 -0.4633 -0.5819
 6148TIP3    H139935   4.428   4.275   5.256  0.0022 -0.6844 -1.1953
 6148TIP3    H239936   4.551   4.269   5.343 -0.0186 -2.6348 -1.2722
 6149TIP3   OH239937   1.465   0.747  12.189  0.1778 -0.1786  0.3440
 6149TIP3    H139938   1.526   0.800  12.239  0.5238  2.7671 -2.7930
 6149TIP3    H239939   1.380   0.791  12.200  0.1375  0.1317 -1.0591
 6150TIP3   OH239940   3.855   0.588   4.071 -0.5619  0.3101 -0.2705
 6150TIP3    H139941   3.851   0.681   4.095 -0.9157  0.3748 -0.5694
 6150TIP3    H239942   3.942   0.578   4.032 -0.4304  0.4617 -0.0232
 6151TIP3   OH239943   5.683   1.784  11.637  0.7680 -0.2000 -0.5265
 6151TIP3    H139944   5.622   1.710  11.638 -2.0645  1.8645  2.0808
 6151TIP3    H239945   5.674   1.821  11.549 -1.6578 -0.1697 -0.3524
 6152TIP3   OH239946   0.058   6.571  11.189  0.5002 -0.3230 -0.2564
 6152TIP3    H139947   0.036   6.619  11.110  1.6494  0.7617  0.0355
 6152TIP3    H239948   0.152   6.584  11.200  1.1057 -3.4486 -0.6506
 6153TIP3   OH239949   2.002   1.006   4.898 -0.6379  0.3164  0.0603
 6153TIP3    H139950   1.920   1.052   4.915 -2.1806 -2.8957  2.4954
 6153TIP3    H239951   1.980   0.943   4.829  0.4041  0.7415 -0.6850
 6154TIP3   OH239952   4.030   1.888  17.044  0.4424  0.2032  0.2220
 6154TIP3    H139953   4.033   1.836  16.964 -3.1350  1.5255 -0.9735
 6154TIP3    H239954   4.045   1.825  17.115  0.0770 -1.7055 -1.3136
 6155TIP3   OH239955   5.575   2.540   0.259  0.2280 -0.1867  0.4290
 6155TIP3    H139956   5.627   2.535   0.339 -0.1598 -2.5261  0.6262
 6155TIP3    H239957   5.485   2.522   0.288 -0.1750  0.5725 -0.3171
 6156TIP3   OH239958   5.403   4.857   4.448 -0.1351 -0.6377 -0.1025
 6156TIP3    H139959   5.442   4.898   4.371 -1.3965 -2.2283 -1.6821
 6156TIP3    H239960   5.334   4.918   4.476 -1.1330 -1.0078 -1.6213
 6157TIP3   OH239961   2.866   5.190   4.600 -0.0318 -0.1760 -0.4341
 6157TIP3    H139962   2.941   5.140   4.568  0.9972  0.8980  0.1891
 6157TIP3    H239963   2.880   5.278   4.565 -0.5753  0.2293  0.3437
 6158TIP3   OH239964   3.723   0.095  16.983 -0.1394 -0.0851 -0.0586
 6158TIP3    H139965   3.665   0.057  16.917 -0.5186  0.3418  0.0259
 6158TIP3    H239966   3.705   0.189  16.980 -0.1091 -0.0541  0.6041
 6159TIP3   OH239967   4.141   5.320   0.725 -0.5010  0.1839 -0.9640
 6159TIP3    H139968   4.099   5.234   0.713  2.8529 -1.3838 -2.7076
 6159TIP3    H239969   4.190   5.311   0.807 -0.6354  0.7145 -0.8195
 6160TIP3   OH239970   4.031   4.396  12.597 -0.2455 -0.7996 -0.4783
 6160TIP3    H139971   4.002   4.482  12.567  1.9648  0.3244  0.4049
 6160TIP3    H239972   4.013   4.396  12.691  1.5804 -0.4162 -0.0740
 6161TIP3   OH239973   1.395   3.453   2.473 -0.4525  0.3950  0.0205
 6161TIP3    H139974   1.304   3.423   2.472 -0.2165 -0.4244  0.9410
 6161TIP3    H239975   1.413   3.473   2.565  0.9186 -1.5408  0.2483
 6162TIP3   OH239976   2.494   3.474  15.929 -0.6276 -0.5833 -0.4469
 6162TIP3    H139977   2.526   3.431  15.849  1.5009  0.2622 -0.1170
 6162TIP3    H239978   2.512   3.411  15.999  0.4328 -0.0822 -0.2519
 6163TIP3   OH239979   0.462   1.395   3.752 -0.0229 -0.4283  0.7522
 6163TIP3    H139980   0.387   1.439   3.793 -0.2935 -0.2996  0.1417
 6163TIP3    H239981   0.490   1.456   3.684  1.5873  0.2014  1.9338
 6164TIP3   OH239982   1.807   3.843   0.397  0.1767 -0.6817 -0.5817
 6164TIP3    H139983   1.769   3.891   0.470 -0.2503  0.0752 -1.2955
 6164TIP3    H239984   1.899   3.868   0.397  0.4469 -1.5643  0.3792
 6165TIP3   OH239985   0.501   0.077   4.768  0.3632 -0.0743  0.3064
 6165TIP3    H139986   0.574   0.021   4.794  0.2787  0.3353  1.4805
 6165TIP3    H239987   0.519   0.160   4.811  0.5202  0.8624 -1.4503
 6166TIP3   OH239988   1.189   5.000  15.435  0.2026 -0.3490 -0.1345
 6166TIP3    H139989   1.247   5.045  15.374 -0.0358  0.2985  0.1025
 6166TIP3    H239990   1.105   4.995  15.390  0.0602  0.0159  0.0825
 6167TIP3   OH239991   1.489   3.711   2.909  0.3095  0.0739  0.1429
 6167TIP3    H139992   1.425   3.748   2.970  0.3863  0.5516 -0.0658
 6167TIP3    H239993   1.527   3.787   2.864  1.4453 -0.1650  0.6754
 6168TIP3   OH239994   0.642   0.712  12.212  0.1871  0.5932 -0.3981
 6168TIP3    H139995   0.596   0.753  12.139 -0.0339  2.7555  0.8792
 6168TIP3    H239996   0.726   0.757  12.215 -0.1519  1.1688  1.1898
 6169TIP3   OH239997   6.232   3.613   0.864 -0.2116  0.1945 -0.3876
 6169TIP3    H139998   6.192   3.561   0.795 -0.7711 -0.6120  0.5144
 6169TIP3    H239999   6.166   3.678   0.886 -0.3999 -0.1228 -0.0002
 6170TIP3   OH240000   0.856   0.099  14.211 -0.0130 -0.1707 -0.4204
 6170TIP3    H140001   0.830   0.162  14.277  0.8383  0.5197 -0.7235
 6170TIP3    H240002   0.833   0.014  14.248 -0.0984  0.2424  0.4972
 6171TIP3   OH240003   2.988   0.007  14.765 -0.3750 -0.2307 -0.0572
 6171TIP3    H140004   3.075  -0.030  14.755 -0.6522 -0.7249 -0.7446
 6171TIP3    H240005   2.999   0.081  14.824  0.6703  0.2510 -0.8343
 6172TIP3   OH240006   0.215   4.958  12.998 -0.2740 -0.1320 -0.6453
 6172TIP3    H140007   0.135   4.957  13.049 -0.5757  2.1094 -0.9911
 6172TIP3    H240008   0.281   4.920  13.056 -1.0726  0.2948  0.5756
 6173TIP3   OH240009   5.845   0.119  16.707 -0.2552 -0.0586  0.3703
 6173TIP3    H140010   5.885   0.135  16.793  3.3329  1.5837 -1.4182
 6173TIP3    H240011   5.784   0.047  16.723  2.4424 -1.9299  3.7377
 6174TIP3   OH240012   3.131   1.011   5.955 -0.6487 -1.0953 -0.0177
 6174TIP3    H140013   3.219   1.017   5.990 -1.2911  1.2887  1.4263
 6174TIP3    H240014   3.134   0.938   5.893  1.8738 -2.1324  1.2052
 6175TIP3   OH240015   4.772   2.993  16.205  0.7397  0.3071  0.1153
 6175TIP3    H140016   4.734   2.905  16.214  2.6209 -0.4636  1.0764
 6175TIP3    H240017   4.786   3.022  16.295  2.0460  0.7047 -0.1950
 6176TIP3   OH240018   1.269   6.710   4.447  0.2559 -0.1150 -0.0434
 6176TIP3    H140019   1.245   6.743   4.360 -1.1908 -0.8889  0.0254
 6176TIP3    H240020   1.291   6.788   4.497  0.8435  0.3675 -1.0178
 6177TIP3   OH240021   3.677   2.504   1.874 -0.8644  0.6445 -0.4540
 6177TIP3    H140022   3.766   2.475   1.892 -1.1798 -0.2706 -0.2779
 6177TIP3    H240023   3.681   2.599   1.877  0.3761  0.6559 -1.7668
 6178TIP3   OH240024   2.308   4.599  13.036 -0.0036 -0.7155  0.2138
 6178TIP3    H140025   2.281   4.683  13.072  1.6846  0.0527 -0.2034
 6178TIP3    H240026   2.260   4.592  12.953 -0.2199 -0.2112  0.2926
 6179TIP3   OH240027   4.715   2.006  11.986 -0.1132  0.1456 -0.1522
 6179TIP3    H140028   4.801   2.012  11.943 -0.2848 -3.4831 -1.3178
 6179TIP3    H240029   4.652   2.003  11.915 -0.8922 -0.5693  0.5387
 6180TIP3   OH240030   6.433   1.133   1.730 -0.0291 -0.6161  0.0263
 6180TIP3    H140031   6.393   1.207   1.776 -0.6559 -0.0803 -1.3183
 6180TIP3    H240032   6.389   1.131   1.645 -0.5660 -3.0277  0.3127
 6181TIP3   OH240033   4.592   4.281   4.888 -0.2141  0.5634 -0.4244
 6181TIP3    H140034   4.580   4.190   4.914  1.5698  0.8030  1.5570
 6181TIP3    H240035   4.637   4.277   4.804 -1.6761 -0.3229 -1.2075
 6182TIP3   OH240036   4.557   5.193   3.250 -0.3746  0.4397 -0.3549
 6182TIP3    H140037   4.544   5.213   3.343  0.8609  1.6033 -0.3954
 6182TIP3    H240038   4.650   5.212   3.235 -0.2660 -0.9253 -1.5478
 6183TIP3   OH240039   5.341   0.970  17.135 -0.5823 -0.2265 -0.2902
 6183TIP3    H140040   5.305   0.951  17.048 -0.2527  1.1041 -0.7439
 6183TIP3    H240041   5.435   0.979  17.121 -0.3794 -1.1365  0.4213
 6184TIP3   OH240042   6.250   4.119   0.516  0.2009 -0.2492 -0.4885
 6184TIP3    H140043   6.209   4.081   0.594  0.7254 -2.5164 -1.2443
 6184TIP3    H240044   6.339   4.085   0.516  0.7808  1.1835 -1.1401
 6185TIP3   OH240045   4.067   0.878   4.536 -0.5031 -0.3872  0.4741
 6185TIP3    H140046   4.161   0.893   4.549 -0.5640  0.8893 -0.3423
 6185TIP3    H240047   4.053   0.788   4.564  0.5637  0.0558  2.6744
 6186TIP3   OH240048   2.567   0.928  14.990  0.4008  0.1458  0.5785
 6186TIP3    H140049   2.542   0.840  14.960 -0.6411  1.0180 -1.3335
 6186TIP3    H240050   2.497   0.985  14.958  2.3798  2.0352 -0.6586
 6187TIP3   OH240051   4.056   6.389  15.618  0.0354 -0.3369  0.0411
 6187TIP3    H140052   3.978   6.444  15.618  0.5005  0.4439  2.3888
 6187TIP3    H240053   4.041   6.328  15.691  1.9619  0.4361  1.1547
 6188TIP3   OH240054   6.081   4.446   2.283  0.2047  0.3185  1.0450
 6188TIP3    H140055   6.064   4.540   2.280  0.3845  0.3506  1.0230
 6188TIP3    H240056   6.060   4.421   2.373 -0.5050  0.2513  0.8671
 6189TIP3   OH240057   0.073   0.787  17.054  0.1408  0.7941  0.4622
 6189TIP3    H140058   0.055   0.856  16.989  1.8233 -0.1193 -1.0836
 6189TIP3    H240059   0.010   0.718  17.034 -1.1616  1.5767  1.6407
 6190TIP3   OH240060   3.249   1.505  14.008 -0.0209  0.3095  0.0882
 6190TIP3    H140061   3.186   1.549  14.065 -0.1689  0.0676  0.1124
 6190TIP3    H240062   3.265   1.421  14.050  0.1546  0.2837 -0.0309
 6191TIP3   OH240063   5.822   1.223  11.686 -0.1721  0.3650 -0.6088
 6191TIP3    H140064   5.862   1.309  11.698 -0.4045  0.5145 -0.8675
 6191TIP3    H240065   5.819   1.212  11.591 -0.8238  0.3967 -0.5954
 6192TIP3   OH240066   4.863   4.308  16.458 -0.0673  0.3209 -0.0593
 6192TIP3    H140067   4.934   4.326  16.520 -0.2553  1.5445 -0.1728
 6192TIP3    H240068   4.783   4.319  16.510 -0.1939 -0.8608  0.0213
 6193TIP3   OH240069   6.724   3.210   1.771  0.6922 -0.0302  0.2683
 6193TIP3    H140070   6.730   3.122   1.809  1.3515  0.6509  1.8493
 6193TIP3    H240071   6.707   3.267   1.846  1.1590  1.2912 -0.5971
 6194TIP3   OH240072   6.324   2.192   5.615 -0.6718  0.3172  0.6193
 6194TIP3    H140073   6.362   2.210   5.529 -2.2942  0.9758 -0.0004
 6194TIP3    H240074   6.279   2.108   5.604  2.3339 -1.6470  1.9800
 6195TIP3   OH240075   4.416   4.785  12.285 -0.3953 -0.6706  0.1305
 6195TIP3    H140076   4.435   4.714  12.223 -0.2418 -0.6257  0.1254
 6195TIP3    H240077   4.501   4.825  12.302 -0.6268  0.3049 -0.8271
 6196TIP3   OH240078   3.050   3.853   4.734 -0.4844  0.0378  0.0583
 6196TIP3    H140079   3.074   3.761   4.740 -0.7819 -0.0102  0.5201
 6196TIP3    H240080   3.118   3.898   4.785 -0.4166  0.0603 -0.0522
 6197TIP3   OH240081   6.261   5.469  16.712 -0.3381 -0.7187 -0.1993
 6197TIP3    H140082   6.203   5.409  16.757 -0.2937 -0.8604 -0.3291
 6197TIP3    H240083   6.346   5.458  16.755  0.3589 -2.6934 -1.8981
 6198TIP3   OH240084   6.509   3.666  15.450 -0.0358  0.1743  0.1339
 6198TIP3    H140085   6.601   3.649  15.430 -0.2209 -0.9250  0.1715
 6198TIP3    H240086   6.469   3.684  15.365  0.3382  1.3533  0.1901
 6199TIP3   OH240087   2.956   0.532  12.012  0.6891  0.4150  0.5119
 6199TIP3    H140088   3.023   0.475  11.976 -1.6700 -2.0869 -0.2733
 6199TIP3    H240089   2.892   0.542  11.941 -0.4507  1.5476  1.6406
 6200TIP3   OH240090   0.705   5.527   1.951  0.0359  0.4025  0.1558
 6200TIP3    H140091   0.648   5.597   1.983 -0.9710 -0.4644  0.3331
 6200TIP3    H240092   0.791   5.547   1.987 -0.1906  1.6309  0.0640
 6201TIP3   OH240093   3.453   6.275  11.403  0.2585  0.2125  0.6345
 6201TIP3    H140094   3.503   6.200  11.437 -0.3011  0.4534  2.0146
 6201TIP3    H240095   3.366   6.239  11.386  0.9708 -0.4090 -2.5167
 6202TIP3   OH240096   2.665   4.042  13.975  0.0991  0.4728  0.5034
 6202TIP3    H140097   2.620   3.957  13.969 -2.1508  1.5963  0.4409
 6202TIP3    H240098   2.745   4.029  13.925 -1.4447 -0.8762 -1.8298
 6203TIP3   OH240099   5.821   5.673  10.522 -0.6281  0.3353 -0.3418
 6203TIP3    H140100   5.826   5.766  10.502 -0.1973  0.8257  1.7676
 6203TIP3    H240101   5.903   5.654  10.569 -1.4601 -0.6968  0.7504
 6204TIP3   OH240102   3.423   0.070  14.092 -0.1655 -0.0393 -0.1372
 6204TIP3    H140103   3.450   0.047  14.181 -1.5403 -0.0450  0.2988
 6204TIP3    H240104   3.373   0.151  14.103  0.5365  0.5448 -1.0532
 6205TIP3   OH240105   1.946   4.421   3.984 -0.5764  0.1447 -0.1653
 6205TIP3    H140106   1.956   4.430   4.079 -2.0841  0.6062 -0.0285
 6205TIP3    H240107   1.990   4.339   3.963 -0.4797 -0.1174  0.9701
 6206TIP3   OH240108   4.424   0.970  13.199  0.1589  0.0887  0.4603
 6206TIP3    H140109   4.486   0.924  13.256  0.4911 -0.1163 -0.0542
 6206TIP3    H240110   4.369   1.019  13.259  1.5227  1.1658  0.8861
 6207TIP3   OH240111   0.448   4.764  16.074 -0.0607  0.0086  0.2628
 6207TIP3    H140112   0.364   4.793  16.110  1.1225 -0.4390  3.8034
 6207TIP3    H240113   0.508   4.836  16.093  2.0204 -2.5583  5.5107
 6208TIP3   OH240114   3.199   6.674  17.043 -0.2217 -0.1612  0.0761
 6208TIP3    H140115   3.192   6.581  17.068  0.5875 -0.4230 -0.6336
 6208TIP3    H240116   3.245   6.715  17.116  0.3222 -0.5187 -0.0650
 6209TIP3   OH240117   4.693   2.722  10.813  0.1582 -0.3131  0.3901
 6209TIP3    H140118   4.674   2.637  10.773 -0.0758  0.2792 -0.8375
 6209TIP3    H240119   4.606   2.759  10.830  0.2546 -0.1141  0.4419
 6210TIP3   OH240120   3.867   1.818  12.614  0.1107 -0.2997 -0.2727
 6210TIP3    H140121   3.821   1.760  12.554 -1.1231 -1.3626  1.5968
 6210TIP3    H240122   3.959   1.790  12.609  0.0225 -0.4388 -1.5160
 6211TIP3   OH240123   1.022   4.400  15.309 -0.2262 -0.7532 -0.1021
 6211TIP3    H140124   0.979   4.316  15.326  0.1304 -0.9087  0.0418
 6211TIP3    H240125   0.957   4.465  15.334 -0.4827 -0.9869 -0.1536
 6212TIP3   OH240126   1.455   3.487   2.759 -0.5307  0.4309 -0.3884
 6212TIP3    H140127   1.487   3.575   2.779  1.9267 -0.7774  1.5738
 6212TIP3    H240128   1.365   3.486   2.790  0.2497  1.4959  2.2095
 6213TIP3   OH240129   0.488   2.753   2.880  0.7030  0.1439  0.7261
 6213TIP3    H140130   0.556   2.716   2.825  0.2847  0.1659  0.1895
 6213TIP3    H240131   0.408   2.707   2.855  0.5159  0.1116  1.3535
 6214TIP3   OH240132   5.149   3.169   1.130  0.3526 -0.8578 -0.2367
 6214TIP3    H140133   5.076   3.145   1.072  0.1910  0.2561 -0.5164
 6214TIP3    H240134   5.215   3.206   1.072 -0.3187  1.4457  0.3930
 6215TIP3   OH240135   2.119   0.193   0.150 -0.9242 -0.9119  0.0135
 6215TIP3    H140136   2.122   0.242   0.232  0.4338 -0.7734 -0.1039
 6215TIP3    H240137   2.096   0.104   0.177 -0.2077 -0.9333  0.5821
 6216TIP3   OH240138   6.206   2.290  10.325 -0.2791  0.1859  0.4740
 6216TIP3    H140139   6.248   2.363  10.278 -2.1866  1.6607  0.9243
 6216TIP3    H240140   6.278   2.231  10.346  1.4372  2.1190  0.3931
 6217TIP3   OH240141   2.701   1.512  13.885 -0.1136 -0.4095  0.0330
 6217TIP3    H140142   2.740   1.502  13.972 -0.1191 -2.5001 -0.1529
 6217TIP3    H240143   2.768   1.557  13.834 -0.2102  1.0928  1.1411
 6218TIP3   OH240144   2.885   4.176   3.657 -0.3986 -0.3906  0.8345
 6218TIP3    H140145   2.796   4.171   3.692 -0.8623  1.4851  0.0681
 6218TIP3    H240146   2.908   4.269   3.664  0.5861 -0.4386 -1.0830
 6219TIP3   OH240147   5.308   0.079  11.850  0.3924  0.5769  0.4209
 6219TIP3    H140148   5.360   0.065  11.772 -0.1287 -0.4103  0.2355
 6219TIP3    H240149   5.305   0.175  11.860  0.5898  0.7080 -0.6620
 6220TIP3   OH240150   3.265   5.919  16.683 -0.4886  0.2291 -0.0650
 6220TIP3    H140151   3.229   5.859  16.618 -1.1831  0.1842  0.3375
 6220TIP3    H240152   3.213   5.999  16.673 -0.3831  0.3340  0.2064
 6221TIP3   OH240153   1.576   4.631   0.566 -0.0678 -0.7183 -0.3213
 6221TIP3    H140154   1.542   4.652   0.653  1.9401  0.5181  0.2311
 6221TIP3    H240155   1.543   4.543   0.548  2.0312 -2.3854  3.0788
 6222TIP3   OH240156   4.423   3.746  12.859  0.1155  0.1235 -0.3988
 6222TIP3    H140157   4.372   3.669  12.834 -1.6531  0.1694  2.5717
 6222TIP3    H240158   4.358   3.815  12.872  0.8848  0.4192  2.7083
 6223TIP3   OH240159   1.687   1.720  16.376  0.2282 -0.3304 -0.3274
 6223TIP3    H140160   1.598   1.741  16.403 -0.3090 -0.3168 -2.0037
 6223TIP3    H240161   1.678   1.641  16.323  1.0251  0.3759 -1.5535
 6224TIP3   OH240162   0.377   0.971  15.813 -0.6524  0.2426 -0.1287
 6224TIP3    H140163   0.321   1.047  15.795  0.0298  0.6183 -0.7745
 6224TIP3    H240164   0.461   0.995  15.773 -0.7641 -1.3515 -1.4117
 6225TIP3   OH240165   2.260   3.153  16.655 -0.3134  0.5248 -0.1600
 6225TIP3    H140166   2.318   3.099  16.601 -2.2510  0.2256 -2.0577
 6225TIP3    H240167   2.235   3.095  16.727  2.0777  0.8331  1.0366
 6226TIP3   OH240168   0.352   1.219  14.213  0.7794  0.5316  0.4151
 6226TIP3    H140169   0.439   1.226  14.250  0.4633  0.7407  1.1424
 6226TIP3    H240170   0.345   1.129  14.183  1.4933  0.7036 -0.3024
 6227TIP3   OH240171   2.418   4.266   0.655  0.0446  0.5919  0.2249
 6227TIP3    H140172   2.386   4.187   0.699  1.5478 -0.7423 -0.9546
 6227TIP3    H240173   2.361   4.276   0.579  0.8378 -0.3458 -0.5197
 6228TIP3   OH240174   1.269   5.969  14.668  0.1169  0.0828 -0.3845
 6228TIP3    H140175   1.193   5.963  14.610 -0.8304 -1.8983  0.9787
 6228TIP3    H240176   1.232   5.976  14.756  1.4981 -0.8763  0.3081
 6229TIP3   OH240177   5.115   4.670  16.306  0.1439 -0.4333 -0.0268
 6229TIP3    H140178   5.151   4.654  16.218  0.4314  1.0366 -0.2070
 6229TIP3    H240179   5.150   4.755  16.331  2.3198 -1.9619  2.7013
 6230TIP3   OH240180   0.515   3.562  12.608 -0.0458 -0.1144  0.1062
 6230TIP3    H140181   0.470   3.493  12.559 -1.0279  0.4798  0.1483
 6230TIP3    H240182   0.446   3.625  12.629  1.1277  1.8639 -1.6022
 6231TIP3   OH240183   0.159   1.728  16.546  0.0769  0.0848 -0.2910
 6231TIP3    H140184   0.160   1.670  16.470 -0.5186  0.9173 -0.9578
 6231TIP3    H240185   0.085   1.787  16.530 -0.5754 -0.2243  1.3301
 6232TIP3   OH240186   2.885   2.203   3.822 -0.2834 -0.4828  0.5897
 6232TIP3    H140187   2.852   2.247   3.744  1.0462  0.0902  0.3326
 6232TIP3    H240188   2.977   2.229   3.827  0.4699 -2.9389  0.6332
 6233TIP3   OH240189   3.973   6.587  11.110  0.3861  0.8287  0.3420
 6233TIP3    H140190   3.966   6.519  11.043 -0.7284  0.2465  1.0158
 6233TIP3    H240191   3.972   6.670  11.062 -1.1711  0.4472 -0.3319
 6234TIP3   OH240192   2.388   1.525   5.680  0.1732  0.5828 -0.1613
 6234TIP3    H140193   2.435   1.478   5.611 -1.1413  0.0925 -0.7541
 6234TIP3    H240194   2.419   1.615   5.674  1.6745  0.1092  0.0502
 6235TIP3   OH240195   2.192   6.473   3.352 -0.5031  0.4032 -0.1769
 6235TIP3    H140196   2.271   6.460   3.404 -1.0907 -1.0022  0.3966
 6235TIP3    H240197   2.163   6.561   3.376 -0.0778  0.2635  0.9359
 6236TIP3   OH240198   0.057   5.816  12.482  0.3165 -0.2808 -0.2424
 6236TIP3    H140199   0.021   5.754  12.545 -1.9632  0.5145 -0.6825
 6236TIP3    H240200   0.129   5.859  12.529 -0.3364 -0.7778  1.2799
 6237TIP3   OH240201   6.691   0.540   4.566 -0.2354  0.0953  0.0562
 6237TIP3    H140202   6.729   0.577   4.647 -0.5503  0.3893  0.0711
 6237TIP3    H240203   6.723   0.450   4.564  2.3345  0.9389 -1.0817
 6238TIP3   OH240204   6.671   0.113   0.272  0.3552  0.4937  0.3407
 6238TIP3    H140205   6.690   0.036   0.218 -2.1062 -0.2803  0.4873
 6238TIP3    H240206   6.667   0.080   0.361  2.3885  1.4265  0.8599
 6239TIP3   OH240207   1.801   4.721  12.365 -0.0923 -0.6707  0.1878
 6239TIP3    H140208   1.765   4.654  12.423 -1.9066 -0.3793 -0.5318
 6239TIP3    H240209   1.849   4.780  12.424 -0.6893 -1.1470  1.1823
 6240TIP3   OH240210   0.324   4.185   1.958 -0.7042 -0.3017 -0.3438
 6240TIP3    H140211   0.390   4.116   1.964  0.0760  0.4183 -0.4326
 6240TIP3    H240212   0.325   4.210   1.865  0.0013  0.7555 -0.0653
 6241TIP3   OH240213   0.805   5.758  16.344  0.8982  0.0360 -0.5257
 6241TIP3    H140214   0.724   5.809  16.342  0.5869 -0.4517 -0.4800
 6241TIP3    H240215   0.871   5.818  16.378  0.8985  0.9198 -2.0094
 6242TIP3   OH240216   1.805   1.371   4.403  0.4997  0.7402 -0.3641
 6242TIP3    H140217   1.772   1.355   4.314  0.4054 -1.0636 -0.0510
 6242TIP3    H240218   1.896   1.397   4.391  0.3887  0.8408 -1.0052
 6243TIP3   OH240219   2.646   1.219  12.149  0.3684  0.9183 -0.2043
 6243TIP3    H140220   2.570   1.162  12.160  0.7401  0.5345  0.4313
 6243TIP3    H240221   2.712   1.162  12.109  0.5494  1.0664 -0.1150
 6244TIP3   OH240222   4.898   3.930  14.177  0.5537 -0.0574 -0.0478
 6244TIP3    H140223   4.974   3.938  14.119  0.0702 -0.7487 -0.7865
 6244TIP3    H240224   4.899   3.839  14.206 -0.5470 -0.3356 -0.8375
 6245TIP3   OH240225   1.076   0.150   6.518 -0.4304  0.0451 -0.4605
 6245TIP3    H140226   1.055   0.118   6.606 -0.5456  2.0102  0.2656
 6245TIP3    H240227   1.124   0.077   6.477 -1.6787 -1.4736  0.6674
 6246TIP3   OH240228   1.433   4.128   1.995  0.0314 -0.0316 -1.1220
 6246TIP3    H140229   1.408   4.037   1.976  1.0141 -0.3219 -1.0949
 6246TIP3    H240230   1.529   4.125   2.002 -0.0508  0.6555  0.7227
 6247TIP3   OH240231   3.036   4.995  15.930 -0.0078  0.6627 -0.3128
 6247TIP3    H140232   2.964   4.958  15.880  0.7500  1.1655 -1.8322
 6247TIP3    H240233   3.066   4.923  15.986 -0.9551  0.1306 -0.4700
 6248TIP3   OH240234   0.846   5.491  14.246  0.2380 -0.0385  0.2796
 6248TIP3    H140235   0.805   5.508  14.331 -0.6400 -2.5354  0.4494
 6248TIP3    H240236   0.939   5.484  14.265  0.1709  0.5111  0.8281
 6249TIP3   OH240237   1.850   0.942   3.188 -0.2738 -0.5301 -0.2940
 6249TIP3    H140238   1.774   0.985   3.229  1.0650 -0.4233  2.2584
 6249TIP3    H240239   1.910   1.014   3.168  0.3151 -0.8483  0.2989
 6250TIP3   OH240240   6.583   0.003  17.008 -0.3653  0.0106 -0.1604
 6250TIP3    H140241   6.554   0.069  17.071 -1.5002  0.8171 -1.4559
 6250TIP3    H240242   6.503  -0.046  16.988 -0.0317 -0.2062 -0.9873
 6251TIP3   OH240243   1.905   6.307   4.846 -0.5558  0.5100  0.0824
 6251TIP3    H140244   1.950   6.230   4.881 -1.7694  0.6965  2.2124
 6251TIP3    H240245   1.847   6.271   4.778 -2.6038 -0.8839  2.3819
 6252TIP3   OH240246   1.551   3.267  13.638 -0.2439  0.0803  0.6103
 6252TIP3    H140247   1.499   3.316  13.574 -0.6493  1.4202  1.9048
 6252TIP3    H240248   1.503   3.185  13.650 -0.3807 -0.0102 -0.4717
 6253TIP3   OH240249   3.551   0.971  14.472 -0.3406 -0.4032 -0.1097
 6253TIP3    H140250   3.476   1.004  14.422 -0.1508 -0.5752 -0.5151
 6253TIP3    H240251   3.542   0.875  14.467 -0.4498 -0.4224  0.3893
 6254TIP3   OH240252   0.907   2.393  14.638  0.0170  0.1314 -0.1510
 6254TIP3    H140253   0.993   2.433  14.624  0.1686 -0.3626 -0.6495
 6254TIP3    H240254   0.900   2.386  14.733  1.3045 -1.4676 -0.1386
 6255TIP3   OH240255   6.142   2.917   5.826 -0.5771 -0.2289 -0.3697
 6255TIP3    H140256   6.136   2.843   5.765 -1.3148 -0.2280 -0.3052
 6255TIP3    H240257   6.071   2.975   5.801  1.6580  1.9232 -2.2821
 6256TIP3   OH240258   3.872   1.760  14.109  0.3933  0.2022  0.6890
 6256TIP3    H140259   3.820   1.835  14.137 -3.0677 -1.0557 -1.6554
 6256TIP3    H240260   3.897   1.781  14.019  2.1128 -0.2175  1.0266
 6257TIP3   OH240261   3.687   3.451  11.642  0.2997 -0.3318 -0.0627
 6257TIP3    H140262   3.625   3.415  11.578 -0.9663  0.2095  0.7988
 6257TIP3    H240263   3.764   3.395  11.635  0.2265 -0.2338 -2.0868
 6258TIP3   OH240264   2.559   4.282   3.955  0.4417 -0.4657  0.1615
 6258TIP3    H140265   2.588   4.306   4.043 -0.0839 -1.1203  0.5264
 6258TIP3    H240266   2.518   4.361   3.920 -0.8880 -0.6882  1.1734
 6259TIP3   OH240267   4.171   5.761  11.478 -0.2470 -0.5926  0.2594
 6259TIP3    H140268   4.185   5.697  11.547  1.1396 -0.6303 -0.0301
 6259TIP3    H240269   4.149   5.842  11.525 -0.3428 -0.8654  0.6927
 6260TIP3   OH240270   0.110   2.748   5.691 -0.4217 -0.3875  0.3694
 6260TIP3    H140271   0.065   2.699   5.622  0.6275  0.2440 -0.8241
 6260TIP3    H240272   0.109   2.691   5.767 -0.5963 -1.5992 -0.5193
 6261TIP3   OH240273   1.628   2.215   5.250 -0.6565 -0.1234 -0.6910
 6261TIP3    H140274   1.572   2.240   5.176 -0.5268  0.4540 -0.5973
 6261TIP3    H240275   1.635   2.294   5.303 -1.3778 -0.7317  0.3613
 6262TIP3   OH240276   3.911   5.168   1.207  0.2015 -0.0858  0.4043
 6262TIP3    H140277   3.879   5.091   1.160 -1.1222  0.6669  0.0385
 6262TIP3    H240278   3.926   5.234   1.138  1.7990 -0.1399  0.6510
 6263TIP3   OH240279   5.687   1.210   6.432 -0.8103 -0.4295 -0.2771
 6263TIP3    H140280   5.672   1.304   6.427 -0.4301 -0.3957 -0.9757
 6263TIP3    H240281   5.624   1.178   6.496 -0.8476  0.3190  0.0575
 6264TIP3   OH240282   2.015   2.142   5.720  0.8539 -0.3496 -0.0606
 6264TIP3    H140283   2.029   2.106   5.808  0.3729 -1.6772 -0.5145
 6264TIP3    H240284   2.101   2.177   5.695  1.0261 -0.0570  0.8849
 6265TIP3   OH240285   6.746   5.606  11.140 -0.2290 -0.1802  0.5761
 6265TIP3    H140286   6.740   5.606  11.236 -0.0202  0.0411  0.5931
 6265TIP3    H240287   6.659   5.580  11.110 -0.5311  0.5157  0.8180
 6266TIP3   OH240288   5.181   6.546   5.415  1.1866  0.2426  0.4763
 6266TIP3    H140289   5.253   6.495   5.379  1.2176  0.5404  0.1108
 6266TIP3    H240290   5.213   6.575   5.501  1.2331 -0.1998  0.6136
 6267TIP3   OH240291   3.194   4.813  12.444  0.0931  0.1632 -0.2419
 6267TIP3    H140292   3.238   4.733  12.470 -0.4341 -0.0215  0.0922
 6267TIP3    H240293   3.265   4.876  12.428  0.4342  0.4751  2.1961
 6268TIP3   OH240294   6.613   2.882  14.673  0.1847  0.5933  0.5574
 6268TIP3    H140295   6.700   2.908  14.703  0.1018  0.0700  1.2780
 6268TIP3    H240296   6.562   2.871  14.754 -1.5632  4.1361  0.1288
 6269TIP3   OH240297   4.819   6.685   2.062  0.9137 -0.4193  0.5929
 6269TIP3    H140298   4.770   6.768   2.067 -2.5641 -2.1447 -1.1272
 6269TIP3    H240299   4.807   6.646   2.149  0.4750 -0.1513  0.6590
 6270TIP3   OH240300   3.119   0.054  15.687 -0.3079  0.2106  0.0762
 6270TIP3    H140301   3.162   0.121  15.739 -0.7263 -1.2675  2.5276
 6270TIP3    H240302   3.176   0.041  15.611  1.3554  1.2074  1.0918
 6271TIP3   OH240303   1.913   0.416  14.234 -0.3414 -0.3457 -0.3646
 6271TIP3    H140304   1.996   0.392  14.273  0.5141 -2.8935 -3.3705
 6271TIP3    H240305   1.932   0.498  14.187  0.2083 -0.3959 -0.2381
 6272TIP3   OH240306   4.130   2.551   4.615 -0.3751  0.0145 -0.3897
 6272TIP3    H140307   4.078   2.630   4.625  0.6528  0.4929  1.7325
 6272TIP3    H240308   4.200   2.575   4.555  0.1015  0.8269  0.4747
 6273TIP3   OH240309   3.538   3.031   4.736 -0.3302  0.0414 -0.5484
 6273TIP3    H140310   3.580   3.014   4.651 -1.2743  0.9212 -1.2267
 6273TIP3    H240311   3.488   2.951   4.754  1.5146 -1.0035  0.2516
 6274TIP3   OH240312   4.482   4.900  10.941 -0.1102 -0.0019 -0.0982
 6274TIP3    H140313   4.418   4.966  10.917 -0.5226 -0.6913 -0.9135
 6274TIP3    H240314   4.565   4.933  10.905 -0.5494 -0.5621 -1.6613
 6275TIP3   OH240315   3.933   2.396   5.611 -0.2313  0.4525  0.2981
 6275TIP3    H140316   3.924   2.484   5.648 -2.0140 -0.3060  1.8388
 6275TIP3    H240317   3.849   2.379   5.568  0.1189 -0.4721 -0.0517
 6276TIP3   OH240318   0.640   1.995  16.201  0.5756  0.6147  0.4946
 6276TIP3    H140319   0.688   2.050  16.139  1.0112  0.6607  0.8661
 6276TIP3    H240320   0.682   1.909  16.194  0.5751  0.6000  0.6679
 6277TIP3   OH240321   3.187   3.231  12.167 -0.2217 -0.4852 -0.0006
 6277TIP3    H140322   3.124   3.296  12.197  1.8042  0.3902  2.8484
 6277TIP3    H240323   3.217   3.264  12.083  0.7585  2.4423  1.3541
 6278TIP3   OH240324   6.593   5.436  14.283  0.1616 -0.3202 -0.2908
 6278TIP3    H140325   6.545   5.354  14.298 -0.7279 -0.3203 -2.6445
 6278TIP3    H240326   6.685   5.412  14.291 -0.0939 -1.5061 -0.6872
 6279TIP3   OH240327   6.017   3.083   2.280 -0.1843  0.1576  0.1294
 6279TIP3    H140328   5.934   3.128   2.297 -0.9686 -1.2017  0.0709
 6279TIP3    H240329   6.005   2.996   2.316  1.5250  0.1649  0.8035
 6280TIP3   OH240330   0.939   0.576  16.272 -0.1149  0.4700 -0.2313
 6280TIP3    H140331   0.945   0.547  16.363  0.3932  2.1053  0.2935
 6280TIP3    H240332   0.948   0.495  16.221 -1.5483 -0.6339  1.1572
 6281TIP3   OH240333   0.780   3.353  14.775 -0.8942 -0.1173 -0.4730
 6281TIP3    H140334   0.699   3.404  14.778 -1.2376 -0.6424  2.4464
 6281TIP3    H240335   0.846   3.408  14.817  0.3170  0.2463 -2.6827
 6282TIP3   OH240336   2.905   5.285  15.615  0.3351 -0.1605 -0.1796
 6282TIP3    H140337   2.936   5.253  15.530  1.8986 -0.5156  0.4708
 6282TIP3    H240338   2.986   5.309  15.662 -0.2626 -2.0372  1.9988
 6283TIP3   OH240339   2.025   2.362   4.614  0.3249  0.4680 -0.2093
 6283TIP3    H140340   1.955   2.339   4.675  0.2193  2.1946  0.3622
 6283TIP3    H240341   2.094   2.297   4.630  0.2964  0.8803  1.7622
 6284TIP3   OH240342   1.370   4.942  13.024 -0.4760  0.3589  0.2031
 6284TIP3    H140343   1.350   4.920  13.115 -0.9705 -0.8793 -0.1815
 6284TIP3    H240344   1.403   5.032  13.028  0.0007  0.1542  1.6586
 6285TIP3   OH240345   5.233   6.608   0.562 -0.4766  0.8449  0.3310
 6285TIP3    H140346   5.205   6.520   0.588  0.2803  0.4181 -0.2754
 6285TIP3    H240347   5.151   6.658   0.557 -0.6660  1.3935  4.8313
 6286TIP3   OH240348   5.449   2.750   6.387  0.4727 -0.1548  0.2836
 6286TIP3    H140349   5.460   2.829   6.439 -0.5071  0.3467 -0.2497
 6286TIP3    H240350   5.392   2.694   6.441  0.8642 -0.3456  0.5001
 6287TIP3   OH240351   1.260   0.260   2.364 -0.0745 -0.0160 -0.0781
 6287TIP3    H140352   1.274   0.192   2.299  0.8123 -0.0325  0.1160
 6287TIP3    H240353   1.166   0.259   2.381 -0.0782 -1.1246 -0.1461
 6288TIP3   OH240354   6.394   2.615  13.177 -0.6827  0.2077  0.2931
 6288TIP3    H140355   6.424   2.705  13.180  1.5535 -0.4993  0.7570
 6288TIP3    H240356   6.430   2.581  13.095 -0.3451 -0.6190  0.7708
 6289TIP3   OH240357   5.185   3.027  15.790 -0.1228 -0.2820  0.1451
 6289TIP3    H140358   5.154   3.117  15.806  0.5062 -0.1862  0.8125
 6289TIP3    H240359   5.117   2.989  15.734  0.5052  1.2047 -1.7324
 6290TIP3   OH240360   5.140   5.793   4.624  0.3455 -0.3362 -0.5528
 6290TIP3    H140361   5.159   5.741   4.702  0.0495 -1.2844 -1.0884
 6290TIP3    H240362   5.076   5.858   4.652 -0.4803 -1.2751 -0.2212
 6291TIP3   OH240363   4.460   4.202   1.651 -0.6317  0.0853  0.0616
 6291TIP3    H140364   4.525   4.244   1.707  0.2017 -1.6619  0.4713
 6291TIP3    H240365   4.456   4.257   1.573  0.5799  0.7879  0.4719
 6292TIP3   OH240366   2.461   3.708   5.248 -0.1680 -0.1104  0.4120
 6292TIP3    H140367   2.478   3.614   5.258 -0.7111 -0.4174 -1.1546
 6292TIP3    H240368   2.525   3.737   5.183 -0.6346  0.3873  0.1664
 6293TIP3   OH240369   3.969   1.306  15.938 -1.0212  0.0562  0.2665
 6293TIP3    H140370   3.977   1.304  16.033 -0.4408 -2.4264  0.2301
 6293TIP3    H240371   3.956   1.398  15.917 -2.1889  0.5563  2.8119
 6294TIP3   OH240372   6.811   0.765  15.643 -0.5552 -0.0393  0.4698
 6294TIP3    H140373   6.745   0.806  15.587 -0.6985 -0.5733  0.2420
 6294TIP3    H240374   6.827   0.829  15.712  1.2551  1.6551 -1.3473
 6295TIP3   OH240375   0.803   0.228   3.992  0.0293 -0.7311 -0.2629
 6295TIP3    H140376   0.825   0.320   4.010  1.6369 -0.9045 -1.1196
 6295TIP3    H240377   0.774   0.193   4.076  2.8265 -0.3467  0.9565
 6296TIP3   OH240378   2.519   0.864  14.653  0.0246 -0.0257 -0.0004
 6296TIP3    H140379   2.469   0.943  14.674  0.7875  0.9506 -1.6555
 6296TIP3    H240380   2.467   0.820  14.586  0.2967 -0.1959 -0.0986
 6297TIP3   OH240381   5.285   5.088   1.960  0.2447 -0.4161 -0.5570
 6297TIP3    H140382   5.213   5.112   2.018  1.0482  0.1934  0.2253
 6297TIP3    H240383   5.292   5.162   1.899 -0.1535 -0.7436 -1.0133
 6298TIP3   OH240384   1.563   1.410  15.210 -0.3784 -0.1594  0.0885
 6298TIP3    H140385   1.648   1.445  15.237 -0.3537 -1.5928  2.0434
 6298TIP3    H240386   1.500   1.473  15.246 -0.2049  0.0086  0.1040
 6299TIP3   OH240387   5.637   0.065  12.754 -1.0370  0.0136  0.3507
 6299TIP3    H140388   5.607   0.079  12.664 -2.7712  0.9275  1.0329
 6299TIP3    H240389   5.702   0.134  12.768 -2.6072  1.5253  0.5738
 6300TIP3   OH240390   1.145   0.608   7.129  0.2224 -0.5619  0.4590
 6300TIP3    H140391   1.142   0.513   7.138  0.1848 -0.6143 -0.0817
 6300TIP3    H240392   1.197   0.623   7.050 -0.1530 -0.1437  0.2859
 6301TIP3   OH240393   3.727   5.106  11.530 -0.7284 -0.1951  0.2232
 6301TIP3    H140394   3.762   5.179  11.479 -1.1361 -0.2694 -0.1737
 6301TIP3    H240395   3.633   5.106  11.509 -0.8253 -0.4891  0.6494
 6302TIP3   OH240396   0.204   2.231  16.683 -0.5283  0.5168 -0.3762
 6302TIP3    H140397   0.246   2.314  16.663  0.7780 -0.6744 -3.1108
 6302TIP3    H240398   0.125   2.230  16.628 -0.3102 -0.1908 -0.6853
 6303TIP3   OH240399   0.100   4.881  15.661  0.6257 -0.0835 -0.4339
 6303TIP3    H140400   0.164   4.921  15.603 -0.1271  1.4149 -0.2940
 6303TIP3    H240401   0.030   4.851  15.602  1.5149 -1.9254 -0.6087
 6304TIP3   OH240402   2.744   4.458  15.747  0.1846  0.1548  0.1581
 6304TIP3    H140403   2.665   4.477  15.799  0.1518 -0.9172  0.5209
 6304TIP3    H240404   2.801   4.410  15.807  2.0701  2.7420  0.6101
 6305TIP3   OH240405   0.369   1.631  16.931 -0.7906  0.5072 -0.8146
 6305TIP3    H140406   0.394   1.655  16.842 -0.7442 -0.0310 -0.9454
 6305TIP3    H240407   0.422   1.554  16.952  0.7230  1.8036  0.4195
 6306TIP3   OH240408   5.989   3.055  14.188 -0.6177  0.4622  0.7481
 6306TIP3    H140409   5.929   2.985  14.162  1.0898 -0.9513  0.3344
 6306TIP3    H240410   5.983   3.058  14.283 -0.1431 -0.8649  0.8497
 6307TIP3   OH240411   5.378   0.228   5.568  0.1180 -0.1079 -0.5166
 6307TIP3    H140412   5.321   0.155   5.540  0.3582 -0.3709 -0.3293
 6307TIP3    H240413   5.317   0.296   5.596 -0.1181 -0.1106 -1.0018
 6308TIP3   OH240414   6.768   2.057  12.175  0.8029 -0.2637 -0.3504
 6308TIP3    H140415   6.773   1.979  12.120  0.7151  0.9798 -2.2172
 6308TIP3    H240416   6.687   2.100  12.149  1.2800  0.8874 -0.0049
 6309TIP3   OH240417   0.721   1.585  16.966  0.2882  0.5290 -0.3143
 6309TIP3    H140418   0.643   1.528  16.967 -0.5218  1.6010 -0.2572
 6309TIP3    H240419   0.759   1.576  17.053 -0.8057  1.3418  0.2708
 6310TIP3   OH240420   1.509   6.620   2.717 -0.1355  0.0657  0.0504
 6310TIP3    H140421   1.498   6.540   2.665  3.1992 -0.9040  0.6362
 6310TIP3    H240422   1.475   6.597   2.803  4.3780 -2.3998  1.4773
 6311TIP3   OH240423   1.483   6.512  12.945  0.7837 -0.4994 -0.0584
 6311TIP3    H140424   1.447   6.439  12.994  1.4216 -0.2638  0.8040
 6311TIP3    H240425   1.518   6.473  12.865 -1.1722 -0.7487 -0.8396
 6312TIP3   OH240426   1.397   5.466  15.982  0.2938 -0.1856 -0.5354
 6312TIP3    H140427   1.357   5.523  15.916  1.0812 -0.2955 -1.1324
 6312TIP3    H240428   1.491   5.469  15.961  0.3064 -2.0709 -0.8687
 6313TIP3   OH240429   3.890   6.108   3.783  0.1111 -0.0838  0.3161
 6313TIP3    H140430   3.935   6.156   3.715 -0.5354  0.1794  0.0616
 6313TIP3    H240431   3.819   6.062   3.737 -0.7789  0.6694  0.8996
 6314TIP3   OH240432   2.197   5.262  10.903  0.7457  0.6353 -0.0186
 6314TIP3    H140433   2.281   5.288  10.941  0.9594  0.9480 -0.6953
 6314TIP3    H240434   2.206   5.280  10.809  0.2160 -0.1050 -0.2194
 6315TIP3   OH240435   0.312   0.680  12.559  0.0592  0.2125  0.3274
 6315TIP3    H140436   0.334   0.732  12.482 -0.6802  0.4514  0.2720
 6315TIP3    H240437   0.349   0.593  12.540  0.2741  0.3939 -0.0952
 6316TIP3   OH240438   2.463   4.796  11.886 -0.2765 -1.3323 -0.1254
 6316TIP3    H140439   2.543   4.835  11.920 -0.8710  0.5525 -0.7836
 6316TIP3    H240440   2.417   4.764  11.964 -0.3103  0.3735  0.5794
 6317TIP3   OH240441   4.049   1.032   3.738 -0.0124  0.0798  0.1016
 6317TIP3    H140442   4.024   0.976   3.811 -0.6835 -0.6798 -0.6889
 6317TIP3    H240443   4.051   1.120   3.775 -0.8299 -0.2361  0.9276
 6318TIP3   OH240444   2.267   2.461   0.162  0.0103  0.1917  0.7168
 6318TIP3    H140445   2.326   2.449   0.089 -1.8476 -0.2403 -0.7926
 6318TIP3    H240446   2.231   2.374   0.179 -1.1730  0.6477  0.6925
 6319TIP3   OH240447   6.370   5.259   6.129  0.5131 -0.1975  0.6174
 6319TIP3    H140448   6.297   5.260   6.191 -0.4224  0.6291 -0.4580
 6319TIP3    H240449   6.437   5.204   6.171 -1.1185 -1.8588  1.1802
 6320TIP3   OH240450   2.365   2.600  15.003  0.5878  0.3034  0.4704
 6320TIP3    H140451   2.306   2.635  14.936 -1.7701 -0.3814  2.0743
 6320TIP3    H240452   2.416   2.533  14.957 -1.0915 -0.2786 -0.6489
 6321TIP3   OH240453   4.173   0.746  11.570 -0.0958  0.4060  0.1297
 6321TIP3    H140454   4.145   0.678  11.508 -1.6936  0.5187  0.6798
 6321TIP3    H240455   4.255   0.780  11.533  0.6666 -1.6887 -0.2333
 6322TIP3   OH240456   2.395   0.795  15.676 -0.1291  0.0391 -0.3701
 6322TIP3    H140457   2.483   0.831  15.682 -0.1789 -0.0063  0.9685
 6322TIP3    H240458   2.347   0.836  15.748 -0.1180 -2.8113  1.4164
 6323TIP3   OH240459   0.346   2.766   0.711 -0.1906  0.0398  0.0310
 6323TIP3    H140460   0.394   2.840   0.748 -0.8780  0.3810  0.2537
 6323TIP3    H240461   0.339   2.704   0.783 -0.2615  0.0805  0.0597
 6324TIP3   OH240462   3.308   0.724  11.393 -0.1236 -0.2173  0.0662
 6324TIP3    H140463   3.267   0.746  11.309  0.7581 -0.3287 -0.4031
 6324TIP3    H240464   3.361   0.800  11.415  0.6530 -0.6911 -0.1206
 6325TIP3   OH240465   5.621   3.767  10.964 -0.1005  0.1098 -0.0220
 6325TIP3    H140466   5.707   3.792  10.931  0.2617 -3.0296 -1.9084
 6325TIP3    H240467   5.564   3.840  10.940  1.2442  0.3724 -2.8740
 6326TIP3   OH240468   3.594   1.140  13.581  0.3808  0.7594  0.4515
 6326TIP3    H140469   3.655   1.186  13.524  1.3729 -1.1317 -0.1012
 6326TIP3    H240470   3.636   1.143  13.667  0.4359  0.9055  0.4206
 6327TIP3   OH240471   4.745   3.596   1.691 -0.0201  0.3800  0.1720
 6327TIP3    H140472   4.777   3.683   1.716 -2.5099  0.6471  3.2305
 6327TIP3    H240473   4.687   3.612   1.617  0.4822  1.1498 -0.0597
 6328TIP3   OH240474   0.408   3.819   4.414 -0.2271  0.1455  0.0782
 6328TIP3    H140475   0.365   3.896   4.453  2.2843  1.0763  1.2383
 6328TIP3    H240476   0.409   3.754   4.485 -2.1739 -0.9784 -0.8421
 6329TIP3   OH240477   4.973   2.095  12.927 -1.2461  0.2428 -0.1423
 6329TIP3    H140478   5.041   2.105  12.860 -0.6100 -1.5834  0.1827
 6329TIP3    H240479   4.992   2.011  12.968 -0.3761  2.1031  3.7658
 6330TIP3   OH240480   2.418   1.304   0.772  0.2084  0.2689  0.2556
 6330TIP3    H140481   2.422   1.281   0.679  0.1001 -1.1662  0.5717
 6330TIP3    H240482   2.325   1.322   0.788  0.1368 -0.0238  0.1885
 6331TIP3   OH240483   0.712   0.722  10.681 -0.0435 -0.2795  0.7277
 6331TIP3    H140484   0.705   0.703  10.775 -0.4513  1.1734  1.0083
 6331TIP3    H240485   0.771   0.796  10.675  1.8024 -1.7475 -0.3788
 6332TIP3   OH240486   2.307   4.561   2.490 -0.1244 -0.0714 -0.3360
 6332TIP3    H140487   2.281   4.591   2.577 -1.1928  0.5044 -0.8371
 6332TIP3    H240488   2.403   4.563   2.492 -0.1282 -0.4132  0.9397
 6333TIP3   OH240489   1.277   5.180  15.894  0.3094 -0.2193  0.1060
 6333TIP3    H140490   1.257   5.242  15.963  1.3310 -0.4846  0.6589
 6333TIP3    H240491   1.216   5.107  15.908  1.0236 -0.6203  1.2111
 6334TIP3   OH240492   4.425   4.614  16.368  0.1583 -0.1828  0.5755
 6334TIP3    H140493   4.465   4.559  16.301  0.1555 -0.5762  0.8928
 6334TIP3    H240494   4.414   4.556  16.443 -2.1244 -0.4271  0.1177
 6335TIP3   OH240495   6.339   3.385  12.670  0.6473 -0.0451 -0.1901
 6335TIP3    H140496   6.264   3.435  12.704 -0.0150 -0.8090 -0.5121
 6335TIP3    H240497   6.395   3.452  12.629  0.2983  0.5712  0.3122
 6336TIP3   OH240498   1.432   1.640  15.273 -0.0221  0.5168 -0.1038
 6336TIP3    H140499   1.353   1.592  15.298  1.0825 -1.3971 -0.0970
 6336TIP3    H240500   1.405   1.732  15.273 -2.3590 -0.1011 -0.5535
 6337TIP3   OH240501   6.593   3.735  11.994 -0.0699  0.0791  0.0010
 6337TIP3    H140502   6.549   3.776  11.919  0.6325  1.4836  0.3193
 6337TIP3    H240503   6.622   3.650  11.961 -1.1003  0.0413 -0.8564
 6338TIP3   OH240504   0.894   6.116  15.481  0.0300  0.2338  0.2559
 6338TIP3    H140505   0.809   6.159  15.475  0.4906  1.2136  0.5367
 6338TIP3    H240506   0.957   6.188  15.489  0.8018 -0.4907  0.9820
 6339TIP3   OH240507   0.742   3.090  11.726  0.4630  0.0909  0.5773
 6339TIP3    H140508   0.836   3.093  11.708  0.1000  1.0915 -1.4741
 6339TIP3    H240509   0.707   3.167  11.683 -1.4907 -0.9848  0.1107
 6340TIP3   OH240510   5.862   2.382  13.230  0.4133  0.1398  1.2121
 6340TIP3    H140511   5.885   2.367  13.139  0.4659  1.1029  1.0551
 6340TIP3    H240512   5.923   2.328  13.280  0.5208 -0.2261  0.6828
 6341TIP3   OH240513   3.275   2.199   1.953 -0.1376  0.0874 -0.7462
 6341TIP3    H140514   3.205   2.252   1.990  0.9268  1.0596 -0.0556
 6341TIP3    H240515   3.351   2.256   1.954  1.0397 -1.4262 -0.0564
 6342TIP3   OH240516   4.685   4.946   3.003 -0.5656 -0.4738 -0.1660
 6342TIP3    H140517   4.591   4.951   3.023 -0.2304 -1.7661  2.0984
 6342TIP3    H240518   4.691   4.890   2.926 -1.7224  0.9150 -1.3092
 6343TIP3   OH240519   2.301   6.643  16.563  0.6636  0.1248 -0.0713
 6343TIP3    H140520   2.233   6.576  16.564  0.2827  0.4857 -0.8572
 6343TIP3    H240521   2.347   6.632  16.646 -1.2618  0.7911  1.1581
 6344TIP3   OH240522   0.574   0.445  12.150 -0.1697 -0.2494 -0.0361
 6344TIP3    H140523   0.623   0.523  12.173  2.6797 -1.8848 -0.0858
 6344TIP3    H240524   0.561   0.451  12.056  2.6465 -1.0797 -0.5679
 6345TIP3   OH240525   5.670   6.175   4.768 -0.0780  0.1941 -0.3299
 6345TIP3    H140526   5.634   6.238   4.830  0.4753 -0.8236  1.0669
 6345TIP3    H240527   5.594   6.129   4.733 -0.2799 -0.6162  1.1361
 6346TIP3   OH240528   5.206   1.977   3.418  0.2252  0.8827  0.0551
 6346TIP3    H140529   5.260   1.906   3.383 -1.5740  0.2517 -1.6454
 6346TIP3    H240530   5.269   2.039   3.455  1.9498 -0.8170  0.1360
 6347TIP3   OH240531   0.673   0.537   3.730  0.2269  0.0795  0.3793
 6347TIP3    H140532   0.655   0.631   3.736  0.6415  0.1280  0.8896
 6347TIP3    H240533   0.691   0.523   3.637  1.1244  0.6935  0.4444
 6348TIP3   OH240534   3.032   6.801  13.993 -0.1865  0.0012 -0.2514
 6348TIP3    H140535   3.021   6.873  14.055 -1.2791  1.1732 -1.7206
 6348TIP3    H240536   2.969   6.819  13.924  0.0712 -1.9651 -1.0677
 6349TIP3   OH240537   5.536   5.462   3.289 -0.0582 -0.8692  0.4083
 6349TIP3    H140538   5.616   5.502   3.255  2.1031 -4.7701  0.2166
 6349TIP3    H240539   5.500   5.527   3.349  3.4894  0.9726  0.8351
 6350TIP3   OH240540   1.436   1.364   3.181  0.3474 -0.2539  0.0388
 6350TIP3    H140541   1.509   1.372   3.118 -0.4487 -0.0789 -0.8866
 6350TIP3    H240542   1.449   1.437   3.242  0.6751  0.0688 -0.4099
 6351TIP3   OH240543   2.798   4.650  15.571 -0.1773  0.2826  0.1259
 6351TIP3    H140544   2.775   4.585  15.637  0.9143 -0.6760 -0.4011
 6351TIP3    H240545   2.766   4.613  15.489 -0.1481  0.7317 -0.0912
 6352TIP3   OH240546   0.226   5.182   3.103 -1.0857  0.0356 -1.0211
 6352TIP3    H140547   0.218   5.126   3.026  1.5693 -0.1112 -1.3051
 6352TIP3    H240548   0.251   5.123   3.174  2.7790  0.7473 -1.5439
 6353TIP3   OH240549   1.442   1.743  16.258  0.5919 -0.9310  0.4324
 6353TIP3    H140550   1.403   1.819  16.215  2.1284 -0.2584  0.1558
 6353TIP3    H240551   1.430   1.671  16.195 -0.4063 -0.8138  0.4740
 6354TIP3   OH240552   6.794   4.813   1.716  0.2665 -0.2828 -0.0657
 6354TIP3    H140553   6.713   4.771   1.687  1.1195 -2.2705  0.2510
 6354TIP3    H240554   6.772   4.851   1.801  0.2161 -2.9319  1.2048
 6355TIP3   OH240555   1.840   4.951  12.037  0.0148 -0.3079  0.0750
 6355TIP3    H140556   1.777   4.884  12.011  0.9879 -0.5805 -1.7301
 6355TIP3    H240557   1.786   5.024  12.070 -1.0740 -1.7591  1.7094
 6356TIP3   OH240558   6.759   2.074   1.423 -0.3501  0.0244 -0.1323
 6356TIP3    H140559   6.701   2.134   1.470 -1.2763  0.5628 -1.8870
 6356TIP3    H240560   6.797   2.019   1.492 -3.1089 -0.5162  1.0833
 6357TIP3   OH240561   3.696   4.253  12.672  0.6584  0.0390  0.2005
 6357TIP3    H140562   3.778   4.253  12.722  0.7224  1.0713  0.1149
 6357TIP3    H240563   3.725   4.252  12.580  0.6234  1.4198  0.1469
 6358TIP3   OH240564   2.970   3.825  15.667  0.1122 -0.0637  0.0496
 6358TIP3    H140565   3.008   3.761  15.727 -0.1301 -1.1378 -0.9172
 6358TIP3    H240566   2.931   3.773  15.597 -3.6256  0.9239  1.1934
 6359TIP3   OH240567   3.817   0.595  11.421  0.0787 -0.1247  0.4221
 6359TIP3    H140568   3.826   0.552  11.336 -1.5233 -1.6522  0.9838
 6359TIP3    H240569   3.725   0.619  11.426  0.0888 -0.2969  1.8420
 6360TIP3   OH240570   6.296   3.400  16.797 -0.0124 -0.7100 -0.0369
 6360TIP3    H140571   6.283   3.306  16.785 -1.5072 -0.3170 -1.8180
 6360TIP3    H240572   6.210   3.433  16.823  0.5757  0.1446  0.9113
 6361TIP3   OH240573   3.117   5.117  10.712  0.3069  0.0694 -0.2272
 6361TIP3    H140574   3.094   5.074  10.794 -1.2250  2.7820  0.8812
 6361TIP3    H240575   3.079   5.062  10.644  0.4588 -1.5313  0.9286
 6362TIP3   OH240576   4.023   3.961   2.739 -0.4497  0.3665 -0.6058
 6362TIP3    H140577   3.944   3.995   2.781 -0.8652 -0.1623 -0.9375
 6362TIP3    H240578   4.095   4.001   2.787 -0.8790  2.9506 -1.9741
 6363TIP3   OH240579   0.448   0.408  16.844  0.0509  0.9719  0.5575
 6363TIP3    H140580   0.379   0.373  16.788 -0.3753 -0.2971  1.8321
 6363TIP3    H240581   0.410   0.411  16.931  0.9002  2.3424  0.9215
 6364TIP3   OH240582   0.170   3.673  12.445  0.1148 -0.1967  1.2830
 6364TIP3    H140583   0.097   3.723  12.409 -0.0872 -0.1080  1.8113
 6364TIP3    H240584   0.134   3.586  12.461  1.3922 -1.8719 -3.2914
 6365TIP3   OH240585   5.846   4.274  11.652  0.1912 -0.2919  0.9600
 6365TIP3    H140586   5.908   4.317  11.593 -0.5261 -0.1010  0.3287
 6365TIP3    H240587   5.805   4.346  11.700 -0.0330 -0.3694  0.8836
 6366TIP3   OH240588   4.241   3.473   3.862 -0.2174  0.0133  0.4282
 6366TIP3    H140589   4.221   3.418   3.787 -0.8063 -0.4267  0.8951
 6366TIP3    H240590   4.335   3.461   3.876 -0.0770  0.2020 -0.3100
 6367TIP3   OH240591   5.538   3.102   4.049 -0.8084  0.4984 -0.6572
 6367TIP3    H140592   5.610   3.042   4.031 -1.1150  0.6432 -2.5558
 6367TIP3    H240593   5.492   3.063   4.123  0.7914  0.0535  0.1518
 6368TIP3   OH240594   2.168   0.290   5.198 -0.0507 -0.3719 -0.0698
 6368TIP3    H140595   2.123   0.315   5.117  0.4732  2.1674  0.3501
 6368TIP3    H240596   2.139   0.355   5.262  1.2071 -1.0403  1.2272
 6369TIP3   OH240597   1.390   0.361  14.380 -0.1944 -0.0502  0.3747
 6369TIP3    H140598   1.485   0.351  14.382 -0.0549  1.0709 -0.1415
 6369TIP3    H240599   1.363   0.323  14.296  0.0011  1.1321 -0.2419
 6370TIP3   OH240600   2.475   5.424  11.320 -0.5146  0.0143 -0.1708
 6370TIP3    H140601   2.550   5.365  11.327  0.6882  1.1902 -2.0655
 6370TIP3    H240602   2.403   5.368  11.290  0.2013 -0.7697 -0.4633
 6371TIP3   OH240603   4.450   0.697   2.821  0.0067 -0.2971  0.1862
 6371TIP3    H140604   4.476   0.652   2.741 -0.1171 -1.3490  0.7230
 6371TIP3    H240605   4.514   0.768   2.830 -0.0748 -0.0587 -0.9205
 6372TIP3   OH240606   1.463   1.890  11.906 -0.2229  0.1935 -0.2461
 6372TIP3    H140607   1.390   1.863  11.963  0.3519 -0.5609  0.1490
 6372TIP3    H240608   1.477   1.982  11.928 -0.0869 -0.0518  0.7651
 6373TIP3   OH240609   0.262   2.971  17.029  0.3070  0.0307  0.4062
 6373TIP3    H140610   0.241   2.917  17.105  0.9381 -2.1254 -0.8565
 6373TIP3    H240611   0.311   3.044  17.064  0.9985 -1.1681  2.0437
 6374TIP3   OH240612   2.733   1.759  16.247  0.5690 -0.3227  0.9645
 6374TIP3    H140613   2.700   1.809  16.172  1.9622  0.1600  0.6403
 6374TIP3    H240614   2.770   1.680  16.208 -1.1266 -1.4096  1.4262
 6375TIP3   OH240615   1.817   3.584  12.661 -0.1870  0.1534  0.4366
 6375TIP3    H140616   1.808   3.489  12.668 -0.0074  0.2407  2.2983
 6375TIP3    H240617   1.812   3.601  12.567  0.4683 -1.7612 -0.0047
 6376TIP3   OH240618   1.841   4.126   5.225  0.2949 -0.6999  0.1968
 6376TIP3    H140619   1.900   4.201   5.220  1.1176 -1.3561 -0.3625
 6376TIP3    H240620   1.900   4.050   5.228 -0.5112 -1.4439 -1.4045
 6377TIP3   OH240621   3.315   6.550   3.299 -0.0038  0.4270 -0.1339
 6377TIP3    H140622   3.255   6.496   3.350  0.8604  0.3001  0.7690
 6377TIP3    H240623   3.283   6.639   3.311 -0.7692  0.2467 -0.7219
 6378TIP3   OH240624   3.391   1.578   0.938 -0.3386 -0.1664  0.2728
 6378TIP3    H140625   3.432   1.555   1.022  1.5682 -0.4471 -0.6797
 6378TIP3    H240626   3.307   1.616   0.962 -0.3133 -1.2210  2.2674
 6379TIP3   OH240627   4.577   5.599  16.183  0.6697 -0.6041  0.5352
 6379TIP3    H140628   4.603   5.519  16.227 -0.7360 -1.7146 -0.5436
 6379TIP3    H240629   4.521   5.645  16.247  1.4339 -0.4918  1.1308
 6380TIP3   OH240630   1.385   5.747  12.143  0.0057 -0.0714  0.2279
 6380TIP3    H140631   1.296   5.751  12.177  0.2918 -0.1722  1.0193
 6380TIP3    H240632   1.439   5.734  12.221  0.6983 -0.1432 -0.2601
 6381TIP3   OH240633   0.997   4.555   4.712 -0.1217  0.3559  0.4470
 6381TIP3    H140634   0.968   4.465   4.699 -2.8983  1.5341 -2.8047
 6381TIP3    H240635   0.922   4.600   4.750  0.2469  1.8622 -0.5308
 6382TIP3   OH240636   0.775   3.333  13.067 -0.8512  0.2220 -0.1099
 6382TIP3    H140637   0.795   3.265  13.131  0.2719  0.1730 -0.4865
 6382TIP3    H240638   0.680   3.341  13.070 -0.9640 -0.9801  0.3347
 6383TIP3   OH240639   0.339   0.341  17.105  0.1915 -0.0360 -0.1420
 6383TIP3    H140640   0.265   0.386  17.145  0.3920  0.8546 -0.7334
 6383TIP3    H240641   0.364   0.274  17.169  0.3936  1.2268  1.1449
 6384TIP3   OH240642   1.295   5.660  16.674 -0.1163  0.0109 -0.5976
 6384TIP3    H140643   1.322   5.706  16.753  1.2459  2.2910 -2.2832
 6384TIP3    H240644   1.214   5.615  16.700  1.1756 -0.8086  2.5190
 6385TIP3   OH240645   5.175   4.588   1.579 -1.1421 -0.4001  0.1598
 6385TIP3    H140646   5.189   4.498   1.606 -2.5373 -1.0994 -1.2353
 6385TIP3    H240647   5.097   4.616   1.627 -2.3644 -0.9319 -1.4071
 6386TIP3   OH240648   4.150   5.767  11.922 -0.5467  0.1150 -0.3235
 6386TIP3    H140649   4.115   5.856  11.930  0.4937  0.6484 -1.3709
 6386TIP3    H240650   4.233   5.770  11.969 -0.3305 -0.2032 -0.6841
 6387TIP3   OH240651   4.607   2.125   3.292 -0.1778  0.0603 -0.2992
 6387TIP3    H140652   4.680   2.181   3.265 -1.7927  1.4500 -2.0917
 6387TIP3    H240653   4.529   2.171   3.260 -1.7141 -2.3591 -0.2711
 6388TIP3   OH240654   3.981   1.521  14.215 -0.0299  0.1681 -0.2227
 6388TIP3    H140655   3.942   1.478  14.291  0.8471 -2.0848 -0.9619
 6388TIP3    H240656   3.934   1.604  14.207 -2.0730 -0.7945  1.0940
 6389TIP3   OH240657   5.644   5.466   5.476  0.2667  0.0131 -0.2556
 6389TIP3    H140658   5.648   5.499   5.565  0.4105  0.1877 -0.3254
 6389TIP3    H240659   5.566   5.410   5.474  0.5414 -0.3943  0.1142
 6390TIP3   OH240660   6.270   6.072   3.168 -0.2269 -0.5098  0.3311
 6390TIP3    H140661   6.227   5.989   3.189 -0.2249 -1.3870 -2.7710
 6390TIP3    H240662   6.224   6.136   3.222 -2.0666 -2.1304  0.8182
 6391TIP3   OH240663   6.363   2.055   3.239  0.1468  0.2291  0.5529
 6391TIP3    H140664   6.451   2.018   3.231 -0.3950 -1.3514  1.4535
 6391TIP3    H240665   6.339   2.080   3.149  2.1863  2.4766  0.5064
 6392TIP3   OH240666   1.350   5.815   0.561  0.7824 -0.6808 -0.1582
 6392TIP3    H140667   1.404   5.892   0.576  0.6344 -0.6578  0.2812
 6392TIP3    H240668   1.292   5.839   0.489  1.9056 -0.9937 -1.1944
 6393TIP3   OH240669   6.816   3.956   3.430 -0.4834  0.1644  0.0948
 6393TIP3    H140670   6.859   4.030   3.473 -0.5723 -0.3486  1.0991
 6393TIP3    H240671   6.803   3.985   3.339  1.0925  0.6899  0.0073
 6394TIP3   OH240672   2.701   0.414   3.586 -0.3906 -0.7705  0.1088
 6394TIP3    H140673   2.639   0.437   3.518 -0.6089  0.7307  0.7778
 6394TIP3    H240674   2.780   0.463   3.565  0.5585 -2.5078 -0.6275
 6395TIP3   OH240675   3.115   1.859   1.242  0.2480  0.0424  0.3827
 6395TIP3    H140676   3.054   1.849   1.315 -0.0062  1.1778  0.3375
 6395TIP3    H240677   3.127   1.953   1.233  3.8258 -0.0745  1.9017
 6396TIP3   OH240678   3.387   1.732   4.794  0.4753 -0.2301 -0.1281
 6396TIP3    H140679   3.460   1.676   4.767  1.1550  1.6816 -2.6164
 6396TIP3    H240680   3.427   1.812   4.826 -0.5193 -0.2040  1.1380
 6397TIP3   OH240681   4.744   3.883   0.446  0.5882 -0.3621 -0.7161
 6397TIP3    H140682   4.836   3.873   0.470  0.2523  0.1304  0.8662
 6397TIP3    H240683   4.747   3.916   0.356  1.9669  0.3237 -0.4489
 6398TIP3   OH240684   2.872   4.591   5.691 -0.1566 -0.0684 -0.4389
 6398TIP3    H140685   2.865   4.497   5.710 -0.2816 -0.0337 -0.3102
 6398TIP3    H240686   2.822   4.603   5.610  1.4753 -0.4443 -1.5513
 6399TIP3   OH240687   6.192   1.553   1.286  1.2960  0.5067  0.0839
 6399TIP3    H140688   6.265   1.576   1.229  1.1365 -0.2001 -0.4102
 6399TIP3    H240689   6.156   1.473   1.249  0.7419  0.4275  0.7653
 6400TIP3   OH240690   0.389   1.406   0.369  0.6620 -0.3687 -0.4635
 6400TIP3    H140691   0.455   1.339   0.354  0.1070 -0.4796 -2.7033
 6400TIP3    H240692   0.358   1.430   0.282  1.8819  3.9072  0.0394
 6401TIP3   OH240693   3.970   6.220   5.776  0.5548 -0.2158  0.7295
 6401TIP3    H140694   4.026   6.166   5.721 -2.6587 -3.1071 -0.0659
 6401TIP3    H240695   3.935   6.287   5.717 -2.0362 -2.6518 -0.7856
 6402TIP3   OH240696   4.773   1.902  14.545  0.5613  0.1780  0.1983
 6402TIP3    H140697   4.719   1.966  14.591  0.6231  0.4918 -0.1648
 6402TIP3    H240698   4.732   1.818  14.565  0.5497  0.3155  0.7745
 6403TIP3   OH240699   3.685   5.093   2.761 -0.1775  0.1704 -0.4657
 6403TIP3    H140700   3.780   5.108   2.766  0.0955 -1.6537  1.0028
 6403TIP3    H240701   3.647   5.168   2.807  0.6537  0.1536  0.2822
 6404TIP3   OH240702   3.605   6.738  14.900  0.3160  0.0398 -0.7950
 6404TIP3    H140703   3.555   6.749  14.981  1.8014 -1.5837  0.4182
 6404TIP3    H240704   3.663   6.664  14.918  1.2573  0.1560 -3.0826
 6405TIP3   OH240705   0.301   2.548   4.160  0.7169  0.0142 -0.5505
 6405TIP3    H140706   0.362   2.531   4.088  1.3477  0.3979 -0.1200
 6405TIP3    H240707   0.338   2.624   4.205  0.0251  0.1264 -0.1584
 6406TIP3   OH240708   5.725   6.749  14.369 -1.0282  0.2492  0.2390
 6406TIP3    H140709   5.697   6.751  14.460  0.5801 -1.8220  0.8347
 6406TIP3    H240710   5.654   6.705  14.323 -1.2181  0.0391  0.7277
 6407TIP3   OH240711   4.330   4.814   2.897  0.2988  1.0312  0.1175
 6407TIP3    H140712   4.309   4.862   2.977 -0.2613  0.4710  0.3082
 6407TIP3    H240713   4.249   4.770   2.873  1.5356 -2.4777  1.7536
 6408TIP3   OH240714   4.813   0.627   5.042 -0.4656  0.2720 -0.0619
 6408TIP3    H140715   4.904   0.648   5.064 -0.3557 -0.5674  0.3240
 6408TIP3    H240716   4.796   0.675   4.961  0.5658 -0.1641 -0.5505
 6409TIP3   OH240717   4.733   3.379   4.295  0.2566  0.0376 -0.1347
 6409TIP3    H140718   4.671   3.306   4.286 -0.7876  0.8190  0.5437
 6409TIP3    H240719   4.686   3.454   4.258 -0.3669  1.2617  2.8627
 6410TIP3   OH240720   0.972   1.276   1.752 -0.0873  0.5214 -0.6882
 6410TIP3    H140721   1.055   1.274   1.704 -0.2435  1.2106 -0.9982
 6410TIP3    H240722   0.907   1.300   1.686 -0.6350 -0.5974 -0.5793
 6411TIP3   OH240723   5.855   4.165   6.096 -0.4664 -0.5050 -0.3341
 6411TIP3    H140724   5.824   4.207   6.177  0.7840  1.2857 -0.7250
 6411TIP3    H240725   5.867   4.073   6.120  2.0436  0.3413  2.2372
 6412TIP3   OH240726   5.433   3.757   3.747 -0.2994 -0.1975  0.4098
 6412TIP3    H140727   5.352   3.802   3.771  0.6226  1.0538  1.2983
 6412TIP3    H240728   5.490   3.767   3.823  0.2960 -2.0835  0.2637
 6413TIP3   OH240729   2.172   1.946   4.228  0.0555 -0.5893 -0.3481
 6413TIP3    H140730   2.130   2.004   4.291  1.0106 -0.2984  0.0332
 6413TIP3    H240731   2.184   2.001   4.150  0.8466 -0.2903 -0.0294
 6414TIP3   OH240732   4.329   6.003   5.140  0.3092 -0.5443 -0.2325
 6414TIP3    H140733   4.417   6.023   5.172  0.8430  0.2724 -2.1028
 6414TIP3    H240734   4.336   5.915   5.102  0.1756 -0.6869  0.0653
 6415TIP3   OH240735   0.639   2.058  16.477  0.5491  0.1841 -0.1046
 6415TIP3    H140736   0.650   1.972  16.518 -1.8436 -0.7686 -1.3140
 6415TIP3    H240737   0.639   2.040  16.383 -1.9818  1.1561 -0.3674
 6416TIP3   OH240738   1.272   4.415   0.361 -0.0667  0.0234  0.0165
 6416TIP3    H140739   1.267   4.506   0.393 -1.7011 -0.2736  0.7191
 6416TIP3    H240740   1.345   4.377   0.410  0.8704  1.0446 -0.5529
 6417TIP3   OH240741   4.638   0.475   6.214  0.6448  0.7302  0.8419
 6417TIP3    H140742   4.586   0.532   6.271  0.3659  0.6108  0.7084
 6417TIP3    H240743   4.701   0.433   6.273  0.7270  1.0340  0.9716
 6418TIP3   OH240744   0.049   6.023  11.393  0.4388  0.8157  0.1504
 6418TIP3    H140745   0.084   6.093  11.339 -1.0106 -0.7098 -3.0599
 6418TIP3    H240746   0.089   5.943  11.359  0.7272 -0.1679  2.5410
 6419TIP3   OH240747   2.394   0.780   6.650  0.2506 -0.0870  0.0450
 6419TIP3    H140748   2.320   0.728   6.620  0.0661 -0.1573  0.6076
 6419TIP3    H240749   2.401   0.851   6.586 -1.5365  1.0458  1.0095
 6420TIP3   OH240750   0.782   3.189  16.802  0.6213  0.0684  0.0500
 6420TIP3    H140751   0.814   3.128  16.735 -0.1738 -0.3035 -0.0016
 6420TIP3    H240752   0.861   3.214  16.850  0.7758 -2.3946  1.2520
 6421TIP3   OH240753   0.189   6.171   3.660  0.1618  0.2018 -0.0667
 6421TIP3    H140754   0.247   6.117   3.715  1.3688  0.7088 -0.8191
 6421TIP3    H240755   0.218   6.260   3.676  1.6518  0.2786 -2.7185
 6422TIP3   OH240756   2.703   3.440   0.739  0.5562 -0.3871  0.0712
 6422TIP3    H140757   2.630   3.383   0.713  0.4045  0.1577 -0.7662
 6422TIP3    H240758   2.760   3.385   0.791  1.3215 -1.8333 -2.1648
 6423TIP3   OH240759   0.245   0.054   6.413  0.2759  0.3498  0.0162
 6423TIP3    H140760   0.317   0.084   6.470 -0.3946  0.2813  0.9120
 6423TIP3    H240761   0.175   0.030   6.473  0.4488 -2.2176 -0.6988
 6424TIP3   OH240762   6.534   0.809  15.847  0.8173 -0.2397  0.4486
 6424TIP3    H140763   6.593   0.815  15.922 -0.1359  0.4904  1.1678
 6424TIP3    H240764   6.592   0.793  15.772  1.6970 -2.1291  1.4578
 6425TIP3   OH240765   3.992   4.744  14.717  0.4217 -0.6261  0.5015
 6425TIP3    H140766   3.959   4.753  14.806  1.9093  0.6056  0.9711
 6425TIP3    H240767   3.919   4.770  14.661 -1.0390 -2.8598  1.2352
 6426TIP3   OH240768   2.477   5.924   1.816  0.1160  0.0861  0.1827
 6426TIP3    H140769   2.421   5.990   1.858 -1.4149  1.1266 -3.1617
 6426TIP3    H240770   2.424   5.845   1.814 -0.8499  0.6984 -1.7352
 6427TIP3   OH240771   0.841   1.398  11.819  0.2792  0.1742 -0.6016
 6427TIP3    H140772   0.772   1.389  11.885  2.1647 -3.2879  1.2510
 6427TIP3    H240773   0.802   1.362  11.739 -0.6557  0.1217 -0.1426
 6428TIP3   OH240774   4.487   2.375   5.935  0.1230  0.6569 -0.6073
 6428TIP3    H140775   4.433   2.441   5.890  0.0190  0.6921 -0.4346
 6428TIP3    H240776   4.489   2.301   5.874 -0.0967  0.6666 -0.6295
 6429TIP3   OH240777   4.071   0.608  14.808  0.3790  0.2092 -0.0859
 6429TIP3    H140778   4.037   0.681  14.757 -2.3491 -1.6221 -1.0957
 6429TIP3    H240779   4.102   0.649  14.889 -0.0571  2.5853 -1.0165
 6430TIP3   OH240780   0.633   0.804  16.046 -0.1589 -0.5078 -0.1745
 6430TIP3    H140781   0.596   0.876  16.097  1.4978  0.9048 -0.8823
 6430TIP3    H240782   0.604   0.821  15.956  1.3169  0.0802 -0.5726
 6431TIP3   OH240783   4.460   3.362   1.977 -0.7848 -0.3483  0.0398
 6431TIP3    H140784   4.510   3.439   1.947 -0.6707 -0.3776  0.1524
 6431TIP3    H240785   4.503   3.288   1.933  0.1344 -0.5182  1.1838
 6432TIP3   OH240786   2.137   4.701  10.270  0.2204 -0.8512  0.0902
 6432TIP3    H140787   2.216   4.736  10.229  0.5746 -0.9925  0.6418
 6432TIP3    H240788   2.169   4.650  10.344 -0.4885  1.7012  2.3217
 6433TIP3   OH240789   6.407   3.960  16.174  0.0106  0.4445 -0.4343
 6433TIP3    H140790   6.338   3.966  16.239 -0.0913  0.0446 -0.5022
 6433TIP3    H240791   6.397   3.872  16.136 -0.2674  0.8534 -1.3561
 6434TIP3   OH240792   4.781   1.281  14.153  0.3250 -0.0883  0.7457
 6434TIP3    H140793   4.821   1.302  14.069  1.5106  0.2746  1.3683
 6434TIP3    H240794   4.848   1.231  14.200 -0.2131 -0.0689  1.5670
 6435TIP3   OH240795   5.247   1.808  11.970 -0.0765  0.9293  0.0194
 6435TIP3    H140796   5.212   1.816  11.881 -1.1446 -3.1587 -0.1117
 6435TIP3    H240797   5.192   1.866  12.023 -3.5931 -1.0380 -1.1202
 6436TIP3   OH240798   2.487   0.682   3.360  0.1281  0.5418  0.1525
 6436TIP3    H140799   2.522   0.675   3.449 -2.0539  1.5441  1.1561
 6436TIP3    H240800   2.426   0.609   3.353 -1.0798  1.5169  0.1851
 6437TIP3   OH240801   1.603   1.266  14.965 -0.9309  0.6070 -0.4656
 6437TIP3    H140802   1.584   1.335  15.029  1.0175 -0.3105  1.2135
 6437TIP3    H240803   1.548   1.192  14.993 -0.3725  0.3348 -0.0713
 6438TIP3   OH240804   5.233   1.691  13.474  0.3347  1.3025  0.1321
 6438TIP3    H140805   5.153   1.679  13.525  0.4262 -1.4848 -0.2544
 6438TIP3    H240806   5.203   1.689  13.383  0.9669 -2.4985 -0.1485
 6439TIP3   OH240807   1.424   4.199   4.001  0.2483  0.5715  0.3143
 6439TIP3    H140808   1.404   4.130   3.937  0.8888  0.0555  0.6566
 6439TIP3    H240809   1.344   4.207   4.053 -0.0733  0.5801 -0.1740
 6440TIP3   OH240810   6.257   5.815  12.143  0.4006 -0.3749 -0.1832
 6440TIP3    H140811   6.167   5.792  12.165  0.1727  0.7892  0.1657
 6440TIP3    H240812   6.278   5.888  12.201  1.0086  0.4551 -1.4107
 6441TIP3   OH240813   4.118   1.742   6.165  0.0301  0.0663 -0.3768
 6441TIP3    H140814   4.106   1.647   6.167 -0.5568  0.1286 -0.5751
 6441TIP3    H240815   4.194   1.756   6.109  0.1748 -0.2898 -0.2739
 6442TIP3   OH240816   1.065   0.456   4.557 -0.1308  0.0234  0.0006
 6442TIP3    H140817   0.988   0.499   4.595  0.3987 -0.9456  2.3374
 6442TIP3    H240818   1.134   0.523   4.559 -0.8688  0.9565 -2.2798
 6443TIP3   OH240819   3.222   2.130   0.351 -0.1943 -0.0347  0.4250
 6443TIP3    H140820   3.147   2.153   0.406  0.1398  0.8946  0.5059
 6443TIP3    H240821   3.298   2.155   0.403  0.1473 -0.1231 -0.0301
 6444TIP3   OH240822   4.748   2.398   4.009 -0.0699 -0.0667 -0.2569
 6444TIP3    H140823   4.752   2.364   3.920  1.4216  1.1860 -0.7079
 6444TIP3    H240824   4.822   2.359   4.054 -0.9426 -0.8629  0.5206
 6445TIP3   OH240825   6.738   1.792  12.857  0.2075 -0.7646  0.6372
 6445TIP3    H140826   6.746   1.750  12.771 -1.7777 -1.7658  0.8671
 6445TIP3    H240827   6.655   1.758  12.891 -0.5004  1.8722  1.7206
 6446TIP3   OH240828   0.844   5.497   2.874  0.3692  0.1667  0.4742
 6446TIP3    H140829   0.901   5.433   2.916  1.2609 -0.4712 -1.5654
 6446TIP3    H240830   0.904   5.556   2.829 -0.5255  0.6520 -0.1058
 6447TIP3   OH240831   4.543   0.840   3.943  0.3452 -0.0956 -0.1810
 6447TIP3    H140832   4.550   0.892   4.022 -0.2429 -0.5074  0.1539
 6447TIP3    H240833   4.567   0.751   3.970 -0.4057 -0.3506 -0.3280
 6448TIP3   OH240834   3.194   2.936  11.008  0.3639  0.5736 -0.1389
 6448TIP3    H140835   3.112   2.910  10.967  0.1613  1.1352 -0.0938
 6448TIP3    H240836   3.256   2.942  10.935  0.4341 -0.0866 -0.1432
 6449TIP3   OH240837   3.121   1.837  15.944  0.1310 -0.3629  0.4321
 6449TIP3    H140838   3.178   1.908  15.914 -0.6058  0.2118  0.3609
 6449TIP3    H240839   3.090   1.795  15.864  3.2142 -3.0181  0.4231
 6450TIP3   OH240840   0.509   4.328   5.982 -0.3352  0.4982 -0.3920
 6450TIP3    H140841   0.568   4.307   5.910  0.1162 -0.2906  0.1961
 6450TIP3    H240842   0.443   4.259   5.981  2.2003 -2.3337  2.7123
 6451TIP3   OH240843   0.585   5.723   6.137  0.1064 -0.4362 -0.0171
 6451TIP3    H140844   0.669   5.679   6.146 -1.1433 -3.2242 -0.9464
 6451TIP3    H240845   0.534   5.692   6.212 -0.9881 -1.0396 -0.9866
 6452TIP3   OH240846   1.415   4.607   3.232  0.2104 -0.4835  0.2249
 6452TIP3    H140847   1.333   4.641   3.198  0.6712 -0.5980 -1.0697
 6452TIP3    H240848   1.457   4.682   3.273  0.1724 -0.0401 -0.5360
 6453TIP3   OH240849   5.406   2.870  10.935 -0.4029 -0.6753 -0.3364
 6453TIP3    H140850   5.327   2.859  10.882  0.1249 -1.3148 -1.0176
 6453TIP3    H240851   5.380   2.930  11.005 -1.0173  0.5078 -1.5315
 6454TIP3   OH240852   6.339   1.570   1.048  0.2313  0.3708  0.8339
 6454TIP3    H140853   6.303   1.527   0.970 -0.3005  0.3645  1.0857
 6454TIP3    H240854   6.335   1.664   1.028 -0.7494  0.4188  1.2144
 6455TIP3   OH240855   4.670   0.555  16.120 -1.1752  0.4811  0.0489
 6455TIP3    H140856   4.693   0.480  16.065 -1.1170  0.8704 -0.4623
 6455TIP3    H240857   4.753   0.580  16.162 -1.3219 -0.1503  0.7480
 6456TIP3   OH240858   3.366   0.035   3.514 -0.2405 -0.0054  0.2381
 6456TIP3    H140859   3.417   0.042   3.594 -0.3554  1.1386  0.2249
 6456TIP3    H240860   3.348  -0.059   3.505 -0.2532 -0.1456  1.5576
 6457TIP3   OH240861   0.469   4.652  16.696  0.4438 -0.3885 -0.0284
 6457TIP3    H140862   0.387   4.672  16.651 -0.8931 -0.5598  2.1926
 6457TIP3    H240863   0.514   4.589  16.638 -0.3877  0.6195 -1.8497
 6458TIP3   OH240864   4.536   3.372   1.062 -0.7948 -0.2031  0.5157
 6458TIP3    H140865   4.554   3.466   1.065 -1.3224 -0.1072  0.8586
 6458TIP3    H240866   4.544   3.349   0.970  0.7959 -0.1228  0.6051
 6459TIP3   OH240867   0.613   4.381   2.797 -0.1249  0.2856  0.1600
 6459TIP3    H140868   0.676   4.423   2.739  0.0540 -0.4197 -0.1620
 6459TIP3    H240869   0.667   4.329   2.857 -0.4022 -0.4501 -0.2208
 6460TIP3   OH240870   5.690   4.364   4.336 -0.8602  0.1037 -0.2051
 6460TIP3    H140871   5.730   4.417   4.267 -2.4639 -0.8775 -1.9933
 6460TIP3    H240872   5.732   4.394   4.417  0.7759  1.6199 -1.5299
 6461TIP3   OH240873   2.763   0.600  11.832  0.4816  0.0494 -0.4917
 6461TIP3    H140874   2.763   0.640  11.745  1.3832  1.4736  0.1286
 6461TIP3    H240875   2.692   0.536  11.829 -2.6046  3.2015 -0.9057
 6462TIP3   OH240876   6.302   6.246  15.498 -0.2447  0.0255  0.3106
 6462TIP3    H140877   6.372   6.216  15.556 -0.2097  0.8120  0.6868
 6462TIP3    H240878   6.347   6.276  15.419 -0.1058  0.9132  0.7115
 6463TIP3   OH240879   2.472   6.022  14.490 -0.2469 -0.1910  0.6177
 6463TIP3    H140880   2.491   5.929  14.496  2.9467  0.2922 -0.1211
 6463TIP3    H240881   2.432   6.044  14.574 -1.1782 -2.2227  0.7480
 6464TIP3   OH240882   6.421   2.309  13.029  0.0950 -0.4506  0.1095
 6464TIP3    H140883   6.492   2.284  12.970  1.0227  1.5022  0.3076
 6464TIP3    H240884   6.438   2.261  13.109 -0.6759 -2.4481 -0.8511
 6465TIP3   OH240885   3.156   2.562  15.908 -0.3077  0.6571 -0.4481
 6465TIP3    H140886   3.096   2.553  15.834 -1.8278 -2.4257  0.9735
 6465TIP3    H240887   3.099   2.587  15.981  0.5216 -0.0620  0.4576
 6466TIP3   OH240888   4.512   3.410   3.891  0.0323  0.2047 -0.3890
 6466TIP3    H140889   4.598   3.426   3.852  0.0960 -0.8763 -0.7263
 6466TIP3    H240890   4.514   3.317   3.917 -0.8985  0.2614 -0.0710
 6467TIP3   OH240891   6.811   4.712   1.395 -0.1186  0.1204  0.5755
 6467TIP3    H140892   6.735   4.672   1.437  0.0420 -0.2079  0.5571
 6467TIP3    H240893   6.801   4.692   1.302  1.1318 -1.8771  0.8214
 6468TIP3   OH240894   4.017   6.303  16.082 -0.1139 -0.3811  1.0792
 6468TIP3    H140895   3.963   6.278  16.007 -1.4634 -1.5406  2.3728
 6468TIP3    H240896   3.992   6.394  16.099  0.9862  0.2640 -0.4656
 6469TIP3   OH240897   4.912   2.655  12.079 -0.3665 -0.5241 -0.0360
 6469TIP3    H140898   4.971   2.687  12.148 -1.0939  0.6333  0.0817
 6469TIP3    H240899   4.968   2.601  12.023  0.2186 -1.5690  1.4902
 6470TIP3   OH240900   3.876   4.339  12.032  0.8162 -0.8898 -0.3341
 6470TIP3    H140901   3.867   4.426  11.994 -0.6727 -0.6269  0.5710
 6470TIP3    H240902   3.952   4.346  12.091  1.8440 -0.7447 -1.6139
 6471TIP3   OH240903   4.154   0.155  12.985  0.0603 -0.2883  0.2719
 6471TIP3    H140904   4.242   0.143  13.021 -0.0097  0.7070  0.7849
 6471TIP3    H240905   4.118   0.066  12.983  0.1478 -0.4464  2.4808
 6472TIP3   OH240906   6.758   4.265  13.293 -0.6206  0.0325  0.3974
 6472TIP3    H140907   6.702   4.216  13.353 -0.6141 -1.7653 -0.9488
 6472TIP3    H240908   6.725   4.242  13.206  0.2232  1.4627 -0.3333
 6473TIP3   OH240909   2.713   2.589   5.660 -0.4688 -0.1899  0.0236
 6473TIP3    H140910   2.632   2.577   5.710 -1.6686 -0.8419 -1.9667
 6473TIP3    H240911   2.765   2.512   5.680 -0.5081  0.0156  0.9703
 6474TIP3   OH240912   5.614   4.163  11.709  0.3274  0.7182  0.4716
 6474TIP3    H140913   5.698   4.168  11.663  0.6207  1.4884  1.0659
 6474TIP3    H240914   5.616   4.080  11.755 -0.6545 -0.8819 -2.1664
 6475TIP3   OH240915   1.447   5.353   0.908  0.2673  0.4679  0.5637
 6475TIP3    H140916   1.382   5.423   0.907 -0.7735 -0.4774 -0.0434
 6475TIP3    H240917   1.445   5.319   0.997 -2.1056 -1.3274 -0.0503
 6476TIP3   OH240918   1.028   0.484  14.910 -0.0404  0.3896 -0.3118
 6476TIP3    H140919   0.948   0.492  14.961  1.0190  0.9305  1.3497
 6476TIP3    H240920   1.048   0.390  14.909  0.0511  0.3970  0.4937
 6477TIP3   OH240921   4.265   5.346  16.725  0.5429 -0.1950 -0.3292
 6477TIP3    H140922   4.248   5.253  16.737 -4.6996  0.5823  0.9447
 6477TIP3    H240923   4.309   5.373  16.806  0.4912 -1.2695  0.0656
 6478TIP3   OH240924   6.231   5.201   3.440  0.5432 -0.3474  0.0362
 6478TIP3    H140925   6.202   5.273   3.496 -0.8701 -1.5697  0.9741
 6478TIP3    H240926   6.165   5.133   3.454  0.8592 -1.1788 -2.1693
 6479TIP3   OH240927   0.979   3.331   3.272 -0.0934  0.2002  0.1024
 6479TIP3    H140928   1.037   3.257   3.291 -2.8883 -2.4400 -0.9597
 6479TIP3    H240929   0.985   3.387   3.350  2.2740 -0.9422  0.8412
 6480TIP3   OH240930   1.831   4.638  12.948  0.5397  0.2524 -0.9694
 6480TIP3    H140931   1.805   4.549  12.924  0.7129  0.0143 -0.3019
 6480TIP3    H240932   1.896   4.626  13.017  1.2927  0.8733 -1.5498
 6481TIP3   OH240933   4.221   3.148  16.736 -0.5814  0.0828 -0.2580
 6481TIP3    H140934   4.149   3.192  16.783 -1.9952  0.1233 -2.3318
 6481TIP3    H240935   4.190   3.058  16.725 -0.2501  0.0595 -1.0406
 6482TIP3   OH240936   4.510   2.418  15.851  0.3651  0.4073  0.6603
 6482TIP3    H140937   4.575   2.412  15.921  0.2735  1.6719  0.8800
 6482TIP3    H240938   4.514   2.334  15.807 -0.0898 -0.7327  2.6434
 6483TIP3   OH240939   1.768   0.427  15.782 -0.1715  0.6919 -0.1501
 6483TIP3    H140940   1.673   0.430  15.773 -0.0651  0.2300 -1.8232
 6483TIP3    H240941   1.787   0.477  15.861 -1.9331 -0.7936  1.3059
 6484TIP3   OH240942   0.206   3.343   5.569 -0.3388  0.2370  0.7179
 6484TIP3    H140943   0.113   3.359   5.553 -0.5999 -1.9615 -0.3661
 6484TIP3    H240944   0.208   3.276   5.637  0.3418 -0.9343 -0.3950
 6485TIP3   OH240945   1.650   1.491  13.453 -0.0556  0.4247 -0.3280
 6485TIP3    H140946   1.668   1.504  13.546 -2.4745  0.8547  0.1343
 6485TIP3    H240947   1.624   1.399  13.446 -4.4908  1.4139  0.3872
 6486TIP3   OH240948   0.449   0.675   6.478  0.1855 -0.2007 -0.1651
 6486TIP3    H140949   0.542   0.693   6.490 -0.1576  1.3448  0.3335
 6486TIP3    H240950   0.435   0.590   6.521  0.7223  1.1115  2.7930
 6487TIP3   OH240951   6.785   2.027  11.128  0.0450  0.1481 -0.1716
 6487TIP3    H140952   6.842   2.084  11.077 -1.1885  1.0146 -0.6435
 6487TIP3    H240953   6.753   1.963  11.065 -1.4174  1.1707 -0.5193
 6488TIP3   OH240954   0.669   3.367   0.502 -0.1852 -0.0360  0.4511
 6488TIP3    H140955   0.672   3.298   0.436  0.8764 -0.5529  1.0163
 6488TIP3    H240956   0.690   3.447   0.454 -2.4333  0.1118 -0.4175
 6489TIP3   OH240957   1.775   5.331  12.837 -0.4610  0.3383  0.0149
 6489TIP3    H140958   1.794   5.278  12.914 -0.6932 -0.6699 -0.6114
 6489TIP3    H240959   1.857   5.331  12.787 -0.1888  1.3103  0.4241
 6490TIP3   OH240960   5.667   1.756   0.657 -0.2100  0.2343 -0.2695
 6490TIP3    H140961   5.588   1.726   0.612 -0.9666  2.3857 -0.5143
 6490TIP3    H240962   5.712   1.676   0.683 -1.0529 -1.0876 -2.5536
 6491TIP3   OH240963   3.290   4.941   1.838  0.8081 -0.6890 -0.6162
 6491TIP3    H140964   3.233   4.871   1.870 -0.2605  0.6156  0.4771
 6491TIP3    H240965   3.339   4.902   1.766 -0.3682 -2.2995 -0.5823
 6492TIP3   OH240966   5.714   3.973  11.167 -0.0945  0.1739 -0.2287
 6492TIP3    H140967   5.698   4.009  11.080 -2.0973 -1.0183 -0.4240
 6492TIP3    H240968   5.744   3.884  11.151  1.8664  0.6957  0.2983
 6493TIP3   OH240969   1.031   5.575  16.711  0.3371 -0.0168 -0.0040
 6493TIP3    H140970   0.974   5.630  16.765 -0.1295 -1.3237  0.8695
 6493TIP3    H240971   1.007   5.597  16.621 -1.0732 -0.0508  0.3501
 6494TIP3   OH240972   1.378   4.200  15.690  0.5599 -0.0892 -0.0979
 6494TIP3    H140973   1.449   4.264  15.679  0.6534 -0.4115 -1.4794
 6494TIP3    H240974   1.349   4.212  15.781  1.0508  1.4233 -0.1162
 6495TIP3   OH240975   2.439   0.090   6.023 -0.2574 -0.0311 -0.1416
 6495TIP3    H140976   2.483   0.033   6.086  0.1024  0.1601 -0.2193
 6495TIP3    H240977   2.348   0.059   6.022 -0.2304 -0.1337  0.3550
 6496TIP3   OH240978   2.651   6.145   1.149  0.4221 -0.0561 -0.1987
 6496TIP3    H140979   2.620   6.073   1.204  0.8043  0.3975  0.6260
 6496TIP3    H240980   2.611   6.128   1.063 -1.6254  0.1947  0.6522
 6497TIP3   OH240981   1.090   3.477   1.971 -0.1233  0.0047 -0.2708
 6497TIP3    H140982   1.044   3.527   2.039 -0.2936 -1.7056  0.9386
 6497TIP3    H240983   1.123   3.400   2.016 -1.5059 -1.9532 -2.3934
 6498TIP3   OH240984   4.303   2.890  13.656  0.0040 -0.0363  0.2029
 6498TIP3    H140985   4.292   2.931  13.570  0.4031 -2.0228 -0.8576
 6498TIP3    H240986   4.396   2.898  13.674  0.8320 -3.3475 -1.6776
 6499TIP3   OH240987   6.068   3.654  16.818 -0.3854  0.0934  0.0333
 6499TIP3    H140988   6.071   3.583  16.882  0.1855 -0.9355 -1.1214
 6499TIP3    H240989   6.066   3.734  16.872  1.1919 -0.7004  1.3340
 6500TIP3   OH240990   6.433   2.699  14.326  0.2666 -0.2404  0.0602
 6500TIP3    H140991   6.469   2.675  14.411 -2.4289 -0.5924  1.1970
 6500TIP3    H240992   6.363   2.761  14.346 -1.0924 -1.0732 -1.7612
 6501TIP3   OH240993   4.581   5.800  12.964 -0.0172 -0.2577  0.1189
 6501TIP3    H140994   4.580   5.809  12.868  0.0543 -1.4064 -0.0100
 6501TIP3    H240995   4.637   5.871  12.994  1.5947 -1.0291 -0.8630
 6502TIP3   OH240996   3.369   5.704  14.663  0.6595 -0.1216 -0.4320
 6502TIP3    H140997   3.327   5.727  14.580  2.5080  0.3687 -1.2812
 6502TIP3    H240998   3.462   5.697  14.642  1.5793  2.5472  2.0586
 6503TIP3   OH240999   5.010   4.418  13.852 -0.1579  0.0679  0.1218
 6503TIP3    H141000   5.100   4.386  13.862 -0.2723 -1.6753 -3.0602
 6503TIP3    H241001   4.956   4.350  13.893 -0.1755 -1.8367 -2.7936
 6504TIP3   OH241002   0.672   0.466   4.629 -0.1516  0.1733  0.1573
 6504TIP3    H141003   0.640   0.412   4.557  0.6574 -0.7148  0.4440
 6504TIP3    H241004   0.684   0.404   4.701  1.2605  0.6439  0.3504
 6505TIP3   OH241005   2.462   5.615   4.018 -0.6503 -0.0940 -0.6455
 6505TIP3    H141006   2.433   5.700   3.984  1.1561  0.3096 -1.2434
 6505TIP3    H241007   2.522   5.582   3.952 -0.6185 -1.4339  0.0289
 6506TIP3   OH241008   2.689   6.233  12.443  0.1796 -0.7028 -0.3576
 6506TIP3    H141009   2.634   6.252  12.519  2.0268 -1.4519  1.2822
 6506TIP3    H241010   2.671   6.303  12.381 -0.2472  0.8640  1.4508
 6507TIP3   OH241011   3.755   6.231  11.332 -0.4582 -0.5910 -0.8308
 6507TIP3    H141012   3.754   6.145  11.374 -0.4826 -1.7053 -2.9487
 6507TIP3    H241013   3.835   6.273  11.365 -1.4998 -0.5160  1.8264
 6508TIP3   OH241014   5.627   3.939  14.364  0.4710 -0.0897 -0.4641
 6508TIP3    H141015   5.664   3.977  14.284  0.3182  0.2489 -0.3750
 6508TIP3    H241016   5.595   3.853  14.337 -1.8337  0.9695 -1.3673
 6509TIP3   OH241017   0.187   0.557   1.087 -0.2187  0.3381  0.3319
 6509TIP3    H141018   0.101   0.526   1.116 -0.0129  1.1018  1.8386
 6509TIP3    H241019   0.169   0.645   1.052 -0.1194  0.2810  0.1340
 6510TIP3   OH241020   1.642   5.536  15.879  0.0836  0.1222  0.4957
 6510TIP3    H141021   1.710   5.597  15.909  0.0483  0.1159  0.5884
 6510TIP3    H241022   1.610   5.574  15.797  0.4642 -0.0738  0.2518
 6511TIP3   OH241023   1.001   2.412   0.186 -0.4733  0.1464 -0.1118
 6511TIP3    H141024   1.010   2.317   0.185 -2.0899 -0.0396 -0.2531
 6511TIP3    H241025   1.088   2.445   0.163 -0.7482 -1.3798 -4.3274
 6512TIP3   OH241026   6.440   2.536   6.351  0.4293  0.3495 -0.2695
 6512TIP3    H141027   6.496   2.459   6.361 -0.5969 -0.4561 -0.5238
 6512TIP3    H241028   6.408   2.530   6.261 -1.1148  0.0407  0.2666
 6513TIP3   OH241029   0.793   6.493  15.460 -0.1854  0.0734 -0.0211
 6513TIP3    H141030   0.812   6.528  15.373 -2.8424  0.3477 -0.6026
 6513TIP3    H241031   0.753   6.408  15.443  2.9868 -1.8147  1.2252
 6514TIP3   OH241032   2.712   4.162  16.774  0.4411  0.3969  0.4274
 6514TIP3    H141033   2.657   4.231  16.811  0.5866 -0.5558  2.5959
 6514TIP3    H241034   2.655   4.085  16.773  0.6743  0.2237 -0.7361
 6515TIP3   OH241035   2.830   5.832  13.959  0.2231  0.3724 -0.3940
 6515TIP3    H141036   2.778   5.890  13.902 -1.1019  2.0717  2.3018
 6515TIP3    H241037   2.765   5.787  14.012  1.4002 -1.2373 -0.2572
 6516TIP3   OH241038   3.545   2.979  16.992  0.0954  0.6983  0.2301
 6516TIP3    H141039   3.523   2.903  17.046 -1.1879  0.2809 -0.8184
 6516TIP3    H241040   3.462   3.027  16.983  0.4095  1.0680 -0.8748
 6517TIP3   OH241041   1.200   4.948  12.450  0.1464 -0.3898 -0.1913
 6517TIP3    H141042   1.270   4.957  12.385  0.4998 -0.3307  0.1898
 6517TIP3    H241043   1.245   4.917  12.529 -0.2254 -0.1422  0.1218
 6518TIP3   OH241044   5.563   4.822  11.491 -0.2119 -0.6171  0.2901
 6518TIP3    H141045   5.491   4.871  11.450 -0.1355  0.4721  1.3905
 6518TIP3    H241046   5.628   4.889  11.511 -0.2879 -1.0795  2.2453
 6519TIP3   OH241047   5.275   5.522   2.461 -0.0913  0.2411  0.2521
 6519TIP3    H141048   5.239   5.513   2.549  0.4017 -1.1060  0.3381
 6519TIP3    H241049   5.204   5.562   2.410 -0.5439  0.6005  1.1463
 6520TIP3   OH241050   2.179   5.075   1.783  0.5280 -0.0100 -0.0363
 6520TIP3    H141051   2.228   5.016   1.726 -0.2975 -0.2833 -0.4778
 6520TIP3    H241052   2.126   5.127   1.723 -0.3915 -0.3391  0.4777
 6521TIP3   OH241053   1.307   6.485   1.983 -0.0555  0.0167 -0.7045
 6521TIP3    H141054   1.278   6.553   1.922 -0.9009  0.0474 -0.2806
 6521TIP3    H241055   1.240   6.484   2.052  0.5521 -0.4571 -0.1107
 6522TIP3   OH241056   1.812   0.602  12.349  0.5273  0.6338 -0.5375
 6522TIP3    H141057   1.847   0.642  12.429  2.5075 -0.9415 -0.5322
 6522TIP3    H241058   1.862   0.643  12.278  0.9768 -0.1606 -0.6963
 6523TIP3   OH241059   3.866   2.312   6.590  0.0831  0.2745 -0.0159
 6523TIP3    H141060   3.859   2.250   6.517 -2.8978  0.2510  0.1500
 6523TIP3    H241061   3.864   2.398   6.548 -0.2718  0.2507 -0.0554
 6524TIP3   OH241062   3.297   5.109  16.121  0.2416  0.3815 -0.5409
 6524TIP3    H141063   3.384   5.123  16.084  0.0030  0.4560 -1.0722
 6524TIP3    H241064   3.250   5.191  16.106  0.9976  1.4615  2.3645
 6525TIP3   OH241065   1.665   2.165   4.205  0.2008  0.1658  0.5857
 6525TIP3    H141066   1.587   2.172   4.149  1.6477 -2.0483 -1.9512
 6525TIP3    H241067   1.633   2.182   4.294 -2.9640  0.2243 -0.4551
 6526TIP3   OH241068   6.068   2.458   4.538  0.2421 -0.7539  0.2552
 6526TIP3    H141069   6.034   2.374   4.569 -0.1348 -0.8512 -0.3959
 6526TIP3    H241070   6.132   2.436   4.471 -1.7428 -0.5389 -1.8503
 6527TIP3   OH241071   5.864   3.075  12.359 -0.4099 -0.6228 -0.1174
 6527TIP3    H141072   5.781   3.069  12.406  0.1016 -0.0943  0.8719
 6527TIP3    H241073   5.882   3.169  12.355  0.3053 -0.7534 -0.0359
 6528TIP3   OH241074   2.595   4.279  13.705  0.9359  0.3578  0.3720
 6528TIP3    H141075   2.564   4.190  13.686 -0.1006  0.4283  1.6221
 6528TIP3    H241076   2.623   4.313  13.620 -0.4838 -0.4789 -0.4661
 6529TIP3   OH241077   0.547   3.293  11.503 -0.4668 -0.2522  0.1160
 6529TIP3    H141078   0.507   3.367  11.458 -0.1854  1.3787  2.3666
 6529TIP3    H241079   0.631   3.279  11.458 -1.0937 -0.0768 -1.1328
 6530TIP3   OH241080   1.491   6.664  17.151 -0.5928  0.0421 -0.1938
 6530TIP3    H141081   1.545   6.605  17.205 -1.4435  0.4924  1.1940
 6530TIP3    H241082   1.401   6.636  17.168 -0.8670 -1.1853 -3.0512
 6531TIP3   OH241083   4.577   0.711  15.097 -0.2944 -0.0383 -0.0570
 6531TIP3    H141084   4.553   0.740  15.185  1.1971  1.2518 -0.0395
 6531TIP3    H241085   4.586   0.616  15.104  0.4321  0.1121  1.3615
 6532TIP3   OH241086   4.901   1.831  16.563 -0.3254 -0.0854 -0.3750
 6532TIP3    H141087   4.969   1.827  16.630  0.2642  1.4304 -0.8294
 6532TIP3    H241088   4.918   1.755  16.507 -0.6067 -1.1507  0.9619
 6533TIP3   OH241089   4.101   5.028   3.511 -0.0136 -0.0153 -0.3678
 6533TIP3    H141090   4.035   5.017   3.443  0.5898  2.5173 -1.4859
 6533TIP3    H241091   4.185   5.016   3.465  0.3565 -0.0932  0.3164
 6534TIP3   OH241092   4.305   2.369  14.404 -0.7353 -0.0723 -0.5983
 6534TIP3    H141093   4.309   2.273  14.414  1.2447 -0.3165 -2.8071
 6534TIP3    H241094   4.396   2.397  14.413 -0.7563  1.1464 -3.3896
 6535TIP3   OH241095   3.843   6.440   5.645 -0.3896 -0.2646 -0.0159
 6535TIP3    H141096   3.756   6.399   5.650 -0.4715 -0.1549 -0.4930
 6535TIP3    H241097   3.839   6.512   5.707 -0.0080 -1.3899  1.3742
 6536TIP3   OH241098   4.953   5.994   3.461  0.2491 -0.2439 -0.2254
 6536TIP3    H141099   4.975   6.064   3.523 -0.6367 -1.0095  0.9848
 6536TIP3    H241100   4.859   6.002   3.447  0.3331 -0.4860 -0.9755
 6537TIP3   OH241101   3.245   0.717   1.332  0.2347  0.0195  0.6876
 6537TIP3    H141102   3.257   0.693   1.424  0.0654  1.9099  1.2514
 6537TIP3    H241103   3.263   0.636   1.284 -0.3413 -1.1878  2.4005
 6538TIP3   OH241104   0.468   3.542  17.164  0.1949 -0.1458  0.2363
 6538TIP3    H141105   0.489   3.510  17.252 -1.8909 -0.6580  0.5953
 6538TIP3    H241106   0.379   3.577  17.171  0.1787  0.2806 -1.5477
 6539TIP3   OH241107   6.769   5.732   2.452  0.8610 -0.3948  0.1279
 6539TIP3    H141108   6.847   5.780   2.480 -1.4011  3.9819 -0.0851
 6539TIP3    H241109   6.710   5.735   2.527 -0.6920  0.4967 -1.0473
 6540TIP3   OH241110   0.526   5.043   2.400 -0.3019 -0.1425  0.5618
 6540TIP3    H141111   0.451   5.060   2.343  0.1869  0.3909  0.0511
 6540TIP3    H241112   0.507   5.092   2.480 -0.2102  0.5189  0.1862
 6541TIP3   OH241113   1.918   0.961   3.544 -0.2641 -0.3948 -0.1606
 6541TIP3    H141114   1.973   1.032   3.575 -1.7481 -0.8183  4.0734
 6541TIP3    H241115   1.917   0.971   3.449  1.1552  3.9892  0.0668
 6542TIP3   OH241116   0.501   0.781  15.363  0.0383  0.3893 -0.5623
 6542TIP3    H141117   0.484   0.718  15.434  4.3375  0.7827  1.1450
 6542TIP3    H241118   0.448   0.857  15.387 -2.3815 -1.1302 -0.6256
 6543TIP3   OH241119   6.688   1.525   5.284  0.1342 -0.0331  0.2824
 6543TIP3    H141120   6.777   1.522   5.321  2.1162  2.6535 -3.5696
 6543TIP3    H241121   6.678   1.441   5.238  2.1041  0.7348 -1.7506
 6544TIP3   OH241122   1.295   1.560   3.390  0.1828  0.4445  0.3073
 6544TIP3    H141123   1.388   1.560   3.367 -0.1427 -0.5558 -1.1175
 6544TIP3    H241124   1.262   1.643   3.356  0.2811  0.1997 -0.3978
 6545TIP3   OH241125   5.182   4.104  14.793 -0.0051 -0.4158 -0.1286
 6545TIP3    H141126   5.131   4.085  14.714  0.7083 -0.8504 -0.4961
 6545TIP3    H241127   5.117   4.130  14.858 -0.4973  1.0966 -1.1916
 6546TIP3   OH241128   3.941   3.110  12.276  0.3444  0.3586  1.0794
 6546TIP3    H141129   3.914   3.168  12.347  1.7417 -1.9957  3.7590
 6546TIP3    H241130   3.860   3.065  12.251 -0.5786  2.6632 -0.4409
 6547TIP3   OH241131   6.686   5.261   2.837  0.8510  0.2581 -0.0071
 6547TIP3    H141132   6.605   5.264   2.887  0.1864 -0.0889 -1.0179
 6547TIP3    H241133   6.698   5.168   2.816  1.4648  0.3155  0.0629
 6548TIP3   OH241134   2.414   1.902   0.214 -0.5555 -0.3023 -0.3072
 6548TIP3    H141135   2.358   1.861   0.147  0.1445 -0.4505 -0.8187
 6548TIP3    H241136   2.470   1.962   0.164  0.4437 -0.9096  0.0437
 6549TIP3   OH241137   3.058   2.150   4.754  0.2678  0.0462 -0.3911
 6549TIP3    H141138   3.104   2.073   4.788  0.4105 -0.4744 -1.7173
 6549TIP3    H241139   2.978   2.115   4.714 -0.5991  0.7971  0.6058
 6550TIP3   OH241140   2.032   6.462  11.717  0.0284  0.5186 -0.3925
 6550TIP3    H141141   1.949   6.487  11.676  0.4344  0.3076 -1.3594
 6550TIP3    H241142   2.092   6.448  11.644  0.0486 -2.5002  0.0697
 6551TIP3   OH241143   1.086   3.403   1.699  0.8185 -0.6871 -0.0174
 6551TIP3    H141144   1.089   3.448   1.783  0.9328 -2.0829  0.7640
 6551TIP3    H241145   1.177   3.397   1.671  0.7651 -0.0780 -0.3195
 6552TIP3   OH241146   1.088   1.244   4.041 -0.0872 -0.2644 -0.4078
 6552TIP3    H141147   1.167   1.208   4.081  1.5998  2.5265 -0.9850
 6552TIP3    H241148   1.109   1.336   4.025 -4.1708  1.2369  1.3835
 6553TIP3   OH241149   5.491   6.524   2.582  0.4943  0.7259  0.2121
 6553TIP3    H141150   5.439   6.496   2.658 -0.4430  1.2977 -0.2080
 6553TIP3    H241151   5.540   6.600   2.613 -0.8712  1.7578 -0.1102
 6554TIP3   OH241152   4.168   5.903  11.012 -0.4770  0.0978 -0.1433
 6554TIP3    H141153   4.213   5.818  11.010  1.2036  0.9751 -1.9296
 6554TIP3    H241154   4.075   5.881  11.000 -0.1692 -1.5222  0.1682
 6555TIP3   OH241155   5.101   4.575  11.125 -0.6359  0.2988 -0.4204
 6555TIP3    H141156   5.013   4.543  11.106 -0.5445 -1.0950  1.3201
 6555TIP3    H241157   5.115   4.557  11.218  1.2895  0.9991 -0.5132
 6556TIP3   OH241158   6.259   6.404   2.113  0.4605 -0.3219 -0.0931
 6556TIP3    H141159   6.233   6.496   2.107  0.0259 -0.3959  0.5594
 6556TIP3    H241160   6.266   6.387   2.206  0.8545 -0.8682 -0.2187
 6557TIP3   OH241161   1.066   5.120   4.458 -0.2640  0.5353  0.3597
 6557TIP3    H141162   1.088   5.027   4.460 -2.6779 -0.1070  0.2190
 6557TIP3    H241163   0.998   5.130   4.525 -0.4668  2.0868 -0.0341
 6558TIP3   OH241164   0.636   2.655  17.169  0.3728 -0.3164 -0.1324
 6558TIP3    H141165   0.573   2.725  17.190  1.3408  0.3110  0.8077
 6558TIP3    H241166   0.597   2.576  17.205  0.0681  0.0553  0.3750
 6559TIP3   OH241167   3.370   0.239  14.911  0.5540 -0.5306 -0.0579
 6559TIP3    H141168   3.443   0.271  14.858  1.8979  1.0411  2.5499
 6559TIP3    H241169   3.345   0.313  14.966 -2.9020 -1.0981 -0.6276
 6560TIP3   OH241170   1.499   5.037  15.614  0.5908 -0.4930 -0.0704
 6560TIP3    H141171   1.416   5.040  15.660  0.2953 -1.8693 -0.4671
 6560TIP3    H241172   1.535   5.125  15.624 -1.0511  0.2321 -0.1683
 6561TIP3   OH241173   6.548   3.901  11.300 -0.3271 -0.1044 -0.1553
 6561TIP3    H141174   6.464   3.896  11.345 -0.5597 -3.5395 -0.7331
 6561TIP3    H241175   6.584   3.986  11.326 -3.2743  0.8323  1.2846
 6562TIP3   OH241176   4.831   1.970  15.758 -0.0510  0.2445  0.1666
 6562TIP3    H141177   4.838   2.063  15.735 -2.7391  0.3591 -0.4915
 6562TIP3    H241178   4.786   1.970  15.843  0.5326 -0.4602  0.4895
 6563TIP3   OH241179   3.151   1.656   1.022  0.2816  0.5592 -0.2515
 6563TIP3    H141180   3.135   1.722   1.090  1.1886  0.4359  0.0948
 6563TIP3    H241181   3.119   1.696   0.941 -1.1235  0.5778  0.2847
 6564TIP3   OH241182   2.966   4.821  12.591  0.7060 -0.0805 -0.1731
 6564TIP3    H141183   3.047   4.837  12.543  1.2463 -1.2829  0.3162
 6564TIP3    H241184   2.994   4.800  12.680 -0.1746 -0.0544  0.1276
 6565TIP3   OH241185   2.145   4.607  12.487  0.0171 -0.4810 -0.1608
 6565TIP3    H141186   2.087   4.648  12.423  1.0833  0.1123 -0.7614
 6565TIP3    H241187   2.209   4.558  12.435  0.2733 -0.8593  0.4839
 6566TIP3   OH241188   2.505   5.127   2.628 -0.0513  0.3484 -0.6261
 6566TIP3    H141189   2.428   5.175   2.659 -0.5989 -0.9790  0.1656
 6566TIP3    H241190   2.472   5.039   2.608  1.2485 -0.2395 -0.2950
 6567TIP3   OH241191   2.540   2.856   2.586  0.3563  0.1587 -0.2168
 6567TIP3    H141192   2.539   2.809   2.502  0.5690 -0.1634 -0.0420
 6567TIP3    H241193   2.572   2.943   2.565  1.9407 -0.3993 -0.2260
 6568TIP3   OH241194   1.469   5.192  11.104  0.3868  0.3797 -0.2906
 6568TIP3    H141195   1.435   5.158  11.022  0.8287 -0.4437 -0.1414
 6568TIP3    H241196   1.465   5.118  11.164  2.1600  0.3191 -0.1963
 6569TIP3   OH241197   3.624   1.807  12.002  0.4711  0.1043 -0.3438
 6569TIP3    H141198   3.621   1.807  12.097  0.4456  0.3255 -0.3449
 6569TIP3    H241199   3.598   1.719  11.977  1.4636 -0.2656 -0.1126
 6570TIP3   OH241200   2.767   6.189   5.368  0.4504 -0.4635 -0.3433
 6570TIP3    H141201   2.836   6.225   5.423  2.7876 -1.1206 -2.6476
 6570TIP3    H241202   2.798   6.102   5.343 -1.0239 -0.6462 -1.7502
 6571TIP3   OH241203   2.353   6.257  10.537  0.2000 -0.2430 -0.0510
 6571TIP3    H141204   2.364   6.342  10.495 -0.2109  0.4291  1.1518
 6571TIP3    H241205   2.418   6.255  10.606  0.7941 -1.2873 -0.6151
 6572TIP3   OH241206   5.481   0.295  15.855  0.3269  0.4991  0.0699
 6572TIP3    H141207   5.522   0.240  15.788  0.5512 -0.7305  1.1673
 6572TIP3    H241208   5.505   0.253  15.938 -1.8664  0.5983  0.8251
 6573TIP3   OH241209   3.167   0.192   5.833  0.3416 -0.1488  0.2531
 6573TIP3    H141210   3.149   0.100   5.853  0.6831 -0.2063  0.2882
 6573TIP3    H241211   3.084   0.237   5.853 -0.2537 -0.6278 -0.9980
 6574TIP3   OH241212   2.740   5.546  16.316 -0.3851 -0.3171 -0.1459
 6574TIP3    H141213   2.723   5.637  16.339 -1.0377 -0.5125  0.1612
 6574TIP3    H241214   2.835   5.541  16.306 -0.4202  0.6012 -1.0686
 6575TIP3   OH241215   1.755   1.425   1.554  0.2187 -0.1915 -0.5935
 6575TIP3    H141216   1.741   1.400   1.462  2.0337 -4.1433 -0.0472
 6575TIP3    H241217   1.850   1.433   1.562  0.0993  0.0198  0.9317
 6576TIP3   OH241218   4.254   6.565   2.289 -0.2530 -0.2008  0.0990
 6576TIP3    H141219   4.344   6.567   2.321 -0.2136 -0.5838  0.0185
 6576TIP3    H241220   4.262   6.561   2.194 -0.3804  2.2374 -0.0740
 6577TIP3   OH241221   6.400   4.711   6.346  0.0809 -0.1294 -0.4456
 6577TIP3    H141222   6.353   4.786   6.384 -0.6033 -1.1655  0.8342
 6577TIP3    H241223   6.461   4.684   6.414 -0.7720 -1.6712 -0.2407
 6578TIP3   OH241224   5.839   3.131  17.007  0.3803 -0.1277  0.4179
 6578TIP3    H141225   5.932   3.113  16.997  0.4640  0.0495  0.8579
 6578TIP3    H241226   5.811   3.073  17.078  0.1345 -0.2433  0.2291
 6579TIP3   OH241227   4.588   1.126   4.552  0.0332 -0.1763 -0.6546
 6579TIP3    H141228   4.674   1.159   4.524  0.7336 -0.4181  1.0588
 6579TIP3    H241229   4.564   1.182   4.626 -0.5641 -1.0701 -0.1553
 6580TIP3   OH241230   4.303   3.807  14.915 -0.4700  0.1914  0.3373
 6580TIP3    H141231   4.315   3.817  14.821  0.5421  1.1397  0.5489
 6580TIP3    H241232   4.239   3.736  14.924  0.9874 -1.3681 -1.0149
 6581TIP3   OH241233   4.024   0.030   1.894 -0.5795 -0.4234 -0.0438
 6581TIP3    H141234   4.094  -0.035   1.897 -0.7450 -0.5807  0.4984
 6581TIP3    H241235   4.003   0.047   1.986  0.0298  1.0186 -0.1486
 6582TIP3   OH241236   0.142   1.918   2.435  0.0729 -0.1122 -0.4329
 6582TIP3    H141237   0.224   1.966   2.446  0.0908 -0.2540  0.0451
 6582TIP3    H241238   0.092   1.970   2.371  0.1699  0.4442 -0.0549
 6583TIP3   OH241239   5.223   2.457   1.445  0.5016  0.0489 -0.3961
 6583TIP3    H141240   5.264   2.370   1.445 -1.1469 -0.7742 -0.7857
 6583TIP3    H241241   5.190   2.468   1.534 -0.1956 -0.1909 -0.6183
 6584TIP3   OH241242   6.096   1.656   5.261  0.2014 -0.2700 -0.7067
 6584TIP3    H141243   6.130   1.573   5.294  0.0058  0.3689  1.2395
 6584TIP3    H241244   6.082   1.709   5.339 -1.1575  1.0552 -1.7826
 6585TIP3   OH241245   5.135   4.842  15.691  0.0947 -0.1111 -0.9391
 6585TIP3    H141246   5.159   4.823  15.600 -0.0133  0.0327 -0.9984
 6585TIP3    H241247   5.130   4.757  15.733 -1.7957 -0.3541 -1.5572
 6586TIP3   OH241248   5.662   4.092   5.433  0.0917 -0.2440 -0.2837
 6586TIP3    H141249   5.700   4.149   5.367  0.0039  0.9855  0.7028
 6586TIP3    H241250   5.622   4.151   5.497 -2.6392 -1.4375 -0.7514
 6587TIP3   OH241251   4.470   1.230   1.262 -0.1979 -0.3882  0.1174
 6587TIP3    H141252   4.406   1.159   1.264 -1.0180  0.2824 -0.9388
 6587TIP3    H241253   4.524   1.211   1.185 -0.9792  0.5542 -0.7020
 6588TIP3   OH241254   5.152   3.580   1.305  0.2171  0.1356 -0.8205
 6588TIP3    H141255   5.100   3.595   1.226  0.3586  0.6473 -0.8190
 6588TIP3    H241256   5.165   3.485   1.308  0.1668  0.1095 -1.3828
 6589TIP3   OH241257   5.065   2.897   0.389 -0.5120 -0.0725  0.0086
 6589TIP3    H141258   5.002   2.888   0.318 -0.7851 -0.4016  0.2917
 6589TIP3    H241259   5.013   2.895   0.469 -0.6703  3.7934  0.2142
 6590TIP3   OH241260   5.348   0.580  14.647 -0.3091  0.5584 -0.0492
 6590TIP3    H141261   5.326   0.503  14.698 -1.1965 -0.7574 -2.2589
 6590TIP3    H241262   5.429   0.557  14.602 -1.0459  0.5057 -1.4098
 6591TIP3   OH241263   4.898   1.866   3.092 -0.4771 -0.0561 -0.6289
 6591TIP3    H141264   4.927   1.858   3.001  1.9765 -0.2547  0.0873
 6591TIP3    H241265   4.879   1.959   3.103 -0.9574 -0.0568 -1.3717
 6592TIP3   OH241266   3.629   4.044   6.701 -0.5291 -0.2193  0.3400
 6592TIP3    H141267   3.675   4.128   6.698 -0.0051 -0.5381 -1.0916
 6592TIP3    H241268   3.697   3.978   6.691 -1.2235 -0.7023 -1.7475
 6593TIP3   OH241269   2.717   2.740  13.228  0.5144  0.1319  0.0438
 6593TIP3    H141270   2.674   2.798  13.291  1.9738 -0.3653  1.5870
 6593TIP3    H241271   2.687   2.771  13.143  1.4084  3.3850  0.7698
 6594TIP3   OH241272   0.408   4.125   0.658  0.3116 -0.7154 -0.5313
 6594TIP3    H141273   0.421   4.060   0.589  0.4613 -0.4144 -0.7890
 6594TIP3    H241274   0.454   4.203   0.627 -0.5583 -0.2227 -0.6141
 6595TIP3   OH241275   3.869   4.718   2.593 -0.0457 -0.8765  0.0153
 6595TIP3    H141276   3.867   4.801   2.545  0.0602  0.4752  2.1760
 6595TIP3    H241277   3.779   4.687   2.592 -0.7378  0.8709  1.6673
 6596TIP3   OH241278   2.343   3.364   2.858  0.0029  0.0369  0.4787
 6596TIP3    H141279   2.347   3.410   2.942  1.9082 -0.5401  0.7560
 6596TIP3    H241280   2.332   3.272   2.882  0.3877 -0.1108  0.0952
 6597TIP3   OH241281   0.932   3.604   2.164  0.4358 -0.3686 -0.0037
 6597TIP3    H141282   0.973   3.668   2.222  1.1976 -2.1591  1.5063
 6597TIP3    H241283   0.848   3.644   2.141  0.3779  0.6771  1.8393
 6598TIP3   OH241284   3.240   2.148   6.198 -0.2318  0.0479 -0.4293
 6598TIP3    H141285   3.178   2.205   6.244 -0.3401  0.1707 -0.7270
 6598TIP3    H241286   3.209   2.060   6.216 -1.0519  0.1292 -1.3457
 6599TIP3   OH241287   6.139   3.452   2.763 -0.8767  0.0953  0.1443
 6599TIP3    H141288   6.049   3.453   2.730 -0.6967 -1.6058 -0.4857
 6599TIP3    H241289   6.176   3.536   2.733 -1.8704  0.2538 -0.6893
 6600TIP3   OH241290   0.017   2.027  13.792  0.6079 -0.4929 -0.4704
 6600TIP3    H141291   0.077   2.079  13.738 -0.0469  0.1487 -0.5933
 6600TIP3    H241292   0.074   1.985  13.857  0.9308  2.2983  1.1944
 6601TIP3   OH241293   1.080   3.936  13.215  0.3772  0.6006  0.1694
 6601TIP3    H141294   0.994   3.935  13.255  0.0799  2.3949 -0.3509
 6601TIP3    H241295   1.141   3.935  13.289 -0.1319  1.6728  0.6242
 6602TIP3   OH241296   4.329   2.677  16.310  0.0203  0.2477  0.3412
 6602TIP3    H141297   4.342   2.680  16.404  0.4033  0.2447  0.2865
 6602TIP3    H241298   4.414   2.698  16.272 -0.2032  0.5473 -0.0045
 6603TIP3   OH241299   5.702   6.555  13.730 -0.8019 -0.2294  0.3471
 6603TIP3    H141300   5.702   6.498  13.653 -2.6866  0.5273 -0.2705
 6603TIP3    H241301   5.787   6.540  13.771  0.7966  0.1998 -2.5243
 6604TIP3   OH241302   5.769   6.353  14.611 -0.0514  0.0416 -0.4528
 6604TIP3    H141303   5.815   6.393  14.536  0.0936  1.7208  0.4934
 6604TIP3    H241304   5.693   6.409  14.626  0.4859  0.3616  1.3033
 6605TIP3   OH241305   3.265   5.648   5.939 -0.0505 -0.3235  0.3692
 6605TIP3    H141306   3.202   5.594   5.892 -0.1631  0.2441 -0.1482
 6605TIP3    H241307   3.236   5.646   6.030 -1.1509  0.3848  0.0476
 6606TIP3   OH241308   4.911   3.369  15.604 -0.1552 -0.0516 -0.2388
 6606TIP3    H141309   4.895   3.462  15.618  0.6787  0.1142 -0.3827
 6606TIP3    H241310   4.870   3.326  15.680  3.0828  0.7335  2.1911
 6607TIP3   OH241311   0.481   3.722  14.536 -0.0994  0.0834  0.3058
 6607TIP3    H141312   0.454   3.653  14.475  0.7698 -1.2692  1.3966
 6607TIP3    H241313   0.510   3.675  14.614  1.1313  1.6507  0.8466
 6608TIP3   OH241314   0.859   1.890   2.465  0.2305  0.3787 -1.1355
 6608TIP3    H141315   0.847   1.797   2.447 -1.2739  0.5340 -1.0762
 6608TIP3    H241316   0.776   1.930   2.440  0.7053  1.6485 -0.7563
 6609TIP3   OH241317   4.899   1.150   0.265  0.1238 -0.3294  0.1264
 6609TIP3    H141318   4.986   1.121   0.290 -0.5038 -0.7418  1.9560
 6609TIP3    H241319   4.886   1.114   0.177  1.5847 -0.6917  0.0432
 6610TIP3   OH241320   4.498   3.165   0.817 -0.0918 -0.0495 -0.2726
 6610TIP3    H141321   4.559   3.145   0.746 -1.2412 -2.2201 -0.7305
 6610TIP3    H241322   4.544   3.139   0.896 -0.1507 -1.1170 -0.5679
 6611TIP3   OH241323   4.539   5.878   5.016 -0.1203  0.0804  0.1509
 6611TIP3    H141324   4.569   5.941   4.949 -0.4431  0.3084  0.2136
 6611TIP3    H241325   4.577   5.795   4.989  0.9327  0.4418  0.4834
 6612TIP3   OH241326   2.091   3.902   3.265  0.7066  0.2198  0.7059
 6612TIP3    H141327   2.024   3.834   3.266 -2.2302  2.8682  0.1650
 6612TIP3    H241328   2.122   3.907   3.355  0.6239 -1.4631  0.8495
 6613TIP3   OH241329   2.865   3.970  17.249 -0.2472 -0.2027 -0.1143
 6613TIP3    H141330   2.777   3.966  17.210 -0.3674  0.2606  0.0969
 6613TIP3    H241331   2.901   4.053  17.217  0.7080 -1.0829 -1.4132
 6614TIP3   OH241332   2.301   2.186  17.253  0.6971  0.0131 -0.0953
 6614TIP3    H141333   2.300   2.172  17.348  0.6432 -0.3271 -0.1450
 6614TIP3    H241334   2.384   2.148  17.224  0.6097 -0.0904 -0.2134
 6615TIP3   OH241335   1.731   2.642  15.228  0.1645  0.1901 -0.9298
 6615TIP3    H141336   1.651   2.679  15.265  1.4776  1.9315  0.3294
 6615TIP3    H241337   1.749   2.565  15.281  0.7928  1.3842  0.6632
 6616TIP3   OH241338   1.900   3.899  13.494  0.1212 -0.1215  0.1281
 6616TIP3    H141339   1.847   3.909  13.573 -0.8178 -1.7812 -0.2319
 6616TIP3    H241340   1.903   3.986  13.455 -1.8627  0.1438  0.4806
 6617TIP3   OH241341   5.843   4.523  16.698  0.5728 -0.6207 -0.4978
 6617TIP3    H141342   5.926   4.564  16.724 -0.1590  0.3536  0.4286
 6617TIP3    H241343   5.776   4.579  16.738 -0.5241 -1.5810 -0.9477
 6618TIP3   OH241344   6.412   1.737   2.209 -0.1338  0.9317 -0.1295
 6618TIP3    H141345   6.415   1.660   2.265 -0.2031  0.1834 -1.1451
 6618TIP3    H241346   6.401   1.810   2.270  1.0065  0.2558  0.9345
 6619TIP3   OH241347   1.527   3.959  12.198 -0.7011 -0.4926 -0.4711
 6619TIP3    H141348   1.435   3.970  12.222 -0.2218 -0.8583  1.6628
 6619TIP3    H241349   1.540   3.864  12.193  0.3189 -0.6440  2.7558
 6620TIP3   OH241350   3.952   1.636  15.885 -0.4042 -0.0878 -0.4779
 6620TIP3    H141351   3.958   1.590  15.801  0.8480 -1.3679  0.2729
 6620TIP3    H241352   4.024   1.698  15.884 -0.7727  0.3442 -0.5924
 6621TIP3   OH241353   1.104   6.462   0.414 -0.1185  0.3276  0.4029
 6621TIP3    H141354   1.164   6.408   0.466 -0.2293 -1.8268 -1.5798
 6621TIP3    H241355   1.159   6.501   0.346 -0.5998 -0.0264 -0.1997
 6622TIP3   OH241356   6.635   5.761   6.688  0.6579  0.3236  0.0117
 6622TIP3    H141357   6.542   5.772   6.709  1.0260  2.2354  0.9233
 6622TIP3    H241358   6.662   5.847   6.656  2.2675  0.0034  0.4390
 6623TIP3   OH241359   3.083   5.433   0.627  0.1889 -0.5006 -0.3300
 6623TIP3    H141360   3.065   5.473   0.712 -0.9533  0.2831 -0.8967
 6623TIP3    H241361   3.102   5.508   0.570 -0.3459 -0.9038 -1.0472
 6624TIP3   OH241362   4.624   3.948   1.361 -0.0382 -0.1643  0.0075
 6624TIP3    H141363   4.599   4.039   1.350 -1.3088 -0.7146 -2.1591
 6624TIP3    H241364   4.570   3.900   1.299  1.6378 -2.2341  0.0305
 6625TIP3   OH241365   5.047   5.316  16.726 -0.1272 -0.4984  0.0991
 6625TIP3    H141366   5.081   5.402  16.750  1.7595 -1.2567  0.3233
 6625TIP3    H241367   4.953   5.321  16.745  0.4012  0.5846  2.8305
 6626TIP3   OH241368   6.520   2.186  11.037 -0.0001  0.2109  0.1056
 6626TIP3    H141369   6.574   2.113  11.069 -0.8702 -0.1549  0.7718
 6626TIP3    H241370   6.508   2.167  10.944 -0.7824 -0.8760  0.4125
 6627TIP3   OH241371   2.250   0.088  13.837  0.1425  0.2890  0.0105
 6627TIP3    H141372   2.180   0.037  13.795  1.4897 -0.8369 -0.9542
 6627TIP3    H241373   2.217   0.178  13.837 -0.6686  0.0424 -1.8638
 6628TIP3   OH241374   0.644   6.595   6.502 -0.8618 -0.4134 -0.4098
 6628TIP3    H141375   0.649   6.691   6.499  0.1428 -0.4749 -2.2406
 6628TIP3    H241376   0.735   6.567   6.507 -0.9909 -1.2678 -2.0359
 6629TIP3   OH241377   3.913   0.057  15.063 -0.4009 -0.3611 -0.3595
 6629TIP3    H141378   3.842   0.028  15.120 -1.7656  0.9877 -1.3048
 6629TIP3    H241379   3.966   0.115  15.117  0.2407 -1.6432  0.4537
 6630TIP3   OH241380   6.645   3.915  16.799  0.4433 -0.0244 -0.0287
 6630TIP3    H141381   6.554   3.920  16.828  0.6615 -1.8060  1.0829
 6630TIP3    H241382   6.697   3.935  16.876  0.9909 -1.1370 -0.0781
 6631TIP3   OH241383   4.248   4.621   3.193 -0.1230  0.1102 -0.1330
 6631TIP3    H141384   4.274   4.572   3.115 -1.2024 -1.6311  0.5346
 6631TIP3    H241385   4.196   4.694   3.160  0.4688  0.1029 -1.0997
 6632TIP3   OH241386   2.420   3.840   1.484 -0.5803 -0.0770 -0.7529
 6632TIP3    H141387   2.424   3.820   1.577  1.1766  1.2647 -0.4921
 6632TIP3    H241388   2.365   3.919   1.479  0.6180  0.7849 -0.6470
 6633TIP3   OH241389   5.202   3.165   5.772 -0.4998  0.0508 -0.1069
 6633TIP3    H141390   5.121   3.184   5.819 -0.1399  0.9657  0.1757
 6633TIP3    H241391   5.220   3.073   5.791 -0.8252  0.1719  0.8530
 6634TIP3   OH241392   6.006   1.935   1.192  0.4542 -0.7556 -0.1284
 6634TIP3    H141393   6.038   1.912   1.105 -0.2925  0.4509 -0.7455
 6634TIP3    H241394   5.916   1.965   1.178 -0.5060 -2.6621  1.3562
 6635TIP3   OH241395   6.215   0.226  15.480  0.5860  0.1477 -0.4991
 6635TIP3    H141396   6.189   0.318  15.474 -0.3685 -0.1871 -2.2972
 6635TIP3    H241397   6.296   0.221  15.428  1.2849  0.1626  0.5577
 6636TIP3   OH241398   4.291   1.690   3.893  0.3456 -0.8761  0.4523
 6636TIP3    H141399   4.200   1.719   3.900  0.9421  0.7416  2.1970
 6636TIP3    H241400   4.336   1.761   3.848  0.5074 -2.4007 -1.9717
 6637TIP3   OH241401   5.542   2.392  13.245 -0.5496  0.6090  0.2802
 6637TIP3    H141402   5.551   2.415  13.337  1.4285  2.5188 -0.3070
 6637TIP3    H241403   5.609   2.325  13.230 -2.4235 -1.4736  0.6695
 6638TIP3   OH241404   1.578   5.648   4.151  0.0530  0.0016  0.2030
 6638TIP3    H141405   1.625   5.657   4.068 -0.0379  0.8576  0.2301
 6638TIP3    H241406   1.627   5.581   4.199 -0.5659 -1.3573 -0.9856
 6639TIP3   OH241407   5.710   1.154   0.745 -0.3875 -1.1178 -0.2282
 6639TIP3    H141408   5.633   1.135   0.798  0.7094 -2.2742  1.0019
 6639TIP3    H241409   5.703   1.095   0.670 -1.3874 -0.2198 -0.8842
 6640TIP3   OH241410   2.945   3.635  13.521 -0.6994 -0.0940  0.3924
 6640TIP3    H141411   2.980   3.608  13.606 -0.5548 -0.7428  0.1378
 6640TIP3    H241412   3.002   3.706  13.492 -0.2070 -0.4629  0.4432
 6641TIP3   OH241413   0.454   2.422   2.496  0.4230  0.0469  0.3901
 6641TIP3    H141414   0.440   2.330   2.473  0.0430 -0.1652  1.4007
 6641TIP3    H241415   0.366   2.454   2.518  0.6003  0.5674  0.3478
 6642TIP3   OH241416   0.456   2.289  16.228  0.0460 -0.6145 -0.5232
 6642TIP3    H141417   0.533   2.314  16.177  0.3816 -1.0388 -0.2368
 6642TIP3    H241418   0.481   2.305  16.319 -0.3502 -0.3803 -0.4528
 6643TIP3   OH241419   3.869   5.343   5.903 -0.2626  0.0622 -0.3112
 6643TIP3    H141420   3.963   5.325   5.909 -0.4477 -0.9433 -0.1588
 6643TIP3    H241421   3.853   5.357   5.810  0.4186  2.6093 -0.0997
 6644TIP3   OH241422   2.663   6.333  11.725 -0.1959 -0.4413 -0.2956
 6644TIP3    H141423   2.656   6.317  11.631  1.3064 -0.6475 -0.4081
 6644TIP3    H241424   2.573   6.344  11.755 -0.6568  0.3529 -1.8771
 6645TIP3   OH241425   3.834   4.689   3.478 -0.3576  0.0562 -0.1396
 6645TIP3    H141426   3.774   4.688   3.552  0.0477  0.4907  0.2048
 6645TIP3    H241427   3.778   4.690   3.400 -0.7849 -0.0958  0.1671
 6646TIP3   OH241428   3.996   2.834   4.205 -0.0867 -0.5359  0.0288
 6646TIP3    H141429   4.037   2.818   4.119  0.1619  0.4887 -0.0612
 6646TIP3    H241430   3.917   2.884   4.185  0.5002  0.5920  0.4577
 6647TIP3   OH241431   2.171   4.696  13.342  0.1954 -0.1011 -0.3250
 6647TIP3    H141432   2.262   4.686  13.316  0.9155 -0.1107  1.9487
 6647TIP3    H241433   2.164   4.649  13.425 -1.0958  2.3407  1.0908
 6648TIP3   OH241434   2.339   6.172  15.342  0.0241  0.6422 -0.1428
 6648TIP3    H141435   2.361   6.257  15.379 -2.2503  0.8540  0.8865
 6648TIP3    H241436   2.264   6.189  15.284  0.0642 -0.5351 -0.5773
 6649TIP3   OH241437   1.313   3.047  11.856 -0.1317 -0.6807  0.5685
 6649TIP3    H141438   1.290   3.133  11.820 -2.1363 -0.9086  1.2245
 6649TIP3    H241439   1.286   3.051  11.948 -0.9304 -2.2522  0.4245
 6650TIP3   OH241440   3.796   4.026   5.251  0.3351 -0.1733 -0.7803
 6650TIP3    H141441   3.796   4.121   5.247 -1.7628 -0.0274  1.1445
 6650TIP3    H241442   3.802   4.005   5.344 -2.9824 -1.7813 -0.7932
 6651TIP3   OH241443   1.160   4.612  11.400 -0.1722  0.4782 -0.4354
 6651TIP3    H141444   1.071   4.580  11.398  0.0263 -0.1378  0.3034
 6651TIP3    H241445   1.153   4.701  11.435 -0.6893  1.1837 -2.2342
 6652TIP3   OH241446   2.759   1.317   5.883  0.3735 -0.2154  0.0232
 6652TIP3    H141447   2.776   1.343   5.974 -0.8969  0.9013 -0.0331
 6652TIP3    H241448   2.843   1.284   5.852  0.7146 -1.1166  1.7567
 6653TIP3   OH241449   5.354   0.691   1.374 -0.4601 -0.0035  0.3591
 6653TIP3    H141450   5.384   0.650   1.293 -1.7680 -0.1831 -0.0588
 6653TIP3    H241451   5.430   0.689   1.432 -0.1957 -2.0686 -0.0026
 6654TIP3   OH241452   1.845   2.367   5.649  0.7389  0.1205 -0.2043
 6654TIP3    H141453   1.817   2.374   5.740  1.3725  2.0378 -0.0965
 6654TIP3    H241454   1.898   2.287   5.646 -1.9064 -1.7537  0.3170
 6655TIP3   OH241455   1.283   4.552  17.004 -0.1188  0.3133  0.2323
 6655TIP3    H141456   1.299   4.459  16.987 -1.6449  0.1731 -0.5607
 6655TIP3    H241457   1.194   4.556  17.037  0.1939  1.4336  0.9943
 6656TIP3   OH241458   0.915   1.998   4.194  0.4029  0.3148 -0.0809
 6656TIP3    H141459   0.937   1.906   4.182 -2.3317 -0.3270 -0.9595
 6656TIP3    H241460   0.987   2.034   4.245  2.7177 -1.7226 -1.6703
 6657TIP3   OH241461   6.789   4.516   4.547 -0.0522  0.2298 -0.3834
 6657TIP3    H141462   6.796   4.454   4.474  1.1266  0.9928 -0.9560
 6657TIP3    H241463   6.833   4.595   4.515  0.8122  0.4587  1.2855
 6658TIP3   OH241464   5.084   3.950  15.100 -0.8936  0.0117 -0.4992
 6658TIP3    H141465   5.104   3.963  15.192 -1.4263  1.4598 -0.5610
 6658TIP3    H241466   5.167   3.923  15.061 -0.5735 -0.2271  0.3283
 6659TIP3   OH241467   2.920   3.059   2.612  0.4806  0.2810 -0.4442
 6659TIP3    H141468   2.989   2.999   2.583  2.1369  1.7632  0.2884
 6659TIP3    H241469   2.904   3.034   2.703 -0.1516 -0.2129 -0.6813
 6660TIP3   OH241470   3.803   2.379  10.918 -0.3006  0.4788 -0.4056
 6660TIP3    H141471   3.897   2.382  10.930 -0.0157 -1.2223 -1.7945
 6660TIP3    H241472   3.788   2.419  10.832 -1.2187  3.3814  0.9599
 6661TIP3   OH241473   6.780   5.205  12.550  0.1334 -0.1294  0.2094
 6661TIP3    H141474   6.758   5.116  12.523  0.5790 -0.4503  0.8987
 6661TIP3    H241475   6.695   5.248  12.560 -0.2314 -1.2402  2.4377
 6662TIP3   OH241476   1.778   2.848  16.972 -0.4109 -0.3141 -0.3202
 6662TIP3    H141477   1.799   2.868  16.881 -1.4927  1.9580 -0.1406
 6662TIP3    H241478   1.693   2.889  16.987  0.0138 -0.0855  1.8864
 6663TIP3   OH241479   6.587   5.178  14.515  0.7827  0.3097 -0.0037
 6663TIP3    H141480   6.682   5.171  14.521  0.6074 -0.8317  2.5789
 6663TIP3    H241481   6.555   5.093  14.545 -1.0664  0.8712 -0.2819
 6664TIP3   OH241482   4.188   1.716  10.466 -0.4775  0.0706  0.3424
 6664TIP3    H141483   4.169   1.638  10.414 -2.1900  1.9156 -2.0357
 6664TIP3    H241484   4.106   1.733  10.513  0.6653 -0.8627  2.8103
 6665TIP3   OH241485   2.846   3.733  14.152 -0.3457  0.4682 -0.0098
 6665TIP3    H141486   2.861   3.639  14.152  0.9844  0.6647  0.3756
 6665TIP3    H241487   2.810   3.752  14.065 -2.8391 -0.6853  0.6564
 6666TIP3   OH241488   3.483   0.845   5.015  0.6442 -0.3184 -0.4828
 6666TIP3    H141489   3.412   0.902   4.986 -0.4234 -1.4312 -0.1511
 6666TIP3    H241490   3.563   0.894   4.994 -0.1936  2.3271  1.9223
 6667TIP3   OH241491   0.879   1.383   6.003 -0.3550 -0.4828 -0.0675
 6667TIP3    H141492   0.820   1.322   6.047 -0.2752 -0.1068  0.5836
 6667TIP3    H241493   0.827   1.421   5.932 -0.2028 -1.7876 -0.9121
 6668TIP3   OH241494   0.956   1.443  15.383 -0.2200  0.1143  0.9346
 6668TIP3    H141495   0.969   1.459  15.289 -1.9849 -1.3845  0.3635
 6668TIP3    H241496   0.912   1.521  15.415 -0.6505  0.1718  0.2332
 6669TIP3   OH241497   5.082   2.375  13.382 -0.4500 -0.3946 -0.1017
 6669TIP3    H141498   5.078   2.382  13.286 -1.4904 -2.3083 -0.2467
 6669TIP3    H241499   5.091   2.282  13.399 -0.0653 -0.0707  1.6858
 6670TIP3   OH241500   0.270   0.077   4.150 -0.1458 -0.0920  0.2638
 6670TIP3    H141501   0.242  -0.011   4.176  2.0362 -0.9126  0.0676
 6670TIP3    H241502   0.327   0.106   4.221  1.2122  0.0520 -0.8287
 6671TIP3   OH241503   1.689   4.867  15.722 -0.0115  0.1541  0.1862
 6671TIP3    H141504   1.658   4.841  15.808  0.5949  0.3615  0.4716
 6671TIP3    H241505   1.617   4.918  15.685 -0.4045 -0.2100  0.4329
 6672TIP3   OH241506   6.401   6.322   4.320  0.2709  0.4132  0.1073
 6672TIP3    H141507   6.372   6.274   4.242  1.0954 -0.2857  0.2139
 6672TIP3    H241508   6.496   6.327   4.311  0.4704 -0.3933  1.4588
 6673TIP3   OH241509   5.974   3.932   4.603 -0.0871  0.2983 -0.2504
 6673TIP3    H141510   5.938   3.977   4.527 -0.0891 -0.1423 -0.5147
 6673TIP3    H241511   6.016   3.854   4.567 -1.9311 -1.0483  0.3797
 6674TIP3   OH241512   1.972   0.610  14.047 -0.3475  0.0324  0.2825
 6674TIP3    H141513   1.916   0.626  13.971  0.8191 -0.8308 -0.7915
 6674TIP3    H241514   2.038   0.680  14.042 -1.1328  0.8870  1.3922
 6675TIP3   OH241515   0.218   0.317  15.962  0.4012 -0.0162 -0.2069
 6675TIP3    H141516   0.257   0.339  15.877  1.0979 -1.4299 -0.2938
 6675TIP3    H241517   0.284   0.262  16.005  0.0360  0.6269  1.2425
 6676TIP3   OH241518   0.837   1.232  14.149 -0.6893  0.4474 -0.0777
 6676TIP3    H141519   0.889   1.161  14.112  1.1353  1.3551  0.5919
 6676TIP3    H241520   0.831   1.296  14.079  1.4089  1.4712  0.5869
 6677TIP3   OH241521   4.049   4.044  10.995  0.5319 -0.5056  0.3856
 6677TIP3    H141522   3.967   4.033  10.948  0.1625  0.6461  0.7271
 6677TIP3    H241523   4.075   4.135  10.979  1.6938 -0.8226  0.3542
 6678TIP3   OH241524   3.427   0.510   1.245  0.2094 -0.1428 -0.1818
 6678TIP3    H141525   3.388   0.433   1.205 -0.7398  0.0572  0.3332
 6678TIP3    H241526   3.514   0.482   1.273 -0.0779 -0.9784 -0.1256
 6679TIP3   OH241527   3.351   5.287  14.137  0.3989  0.1864  0.0856
 6679TIP3    H141528   3.315   5.290  14.225  2.4112  0.6794  0.9416
 6679TIP3    H241529   3.361   5.193  14.118 -2.3902 -0.0314 -0.6982
 6680TIP3   OH241530   3.067   1.981   0.646 -0.1677 -0.3633 -0.0744
 6680TIP3    H141531   3.015   1.947   0.718 -0.1143  2.6022  1.5092
 6680TIP3    H241532   3.017   2.055   0.611  0.3504 -0.9949 -2.3581
 6681TIP3   OH241533   0.536   4.582  12.118 -0.0991 -0.1507  0.2823
 6681TIP3    H141534   0.630   4.590  12.134 -0.2144 -0.1657  1.0009
 6681TIP3    H241535   0.515   4.654  12.058  0.4307 -0.3671 -0.1753
 6682TIP3   OH241536   4.352   2.127  15.500  0.1233  0.0878 -0.3064
 6682TIP3    H141537   4.299   2.102  15.423  0.8015 -0.4967 -0.5940
 6682TIP3    H241538   4.332   2.220  15.513 -2.9586 -0.6555  1.1696
 6683TIP3   OH241539   0.639   1.103  11.215  0.2793 -0.3852 -0.2945
 6683TIP3    H141540   0.663   1.029  11.271  0.2570 -0.3217 -0.2004
 6683TIP3    H241541   0.630   1.176  11.275 -4.0476 -1.1698  0.3241
 6684TIP3   OH241542   3.867   3.924   5.508 -0.4094  0.4483 -0.5092
 6684TIP3    H141543   3.846   3.886   5.593 -1.1688  1.8999 -0.0101
 6684TIP3    H241544   3.886   3.849   5.452 -1.9496 -0.6744  0.4042
 6685TIP3   OH241545   1.972   2.117   4.060  0.0844  0.3033 -0.1957
 6685TIP3    H141546   2.024   2.080   3.988  1.3369 -0.0312  0.8515
 6685TIP3    H241547   1.900   2.162   4.016  1.8790  1.8044 -1.7747
 6686TIP3   OH241548   6.274   6.481  12.343  0.4109 -0.3286 -0.0184
 6686TIP3    H141549   6.251   6.572  12.326 -1.0195 -0.4016  1.3277
 6686TIP3    H241550   6.191   6.434  12.341  0.8017 -1.1879  1.7747
 6687TIP3   OH241551   5.576   6.142   4.004  0.3489 -0.3742  0.2754
 6687TIP3    H141552   5.653   6.198   3.994  2.0559 -2.2098  2.3063
 6687TIP3    H241553   5.534   6.173   4.084 -0.5025 -0.0314 -0.2852
 6688TIP3   OH241554   2.705   1.370   6.976 -0.2668 -0.3152  0.0026
 6688TIP3    H141555   2.774   1.312   7.007 -0.9585 -0.0156  2.2408
 6688TIP3    H241556   2.747   1.421   6.907  0.9409 -1.9988 -0.5951
 6689TIP3   OH241557   6.606   0.357   0.449 -0.3766 -0.1879 -0.4496
 6689TIP3    H141558   6.674   0.420   0.429 -0.9503 -0.0419 -2.1051
 6689TIP3    H241559   6.645   0.298   0.514  1.5425 -0.4840 -1.8078
 6690TIP3   OH241560   2.201   6.804   1.945 -0.0126 -0.1145  0.3162
 6690TIP3    H141561   2.241   6.726   1.984 -1.2673 -0.5304  0.8506
 6690TIP3    H241562   2.235   6.877   1.996  0.4312 -0.4080  0.4446
 6691TIP3   OH241563   4.468   2.101  16.241 -0.3123  0.2329  0.1226
 6691TIP3    H141564   4.447   2.008  16.229 -0.0834  0.1547  0.3202
 6691TIP3    H241565   4.383   2.144  16.249 -0.4402  0.1393 -0.6869
 6692TIP3   OH241566   4.077   4.741  14.420  0.0982  0.3424 -0.1506
 6692TIP3    H141567   3.985   4.720  14.435 -0.0955  2.3675  2.2472
 6692TIP3    H241568   4.076   4.826  14.377  0.8819 -0.2037 -1.3051
 6693TIP3   OH241569   2.749   0.942  15.199  0.5841 -0.1170 -0.1270
 6693TIP3    H141570   2.685   0.958  15.130  1.3125 -1.3945 -1.1448
 6693TIP3    H241571   2.821   1.003  15.180  0.1058  0.6416  0.4521
 6694TIP3   OH241572   0.026   5.977   5.587  0.1655 -0.1807 -0.1547
 6694TIP3    H141573   0.064   5.913   5.528  1.7983 -0.2756  0.9361
 6694TIP3    H241574  -0.068   5.973   5.570  0.3724 -1.8330 -1.1047
 6695TIP3   OH241575   1.588   1.536  13.061 -0.5352 -0.2350  0.8087
 6695TIP3    H141576   1.592   1.629  13.038  1.1435 -0.7073 -1.1062
 6695TIP3    H241577   1.572   1.492  12.978 -0.7294 -1.7018  1.6052
 6696TIP3   OH241578   3.355   6.502  11.630  0.0100 -0.6333 -0.4880
 6696TIP3    H141579   3.422   6.434  11.620 -1.0139 -1.5122 -1.5214
 6696TIP3    H241580   3.398   6.569  11.684  0.7567 -2.4584  1.3298
 6697TIP3   OH241581   4.268   4.978   1.190  0.5763 -0.0495 -0.5653
 6697TIP3    H141582   4.353   4.987   1.233  0.9461 -2.7101 -0.5784
 6697TIP3    H241583   4.209   4.950   1.259  0.2567 -0.5095 -1.0221
 6698TIP3   OH241584   3.816   4.030  10.841 -0.0648  0.0312  0.1378
 6698TIP3    H141585   3.757   4.102  10.819  0.7948  0.8098  0.3623
 6698TIP3    H241586   3.838   3.991  10.757 -1.5577 -0.8302  0.0941
 6699TIP3   OH241587   2.142   1.490   2.547 -0.1490 -0.0420 -0.8031
 6699TIP3    H141588   2.212   1.429   2.521  0.9702  1.0397 -0.4586
 6699TIP3    H241589   2.063   1.454   2.508  0.9353 -0.1932 -3.0383
 6700TIP3   OH241590   3.135   3.583   4.771 -0.2889 -0.5688  0.0756
 6700TIP3    H141591   3.188   3.513   4.734 -2.0491 -0.9296 -1.9504
 6700TIP3    H241592   3.076   3.538   4.832  0.6989 -0.3565  1.2338
 6701TIP3   OH241593   0.947   5.792   0.871 -0.2888  0.4498 -0.1677
 6701TIP3    H141594   0.962   5.702   0.841 -1.2817  0.3308 -0.3389
 6701TIP3    H241595   0.933   5.843   0.792  2.3007  1.1889 -0.2121
 6702TIP3   OH241596   4.557   0.077   3.926  0.0917 -0.0588  1.3461
 6702TIP3    H141597   4.585   0.139   3.857  1.9646 -2.9262 -0.7102
 6702TIP3    H241598   4.462   0.085   3.927  0.1064  1.2019 -0.4846
 6703TIP3   OH241599   3.448   0.962  11.699 -0.2597  0.0776 -0.6227
 6703TIP3    H141600   3.542   0.969  11.683  0.0563  0.2757  1.1630
 6703TIP3    H241601   3.438   0.885  11.755 -1.6657 -2.4956 -4.0588
 6704TIP3   OH241602   2.045   4.136   3.982  0.3940  0.4343 -0.0015
 6704TIP3    H141603   2.108   4.150   4.053 -0.6188  1.3377  0.7642
 6704TIP3    H241604   1.989   4.065   4.013  0.5015  0.2250 -0.2891
 6705TIP3   OH241605   5.392   4.887  11.811 -0.2843  0.1061 -0.2880
 6705TIP3    H141606   5.340   4.808  11.794  2.7301 -2.0505 -0.2581
 6705TIP3    H241607   5.396   4.931  11.726 -1.6732  0.0586 -0.4065
 6706TIP3   OH241608   2.050   0.933  15.314  0.0020  0.3404  0.4435
 6706TIP3    H141609   1.987   0.893  15.255  0.2883  1.4225 -0.6290
 6706TIP3    H241610   2.000   0.953  15.393 -0.9281  0.8812 -0.2649
 6707TIP3   OH241611   6.684   2.341   4.942  1.1651  0.6277 -0.6481
 6707TIP3    H141612   6.700   2.262   4.993  1.2395  1.0075 -0.0731
 6707TIP3    H241613   6.710   2.413   5.000  1.5044  1.0587 -1.3106
 6708TIP3   OH241614   0.415   6.550   1.777 -0.0058  0.0021 -0.0522
 6708TIP3    H141615   0.339   6.551   1.836  1.7986  1.4019  2.4266
 6708TIP3    H241616   0.457   6.465   1.793  0.2076  0.1796  0.3677
 6709TIP3   OH241617   3.623   1.471  12.887 -0.2510  0.6864 -0.5114
 6709TIP3    H141618   3.626   1.518  12.804 -4.0335  0.2087 -1.1070
 6709TIP3    H241619   3.531   1.474  12.912  0.3224 -1.5290  2.3325
 6710TIP3   OH241620   4.785   1.018   2.991 -0.3903 -0.1732  0.0317
 6710TIP3    H141621   4.791   0.924   2.977 -0.0872 -0.2624  0.6814
 6710TIP3    H241622   4.751   1.027   3.080 -1.3629  0.3381 -0.3785
 6711TIP3   OH241623   6.284   6.304  14.372 -0.3418 -0.7484  0.5237
 6711TIP3    H141624   6.262   6.345  14.456 -1.7146 -0.0696 -0.1271
 6711TIP3    H241625   6.255   6.214  14.380 -0.5339 -0.6649  0.7615
 6712TIP3   OH241626   2.289   6.495   2.997 -0.0747 -0.4887  0.4902
 6712TIP3    H141627   2.206   6.513   3.041  0.3502  0.9408  0.7474
 6712TIP3    H241628   2.354   6.501   3.066  0.5046  0.9078 -0.1408
 6713TIP3   OH241629   3.408   6.799  11.231 -0.2465 -0.5830  0.3033
 6713TIP3    H141630   3.474   6.869  11.233  0.9204 -1.6183 -0.8220
 6713TIP3    H241631   3.326   6.845  11.213  0.5945  0.4586 -1.1065
 6714TIP3   OH241632   2.154   1.933  15.456  0.2862  0.6222 -0.5145
 6714TIP3    H141633   2.087   1.984  15.409  0.0179 -0.3587 -1.2334
 6714TIP3    H241634   2.105   1.886  15.524 -0.1805 -1.6937 -2.3136
 6715TIP3   OH241635   0.133   0.467  17.248  0.0790 -0.3496 -0.4445
 6715TIP3    H141636   0.080   0.413  17.307 -0.0713 -1.4578 -1.5438
 6715TIP3    H241637   0.070   0.503  17.185  0.2288  0.8649  0.0785
 6716TIP3   OH241638   0.902   2.082   6.702 -0.1823 -0.2901 -0.2832
 6716TIP3    H141639   0.995   2.102   6.706  0.0240 -0.4990 -2.5987
 6716TIP3    H241640   0.894   1.998   6.747  0.6222  0.0914  0.5905
 6717TIP3   OH241641   1.553   3.796   1.461  0.0924  0.2351  0.4118
 6717TIP3    H141642   1.465   3.791   1.499  0.4237  2.3230  1.6235
 6717TIP3    H241643   1.600   3.856   1.519  1.6448  0.9156 -1.4690
 6718TIP3   OH241644   5.569   4.665  17.265  0.1008 -0.2784  0.1758
 6718TIP3    H141645   5.571   4.736  17.201  0.2040  1.4869  2.0410
 6718TIP3    H241646   5.610   4.591  17.220  2.3657  1.5867 -1.0293
 6719TIP3   OH241647   6.179   4.240   5.619 -0.5711 -0.5209 -0.1795
 6719TIP3    H141648   6.144   4.324   5.648  0.1290 -0.3635  0.2414
 6719TIP3    H241649   6.206   4.196   5.700  1.0814 -0.2249 -0.5187
 6720TIP3   OH241650   3.081   0.013   3.684  0.5372  0.2878  0.4988
 6720TIP3    H141651   3.079  -0.070   3.636  0.1394 -0.8636  2.3795
 6720TIP3    H241652   3.152   0.002   3.747  0.0767  1.1325  1.1860
 6721TIP3   OH241653   3.453   0.408  14.397  0.5187  0.0925 -0.3928
 6721TIP3    H141654   3.515   0.368  14.335  0.5901 -0.4343  0.0062
 6721TIP3    H241655   3.391   0.338  14.416 -0.5186  0.7622 -1.1752
 6722TIP3   OH241656   3.474   0.576  13.993  0.4670 -0.0188 -0.7823
 6722TIP3    H141657   3.457   0.647  13.930 -1.5090  0.0014 -0.3063
 6722TIP3    H241658   3.510   0.620  14.070  0.3324  0.3322 -0.9157
 6723TIP3   OH241659   4.609   1.981  15.088 -0.0483  1.0762  0.5143
 6723TIP3    H141660   4.604   1.903  15.142  0.9840  0.9693  0.4718
 6723TIP3    H241661   4.518   2.006  15.073 -0.3712  0.2177  1.0056
 6724TIP3   OH241662   3.214   0.111   4.840  1.0256  0.0529 -0.6518
 6724TIP3    H141663   3.154   0.073   4.776 -1.0582 -1.5693  2.0771
 6724TIP3    H241664   3.289   0.051   4.842 -0.0351 -1.2938  0.1375
 6725TIP3   OH241665   4.638   6.768  15.125  0.4399  0.1160 -0.1776
 6725TIP3    H141666   4.625   6.721  15.043  1.7608 -1.5171  0.5078
 6725TIP3    H241667   4.550   6.788  15.155 -0.0781  0.4157 -1.7723
 6726TIP3   OH241668   1.160   1.971   2.185 -0.1165  0.2118  0.1713
 6726TIP3    H141669   1.166   1.960   2.280  0.9206  1.1109  0.2297
 6726TIP3    H241670   1.245   2.006   2.159  0.7061 -2.7051 -1.5347
 6727TIP3   OH241671   1.004   2.090  14.142  0.4039  0.6723 -0.0156
 6727TIP3    H141672   0.967   2.055  14.223  1.5007 -1.1517 -0.2469
 6727TIP3    H241673   0.972   2.032  14.073  2.0760  0.2310 -0.4594
 6728TIP3   OH241674   1.707   2.936  10.845  0.5145 -0.3672  0.0429
 6728TIP3    H141675   1.640   2.989  10.803  1.4724  1.3983  0.6423
 6728TIP3    H241676   1.788   2.960  10.800  1.0034 -1.1865  0.4680
 6729TIP3   OH241677   4.121   1.677  16.874  0.2630  0.2400  0.4243
 6729TIP3    H141678   4.212   1.654  16.859  0.9978  2.3112  1.3855
 6729TIP3    H241679   4.087   1.607  16.930  1.1399 -0.7326 -0.2417
 6730TIP3   OH241680   6.122   6.574   2.506  0.4796 -0.3522 -0.1078
 6730TIP3    H141681   6.038   6.601   2.543 -0.2988  1.0991 -2.6394
 6730TIP3    H241682   6.188   6.606   2.568 -0.7620  0.6928  0.7163
 6731TIP3   OH241683   3.548   5.712  12.550 -0.6254  0.3152 -0.5667
 6731TIP3    H141684   3.506   5.657  12.483  1.2952 -0.0925 -1.4839
 6731TIP3    H241685   3.582   5.650  12.614  0.9904  0.4285 -1.2762
 6732TIP3   OH241686   0.692   1.332  16.240 -0.2944 -0.8100  0.7725
 6732TIP3    H141687   0.751   1.388  16.290  0.0682 -1.1904  0.7782
 6732TIP3    H241688   0.624   1.306  16.303 -0.4271 -0.4339  0.7856
 6733TIP3   OH241689   4.717   3.788  11.926  0.0467  0.5742  0.6195
 6733TIP3    H141690   4.701   3.693  11.925  2.2238  0.0592 -2.7676
 6733TIP3    H241691   4.812   3.796  11.935  0.0033  2.3646 -0.1555
 6734TIP3   OH241692   0.675   5.033   0.615 -0.4219  0.0758 -0.2526
 6734TIP3    H141693   0.749   4.976   0.597 -0.9591 -0.6511 -0.2058
 6734TIP3    H241694   0.613   4.978   0.663 -0.5029  0.9840  0.7531
 6735TIP3   OH241695   1.273   3.512  15.493 -0.7700 -0.2007  0.5011
 6735TIP3    H141696   1.188   3.471  15.475 -0.9392 -0.7656  2.3835
 6735TIP3    H241697   1.262   3.553  15.578  1.0837 -0.9611  1.1518
 6736TIP3   OH241698   4.067   2.306   5.061 -0.2829  0.3555 -0.5107
 6736TIP3    H141699   4.028   2.250   4.993  1.6417 -0.7879 -0.7559
 6736TIP3    H241700   4.114   2.374   5.013  1.5111 -0.7506 -0.4115
 6737TIP3   OH241701   1.200   2.117  16.477  0.6067 -0.0667 -0.0380
 6737TIP3    H141702   1.194   2.200  16.429  0.2474  0.5871  1.0703
 6737TIP3    H241703   1.265   2.135  16.546  1.7008 -1.2287 -0.7437
 6738TIP3   OH241704   5.925   5.354   3.300  0.0146  0.4141 -0.1356
 6738TIP3    H141705   5.921   5.294   3.375 -0.5007  0.2472 -0.2934
 6738TIP3    H241706   5.835   5.358   3.268  0.4365 -0.5448 -1.5625
 6739TIP3   OH241707   6.414   2.640  13.980  0.1235  0.4723 -0.2066
 6739TIP3    H141708   6.448   2.690  13.906 -1.7402  2.0544 -0.0868
 6739TIP3    H241709   6.357   2.701  14.026 -0.0807 -0.9776  1.5874
 6740TIP3   OH241710   3.611   1.849   5.827  0.3567 -0.6690  0.3217
 6740TIP3    H141711   3.628   1.829   5.919  0.3191  1.5102  0.8680
 6740TIP3    H241712   3.516   1.837   5.817 -0.2824  2.2835  1.5756
 6741TIP3   OH241713   6.749   2.965  15.092 -0.2553  0.7434 -0.4780
 6741TIP3    H141714   6.828   2.921  15.062  0.0765 -0.4778  1.9164
 6741TIP3    H241715   6.766   3.058  15.078  0.6919  0.3809 -1.9640
 6742TIP3   OH241716   0.458   2.090  13.686  0.5481 -0.5030  0.1514
 6742TIP3    H141717   0.534   2.078  13.742 -0.0653 -0.1803  1.0872
 6742TIP3    H241718   0.487   2.065  13.598  2.5353  2.1610 -0.0653
 6743TIP3   OH241719   3.324   5.802   4.626 -0.1679  0.5171  0.3918
 6743TIP3    H141720   3.300   5.862   4.555  0.8654 -0.7316 -1.0831
 6743TIP3    H241721   3.419   5.801   4.625 -0.1626 -0.4101  1.0342
 6744TIP3   OH241722   4.829   0.127  15.219 -0.3025 -0.0069 -0.1007
 6744TIP3    H141723   4.802   0.036  15.215 -0.4067  0.0250 -0.1229
 6744TIP3    H241724   4.751   0.175  15.248  0.0626 -0.0572  0.9973
 6745TIP3   OH241725   1.824   2.278   4.820 -0.4398  0.3986 -0.1962
 6745TIP3    H141726   1.855   2.351   4.872 -0.9752  1.5462 -1.4438
 6745TIP3    H241727   1.745   2.247   4.866 -1.1092  1.6246 -0.4808
 6746TIP3   OH241728   6.122   4.126  16.057  0.0407 -0.3115 -0.0341
 6746TIP3    H141729   6.114   4.037  16.092 -1.2752  0.4485  1.7448
 6746TIP3    H241730   6.034   4.147  16.023  0.7493 -0.2414 -1.9548
 6747TIP3   OH241731   3.104   4.862   2.026  0.6115  0.1666 -0.6329
 6747TIP3    H141732   3.059   4.799   1.971 -0.3700  0.1936  0.1009
 6747TIP3    H241733   3.038   4.929   2.045  1.1701  0.5873 -0.1134
 6748TIP3   OH241734   0.715   5.569   1.076 -0.3260  0.3071 -0.7690
 6748TIP3    H141735   0.709   5.661   1.101 -2.8947  0.3485 -1.2921
 6748TIP3    H241736   0.662   5.523   1.141  2.3600 -1.1319  0.5864
 6749TIP3   OH241737   6.338   4.208  14.596 -0.2357 -0.0658 -0.2718
 6749TIP3    H141738   6.346   4.136  14.534  2.9045  1.3322 -1.6738
 6749TIP3    H241739   6.383   4.177  14.674 -0.3437 -0.2207 -0.2690
 6750TIP3   OH241740   4.203   5.917   6.456 -0.5454  0.3261  0.4222
 6750TIP3    H141741   4.210   5.986   6.390 -1.4950  0.2067  0.1886
 6750TIP3    H241742   4.118   5.876   6.439  0.2889 -1.3716  0.1001
 6751TIP3   OH241743   0.657   1.278   4.687  0.2280 -0.1042 -0.4227
 6751TIP3    H141744   0.716   1.331   4.739 -1.2957  1.9286 -0.6605
 6751TIP3    H241745   0.648   1.196   4.736  1.2830  0.5151  0.8478
 6752TIP3   OH241746   6.582   4.156   1.402  0.0980  0.2968  0.1081
 6752TIP3    H141747   6.598   4.118   1.488  1.1938 -1.2491 -0.7417
 6752TIP3    H241748   6.495   4.124   1.377  1.2675 -2.4249 -0.8900
 6753TIP3   OH241749   4.576   2.398  15.160  0.5001  0.3287 -0.1391
 6753TIP3    H141750   4.582   2.475  15.217  0.1218 -0.1407  0.5440
 6753TIP3    H241751   4.481   2.385  15.148  0.5791  0.9272 -1.5700
 6754TIP3   OH241752   4.143   4.701  12.327  0.2046 -0.3040  0.0649
 6754TIP3    H141753   4.237   4.715  12.336  0.6523 -1.6877 -1.7981
 6754TIP3    H241754   4.134   4.646  12.249 -2.2631  1.0625 -0.7412
 6755TIP3   OH241755   0.478   3.781   3.382  0.2704 -0.0858  0.5177
 6755TIP3    H141756   0.553   3.784   3.442  2.1264 -1.4360 -1.5564
 6755TIP3    H241757   0.494   3.853   3.321 -0.1908 -0.3069  0.1323
 6756TIP3   OH241758   3.938   5.455  11.343 -0.0405  0.5772  0.2564
 6756TIP3    H141759   3.874   5.520  11.369 -1.0743 -0.8008  1.3024
 6756TIP3    H241760   3.979   5.492  11.265 -1.9567  1.5969 -0.3286
 6757TIP3   OH241761   0.257   4.078   4.858  0.3412  0.4076 -0.1266
 6757TIP3    H141762   0.181   4.022   4.850  0.4783  0.2966 -0.6640
 6757TIP3    H241763   0.285   4.068   4.949  0.9102 -1.1078 -0.4366
 6758TIP3   OH241764   5.844   0.714   4.198 -0.1191 -0.0597 -0.5937
 6758TIP3    H141765   5.752   0.702   4.220  0.0016  0.3495  0.1611
 6758TIP3    H241766   5.860   0.808   4.208  0.7306 -0.3144  0.7779
 6759TIP3   OH241767   4.274   5.786  15.986  0.1170  0.3633 -0.1520
 6759TIP3    H141768   4.216   5.778  16.062 -0.9239  0.6882 -0.8776
 6759TIP3    H241769   4.265   5.702  15.940 -0.7483  0.8505 -0.9088
 6760TIP3   OH241770   4.904   3.394   5.093  0.5666  0.4036 -0.3260
 6760TIP3    H141771   4.865   3.402   5.005 -0.7548 -0.3966  0.1492
 6760TIP3    H241772   4.998   3.383   5.076  0.0628 -3.0537 -1.9110
 6761TIP3   OH241773   6.464   2.899   3.743  0.0425  0.4570 -0.0871
 6761TIP3    H141774   6.474   2.897   3.838 -2.1731 -0.1081  0.1969
 6761TIP3    H241775   6.526   2.965   3.714 -1.3920  2.9433  2.0906
 6762TIP3   OH241776   1.176   6.328  15.585 -0.9694 -0.0939 -0.1509
 6762TIP3    H141777   1.208   6.239  15.597  0.0375  0.3510  0.5637
 6762TIP3    H241778   1.255   6.382  15.577 -1.5605  0.7025 -0.8924
 6763TIP3   OH241779   5.946   2.110  16.538 -0.3477 -0.5512 -0.1494
 6763TIP3    H141780   5.875   2.140  16.594 -0.0498  0.6163 -0.3806
 6763TIP3    H241781   5.905   2.094  16.453 -0.9444 -3.0172  0.5220
 6764TIP3   OH241782   5.206   6.220   3.388 -0.0110  0.2426 -0.4674
 6764TIP3    H141783   5.220   6.276   3.311  0.0978 -1.1145 -1.4804
 6764TIP3    H241784   5.194   6.132   3.351 -1.3742 -0.2265  0.9894
 6765TIP3   OH241785   2.434   6.292  16.409 -0.5046 -0.1913  0.5504
 6765TIP3    H141786   2.382   6.273  16.487 -1.8152  0.5353 -0.1234
 6765TIP3    H241787   2.507   6.345  16.441 -0.4464 -0.7867  1.4337
 6766TIP3   OH241788   6.082   4.639   5.140 -0.0672  0.1234  0.2756
 6766TIP3    H141789   6.102   4.661   5.231 -1.3822  0.0406  0.6113
 6766TIP3    H241790   6.139   4.565   5.120  0.2665  0.1751  1.0161
 6767TIP3   OH241791   0.024   0.226   1.949 -0.0173  0.0427 -0.7015
 6767TIP3    H141792   0.046   0.262   1.863  0.0784 -0.8550 -1.0586
 6767TIP3    H241793   0.097   0.167   1.970 -0.9909 -1.2812 -0.9215
 6768TIP3   OH241794   1.497   4.349   4.506 -0.1287 -0.1058  0.3308
 6768TIP3    H141795   1.404   4.363   4.523 -0.2058 -1.0764  0.8017
 6768TIP3    H241796   1.514   4.260   4.539  0.2200 -1.2425 -2.5978
 6769TIP3   OH241797   2.824   6.136  15.979 -0.1940 -0.0830 -0.3650
 6769TIP3    H141798   2.827   6.144  15.884 -3.4987  1.0439 -0.5149
 6769TIP3    H241799   2.852   6.046  15.997 -0.3385 -0.6023 -2.4868
 6770TIP3   OH241800   1.000   3.237   0.263 -0.0917  0.2699  0.1490
 6770TIP3    H141801   1.039   3.244   0.176  1.1832  1.4554  0.7769
 6770TIP3    H241802   1.052   3.297   0.317 -1.4092  0.2153  1.5292
 6771TIP3   OH241803   1.372   6.277   2.361 -0.0874  0.0782  0.0058
 6771TIP3    H141804   1.419   6.194   2.360 -1.0079 -0.4963 -2.3615
 6771TIP3    H241805   1.417   6.330   2.426  1.7379 -1.5975  0.1745
 6772TIP3   OH241806   6.758   6.579  13.409  0.2572  0.6297 -0.2297
 6772TIP3    H141807   6.844   6.568  13.369 -0.2439 -0.9967 -0.9465
 6772TIP3    H241808   6.729   6.665  13.380  1.1885  0.7370 -0.8816
 6773TIP3   OH241809   6.667   5.016   0.338  0.3799 -0.5586 -0.8184
 6773TIP3    H141810   6.694   5.081   0.403 -2.1050  0.3109 -0.5557
 6773TIP3    H241811   6.743   4.958   0.329  1.1749 -0.1335  2.1155
 6774TIP3   OH241812   5.963   1.331  16.919 -0.1714 -0.1106  0.1014
 6774TIP3    H141813   6.037   1.389  16.900 -0.1558 -0.0515  0.3363
 6774TIP3    H241814   5.949   1.282  16.838 -0.9321  1.0372 -0.4806
 6775TIP3   OH241815   4.713   5.746  11.771 -0.1488 -0.3900  0.1651
 6775TIP3    H141816   4.646   5.694  11.727 -0.8296 -1.4252  2.2883
 6775TIP3    H241817   4.670   5.829  11.791  0.2887  0.2434 -1.3907
 6776TIP3   OH241818   4.244   4.061   0.152  0.4085 -0.1798 -0.0953
 6776TIP3    H141819   4.269   4.008   0.228 -2.0654 -2.7507 -0.8770
 6776TIP3    H241820   4.242   4.151   0.185  1.8130 -0.8800  2.1685
 6777TIP3   OH241821   6.056   4.661   2.549 -0.2125 -0.4107 -0.3809
 6777TIP3    H141822   5.982   4.607   2.579  1.1386 -1.6525  0.8958
 6777TIP3    H241823   6.015   4.730   2.497 -2.4531  0.0225  1.7687
 6778TIP3   OH241824   4.806   3.538  14.193 -0.2923 -0.0574 -0.0629
 6778TIP3    H141825   4.852   3.601  14.248  0.0926 -0.5794  0.2240
 6778TIP3    H241826   4.843   3.453  14.218 -0.5129 -0.3568 -0.7232
 6779TIP3   OH241827   6.696   2.822   2.996 -0.0282 -0.6021  0.3385
 6779TIP3    H141828   6.673   2.849   2.907  0.1958 -1.3432  0.0503
 6779TIP3    H241829   6.716   2.904   3.041 -1.1730 -0.1219  0.0150
 6780TIP3   OH241830   1.482   3.621  14.169  0.3749  0.0436  0.5225
 6780TIP3    H141831   1.565   3.656  14.199 -0.0469  1.4177  0.1314
 6780TIP3    H241832   1.437   3.694  14.127 -0.5249 -0.9623 -0.3699
 6781TIP3   OH241833   6.554   0.297   4.796  0.7172  0.0233 -0.5827
 6781TIP3    H141834   6.559   0.204   4.774  0.1036 -0.1849  0.0984
 6781TIP3    H241835   6.500   0.335   4.727 -0.0238 -0.3607 -0.2311
 6782TIP3   OH241836   6.445   4.175  14.132  0.0867  0.0809  0.4219
 6782TIP3    H141837   6.397   4.218  14.061 -0.3014 -0.1655  0.5340
 6782TIP3    H241838   6.380   4.162  14.201  0.3765 -0.0219  0.6783
 6783TIP3   OH241839   4.569   0.886  11.746  0.2040  0.1923  0.7248
 6783TIP3    H141840   4.544   0.917  11.659  0.6819  0.4234  0.6693
 6783TIP3    H241841   4.638   0.946  11.775  1.4442 -1.0345  0.4320
 6784TIP3   OH241842   4.295   0.968  15.827  0.1569  0.7170 -0.2263
 6784TIP3    H141843   4.313   1.060  15.848  1.4746  0.2032  1.0844
 6784TIP3    H241844   4.200   0.960  15.833  0.1649  1.5495  1.7499
 6785TIP3   OH241845   3.389   2.806   4.808 -0.5518 -0.6153 -0.0540
 6785TIP3    H141846   3.325   2.737   4.790 -0.7868 -0.1924 -0.9024
 6785TIP3    H241847   3.473   2.760   4.816 -0.7325 -1.0173 -0.4502
 6786TIP3   OH241848   6.680   6.167  16.627  0.4133  0.1797 -0.2602
 6786TIP3    H141849   6.743   6.148  16.697 -2.0786  1.2762  2.5264
 6786TIP3    H241850   6.687   6.093  16.568  3.4113 -0.3111  0.5294
 6787TIP3   OH241851   4.399   6.658   1.506  0.2599 -0.1185  0.2013
 6787TIP3    H141852   4.358   6.685   1.424  0.4295 -0.4972 -0.0086
 6787TIP3    H241853   4.334   6.604   1.549 -0.3399  1.1265  0.9278
 6788TIP3   OH241854   1.659   2.667  11.884 -0.1464 -0.4044 -0.6265
 6788TIP3    H141855   1.593   2.734  11.870 -1.4120 -1.6224 -0.6972
 6788TIP3    H241856   1.610   2.591  11.915  1.2227 -1.3332 -0.6460
 6789TIP3   OH241857   1.802   2.578   2.406  0.1880  0.7931  0.0998
 6789TIP3    H141858   1.718   2.598   2.447 -0.2513 -0.2534 -0.2585
 6789TIP3    H241859   1.847   2.662   2.400  1.1551  0.8506  4.5387
 6790TIP3   OH241860   4.238   1.151  13.765  0.0404 -0.5957 -0.0823
 6790TIP3    H141861   4.222   1.068  13.721  0.8080 -0.0363 -1.4720
 6790TIP3    H241862   4.330   1.170  13.748  0.0973  0.1219  0.9491
 6791TIP3   OH241863   1.973   4.474   1.211  0.0847 -0.1228 -0.2815
 6791TIP3    H141864   1.983   4.410   1.141 -0.4405 -0.2801 -0.2221
 6791TIP3    H241865   2.022   4.550   1.182  2.7979 -1.3673  0.7122
 6792TIP3   OH241866   3.132   4.963   4.839 -0.1210  0.4277 -0.6938
 6792TIP3    H141867   3.161   5.053   4.835  2.6671 -0.3466  0.0700
 6792TIP3    H241868   3.180   4.918   4.769 -2.3498 -0.3081 -1.8587
 6793TIP3   OH241869   5.594   6.048  11.926 -0.3031  0.0065  0.5458
 6793TIP3    H141870   5.685   6.022  11.913 -0.6122 -0.7150 -0.3404
 6793TIP3    H241871   5.554   5.973  11.969  0.0664  1.3165  3.4258
 6794TIP3   OH241872   2.098   6.738   2.526 -0.3971 -0.6659 -0.2800
 6794TIP3    H141873   2.105   6.769   2.436  0.3334  0.5971  0.1794
 6794TIP3    H241874   2.140   6.652   2.525  1.9846  0.4012 -0.6760
 6795TIP3   OH241875   1.960   0.861  15.906  0.2573  0.4647  0.3936
 6795TIP3    H141876   2.053   0.839  15.914  0.2370  0.7100  1.4881
 6795TIP3    H241877   1.914   0.783  15.935  0.0609 -0.3040 -1.8234
 6796TIP3   OH241878   5.701   5.770   3.789  0.5529 -0.2549  0.7057
 6796TIP3    H141879   5.689   5.680   3.820  0.3893 -0.0052  1.3812
 6796TIP3    H241880   5.785   5.768   3.742 -0.3394 -1.1871 -0.9615
 6797TIP3   OH241881   6.344   6.525  12.972  0.3029  0.4009 -0.0090
 6797TIP3    H141882   6.287   6.509  13.047 -0.4307  0.8159 -0.4626
 6797TIP3    H241883   6.305   6.474  12.901  0.9208  0.1066 -0.1426
 6798TIP3   OH241884   0.547   2.151  15.530  0.2380 -0.1200  0.2616
 6798TIP3    H141885   0.537   2.170  15.623  0.2548 -0.0372  0.2463
 6798TIP3    H241886   0.473   2.196  15.489  0.1319 -0.3030  0.2542
 6799TIP3   OH241887   4.580   2.871   3.264  0.6062 -0.3231  0.3649
 6799TIP3    H141888   4.608   2.813   3.193  1.6646 -3.0335  2.7804
 6799TIP3    H241889   4.489   2.892   3.243  1.1244 -0.2970 -2.1868
 6800TIP3   OH241890   3.839   0.047  13.149  0.0501  0.1789  0.1766
 6800TIP3    H141891   3.767   0.051  13.212  0.8505 -0.6844  1.1762
 6800TIP3    H241892   3.817   0.115  13.084 -2.5243 -1.1820 -0.5279
 6801TIP3   OH241893   6.182   0.120  14.714  0.6050  0.8007 -0.1251
 6801TIP3    H141894   6.209   0.053  14.777 -0.6571 -1.0270 -1.4404
 6801TIP3    H241895   6.258   0.179  14.709  2.0876 -0.9514  0.5148
 6802TIP3   OH241896   2.464   4.312  10.502  0.2947 -0.3362 -0.4166
 6802TIP3    H141897   2.453   4.388  10.559  2.3124  0.3060 -0.8009
 6802TIP3    H241898   2.511   4.249  10.555 -1.0862 -1.2325 -0.2088
 6803TIP3   OH241899   0.838   5.543  15.735 -0.6680 -0.5937  0.1693
 6803TIP3    H141900   0.785   5.571  15.810 -0.3886 -0.5558  0.3573
 6803TIP3    H241901   0.926   5.533  15.772 -0.6020 -0.9216 -0.0766
 6804TIP3   OH241902   2.000   3.825  14.698 -0.3081  0.0331 -0.8114
 6804TIP3    H141903   1.935   3.756  14.712 -0.0439 -0.2319 -0.8983
 6804TIP3    H241904   1.991   3.882  14.775  0.1694 -0.6462 -0.2390
 6805TIP3   OH241905   4.401   1.362  16.299  0.3571  0.3950  0.6277
 6805TIP3    H141906   4.349   1.294  16.256 -2.5887  2.4458  0.6581
 6805TIP3    H241907   4.421   1.326  16.386  1.6053 -1.5863 -0.4139
 6806TIP3   OH241908   2.324   3.953   2.126  0.4524  0.4729  0.2135
 6806TIP3    H141909   2.237   3.982   2.097 -0.8904 -2.4439  1.0045
 6806TIP3    H241910   2.379   3.960   2.047 -1.3412 -0.6832 -1.2139
 6807TIP3   OH241911   6.408   3.527  11.885  0.3756  0.3991  0.6003
 6807TIP3    H141912   6.358   3.556  11.808 -0.1024  1.2957  1.2387
 6807TIP3    H241913   6.500   3.541  11.860  0.2421  0.3882  0.0772
 6808TIP3   OH241914   3.566   6.791  12.595  0.1917  0.9274 -0.0663
 6808TIP3    H141915   3.531   6.843  12.667  1.4359  2.5122 -0.5305
 6808TIP3    H241916   3.616   6.721  12.638 -0.3026  0.9666  0.5866
 6809TIP3   OH241917   1.232   3.327  13.679 -0.2089 -0.0769  0.0014
 6809TIP3    H141918   1.243   3.391  13.749  0.1220  0.8479 -0.8692
 6809TIP3    H241919   1.297   3.351  13.613 -0.0216 -1.3593 -0.3222
 6810TIP3   OH241920   5.937   2.989  11.310  0.0086 -0.1589  0.6713
 6810TIP3    H141921   6.029   2.995  11.338  0.1747 -1.2699  0.4280
 6810TIP3    H241922   5.926   3.060  11.247  0.5774  0.2485  1.0147
 6811TIP3   OH241923   4.954   6.062   0.241  0.2244  0.2175  0.3053
 6811TIP3    H141924   5.010   6.101   0.173 -0.7933 -0.0365 -0.7029
 6811TIP3    H241925   5.010   5.997   0.283  0.9851  0.6297 -0.0446
 6812TIP3   OH241926   5.446   5.987  14.157 -0.1754 -0.2764  0.1583
 6812TIP3    H141927   5.446   5.976  14.252 -1.3910 -1.8095  0.0066
 6812TIP3    H241928   5.535   5.963  14.131  0.1471  0.0803  0.8774
 6813TIP3   OH241929   4.948   6.569  15.114 -0.5855 -0.1836  0.1208
 6813TIP3    H141930   4.923   6.629  15.185 -2.3549 -0.6524 -0.0549
 6813TIP3    H241931   4.977   6.490  15.159  1.1946  0.5466  0.3419
 6814TIP3   OH241932   5.278   5.790   1.698  0.0637 -0.2637  0.0302
 6814TIP3    H141933   5.199   5.737   1.697  0.8393 -1.4628 -0.1989
 6814TIP3    H241934   5.299   5.804   1.606  0.0499  0.1363  0.0898
 6815TIP3   OH241935   3.773   0.928  12.722 -0.2901  0.0907  0.2058
 6815TIP3    H141936   3.684   0.954  12.700  0.1314  0.7012 -0.8660
 6815TIP3    H241937   3.814   0.910  12.637  0.7890  0.4226  0.6418
 6816TIP3   OH241938   6.384   4.963  11.762  0.1596  0.2184 -0.5596
 6816TIP3    H141939   6.458   4.907  11.787  0.9569  1.9821  1.3297
 6816TIP3    H241940   6.368   5.017  11.839 -2.5328  0.5490 -1.2552
 6817TIP3   OH241941   3.887   1.311  11.880 -0.2960  0.3668  0.0131
 6817TIP3    H141942   3.889   1.277  11.969  1.7172 -1.9451 -0.8226
 6817TIP3    H241943   3.882   1.234  11.825 -1.8261  1.7576 -1.9351
 6818TIP3   OH241944   1.881   5.700   0.668 -0.6050 -0.8203  0.1143
 6818TIP3    H141945   1.877   5.795   0.681  0.6759 -0.6069 -0.8878
 6818TIP3    H241946   1.953   5.672   0.725 -1.9937 -1.4529  1.6321
 6819TIP3   OH241947   4.722   2.047   5.409 -1.0528 -0.4058 -0.2190
 6819TIP3    H141948   4.707   2.137   5.381  0.8251 -0.1505 -0.5289
 6819TIP3    H241949   4.662   1.995   5.355 -1.0716  0.5177 -1.1118
 6820TIP3   OH241950   2.329   4.658   1.127  0.1721  0.4264  0.1601
 6820TIP3    H141951   2.412   4.648   1.080 -0.9443 -0.2965 -1.8051
 6820TIP3    H241952   2.299   4.568   1.142 -1.4600  0.6178 -1.5422
 6821TIP3   OH241953   3.121   1.326  12.229  0.9586 -0.0110 -0.2075
 6821TIP3    H141954   3.216   1.339  12.219  0.8492  0.0334 -1.4111
 6821TIP3    H241955   3.107   1.234  12.205  0.9231 -0.6288  1.9602
 6822TIP3   OH241956   4.307   1.946   0.500  0.2618 -0.1220  0.1644
 6822TIP3    H141957   4.218   1.925   0.528  0.9329 -1.4922  1.4336
 6822TIP3    H241958   4.332   1.872   0.444  1.3239 -0.8587  1.5509
 6823TIP3   OH241959   4.334   0.721  14.656  0.0053  0.2058 -0.2112
 6823TIP3    H141960   4.287   0.729  14.739  1.0439 -0.3390  0.4380
 6823TIP3    H241961   4.400   0.790  14.658 -0.5492  0.7793 -0.9960
 6824TIP3   OH241962   4.218   1.262   4.633  0.1344 -0.6401  0.2567
 6824TIP3    H141963   4.133   1.235   4.597 -1.8275  4.7008  0.0689
 6824TIP3    H241964   4.203   1.270   4.727 -0.0354  1.3216  0.1070
 6825TIP3   OH241965   5.325   2.101   4.844 -0.1733  0.3499  0.6041
 6825TIP3    H141966   5.244   2.052   4.846 -0.2623  0.4427 -0.1334
 6825TIP3    H241967   5.299   2.189   4.815  0.1827  0.3775  0.3536
 6826TIP3   OH241968   1.268   1.640   5.899 -0.3234 -0.4709  0.0215
 6826TIP3    H141969   1.235   1.729   5.914  0.3613 -0.1759 -0.1745
 6826TIP3    H241970   1.198   1.597   5.850 -0.8531 -0.1830  0.5200
 6827TIP3   OH241971   0.748   4.386  11.660 -0.0424  0.3439  0.0105
 6827TIP3    H141972   0.756   4.326  11.734  0.9096  1.1925  0.6194
 6827TIP3    H241973   0.691   4.340  11.598  0.6713 -1.2052  0.4552
 6828TIP3   OH241974   4.709   6.261   1.258  0.0170  0.8643  0.3869
 6828TIP3    H141975   4.703   6.284   1.165 -0.2245 -0.2587  0.1124
 6828TIP3    H241976   4.785   6.204   1.264 -1.0524 -0.6019  0.5324
 6829TIP3   OH241977   2.456   6.333  11.244 -0.3619 -0.1843  0.3903
 6829TIP3    H141978   2.410   6.324  11.327  0.2646  0.3572  0.8090
 6829TIP3    H241979   2.443   6.425  11.219 -2.4968 -0.8631 -1.3022
 6830TIP3   OH241980   1.088   5.931  12.986 -0.0727  0.3126 -0.5100
 6830TIP3    H141981   1.028   5.974  13.046  0.3371  1.6454 -1.0004
 6830TIP3    H241982   1.037   5.859  12.948 -0.8351  0.4417  0.2362
 6831TIP3   OH241983   6.314   1.057  15.552  0.2417  0.7357  0.0515
 6831TIP3    H141984   6.262   0.979  15.530 -1.8187  1.8885  0.5708
 6831TIP3    H241985   6.311   1.111  15.473 -0.0837  1.1895  0.3728
 6832TIP3   OH241986   2.882   3.226   5.383  0.1347  0.6572  0.2711
 6832TIP3    H141987   2.951   3.160   5.376  0.1260  0.5571  1.0285
 6832TIP3    H241988   2.800   3.177   5.383  0.0439  0.7933 -0.8639
 6833TIP3   OH241989   6.033   3.294  11.353 -0.0376 -0.3256 -0.3438
 6833TIP3    H141990   6.028   3.384  11.386 -1.2388 -0.1372 -0.9728
 6833TIP3    H241991   6.083   3.247  11.419 -1.6329  0.2126  1.3292
 6834TIP3   OH241992   4.691   5.660   3.980 -0.0175  0.1579  0.3703
 6834TIP3    H141993   4.783   5.677   3.958  0.5091 -0.0314  2.2598
 6834TIP3    H241994   4.642   5.718   3.921  1.4112  1.9669  0.8522
 6835TIP3   OH241995   6.074   4.185   1.297  0.7515  0.0702 -0.4186
 6835TIP3    H141996   6.042   4.109   1.345  2.7279 -0.8537 -0.4867
 6835TIP3    H241997   6.004   4.206   1.235  0.3335 -1.9451 -0.6787
 6836TIP3   OH241998   0.800   1.110  13.365  0.4229 -0.1323 -0.1275
 6836TIP3    H141999   0.749   1.188  13.388 -0.5058 -0.7216 -0.1089
 6836TIP3    H242000   0.793   1.054  13.442  1.3940 -0.0908 -0.0026
 6837TIP3   OH242001   0.510   0.008   6.793  0.0199  0.0717  0.1279
 6837TIP3    H142002   0.439  -0.055   6.803  0.2838 -0.0581  1.3466
 6837TIP3    H242003   0.475   0.074   6.733 -0.7304 -0.5531 -0.1369
 6838TIP3   OH242004   6.299   2.780   2.731 -0.5612 -0.2591 -0.1459
 6838TIP3    H142005   6.338   2.865   2.749 -1.5740  0.3064 -0.5879
 6838TIP3    H242006   6.290   2.777   2.636 -0.3377 -0.9570 -0.1516
 6839TIP3   OH242007   6.423   1.860   1.072  0.6691 -0.3820 -0.2941
 6839TIP3    H142008   6.329   1.852   1.062  0.5674  1.1232 -0.7138
 6839TIP3    H242009   6.437   1.864   1.166  0.2398  0.0337 -0.2425
 6840TIP3   OH242010   1.270   6.589  16.871  0.2508 -0.1971  0.6410
 6840TIP3    H142011   1.258   6.524  16.801  1.2121 -1.2739  1.4306
 6840TIP3    H242012   1.183   6.625  16.885 -0.4130 -1.6442  0.4596
 6841TIP3   OH242013   6.419   6.337  11.994 -0.2995 -0.5079  0.1173
 6841TIP3    H142014   6.329   6.339  12.025 -1.0868 -1.0952 -1.9725
 6841TIP3    H242015   6.441   6.429  11.979  0.0664 -0.2249  2.2026
 6842TIP3   OH242016   5.288   3.625  13.071 -0.0289  0.5674 -0.1360
 6842TIP3    H142017   5.213   3.658  13.020 -1.2288  1.0934  1.8703
 6842TIP3    H242018   5.254   3.546  13.114  0.8665  0.2896  0.0710
 6843TIP3   OH242019   0.270   0.011   3.524 -0.0716  0.1720  0.6366
 6843TIP3    H142020   0.230   0.010   3.611 -2.0463 -1.9788 -0.1844
 6843TIP3    H242021   0.209   0.061   3.470  0.4877  0.3985  0.2036
 6844TIP3   OH242022   3.981   1.547   2.477  0.1129 -0.0833  0.6194
 6844TIP3    H142023   4.031   1.509   2.405 -0.9357 -0.1671 -0.0883
 6844TIP3    H242024   3.962   1.472   2.534 -2.7172 -0.9432 -1.2211
 6845TIP3   OH242025   3.326   2.748  16.107 -0.3617 -0.6359  0.0308
 6845TIP3    H142026   3.237   2.733  16.075 -0.6644 -2.5984  1.5569
 6845TIP3    H242027   3.314   2.781  16.196  0.4593  0.0877 -0.1156
 6846TIP3   OH242028   0.799   3.867  16.658  0.6716  0.0704 -0.4002
 6846TIP3    H142029   0.728   3.813  16.623 -0.7498  1.8757 -0.4763
 6846TIP3    H242030   0.786   3.952  16.615  2.6745  0.5498 -0.1066
 6847TIP3   OH242031   5.639   2.853   0.981  0.1224  0.0225 -0.2956
 6847TIP3    H142032   5.665   2.945   0.970  1.6365 -0.3172  0.2210
 6847TIP3    H242033   5.708   2.815   1.035 -1.1231 -1.1387  0.5359
 6848TIP3   OH242034   3.712   0.437   1.110  0.3612  0.2120 -0.4876
 6848TIP3    H142035   3.690   0.511   1.054  0.1596  0.3488 -0.2315
 6848TIP3    H242036   3.730   0.365   1.050  3.0992  1.1199 -0.8738
 6849TIP3   OH242037   2.017   6.792  16.502  0.8822 -0.0750  0.3287
 6849TIP3    H142038   2.030   6.885  16.520 -1.1395  0.4261 -0.5303
 6849TIP3    H242039   2.104   6.754  16.511  1.7867  1.9092  0.6007
 6850TIP3   OH242040   4.367   6.581  12.174 -0.3116  0.6423  0.4711
 6850TIP3    H142041   4.439   6.643  12.179 -0.4494  0.7640  0.9317
 6850TIP3    H242042   4.292   6.632  12.143 -0.1388  0.4584 -0.2811
 6851TIP3   OH242043   4.289   3.498  16.846 -0.2614  0.0198 -0.2234
 6851TIP3    H142044   4.316   3.563  16.781 -0.1183 -1.0509 -1.2707
 6851TIP3    H242045   4.203   3.529  16.876  0.3894  1.4042  0.3335
 6852TIP3   OH242046   4.648   2.253   4.471 -0.2136  0.0980 -0.0972
 6852TIP3    H142047   4.628   2.160   4.488 -0.5129  0.2655  0.4961
 6852TIP3    H242048   4.722   2.251   4.411 -0.2039 -0.5298 -0.0718
 6853TIP3   OH242049   0.637   0.424   6.293 -0.1708 -0.3941 -0.1264
 6853TIP3    H142050   0.643   0.496   6.355 -0.5771 -0.2389 -0.2630
 6853TIP3    H242051   0.712   0.368   6.313  0.2597  0.1694 -0.1536
 6854TIP3   OH242052   5.033   1.844   2.561 -0.1425  0.1184 -0.2983
 6854TIP3    H142053   5.051   1.928   2.520 -1.1453 -0.0823 -1.1899
 6854TIP3    H242054   5.119   1.802   2.568  0.3712  1.1965  0.1638
 6855TIP3   OH242055   1.555   3.123   2.129  0.3360  0.2314  0.0611
 6855TIP3    H142056   1.460   3.128   2.118  0.2725 -0.2757  0.3484
 6855TIP3    H242057   1.578   3.034   2.101  0.7096  0.3034  0.1261
 6856TIP3   OH242058   5.098   6.517   4.051 -0.4038 -0.3003  0.1319
 6856TIP3    H142059   5.155   6.440   4.058 -1.1056 -0.7196  1.8119
 6856TIP3    H242060   5.156   6.587   4.022  0.1478 -1.5431 -1.9847
 6857TIP3   OH242061   4.870   3.455   5.881 -0.2924 -0.0196  0.5778
 6857TIP3    H142062   4.855   3.360   5.876  2.4693 -0.5227 -0.2121
 6857TIP3    H242063   4.855   3.477   5.973 -2.7742 -0.8053  0.4293
 6858TIP3   OH242064   5.339   6.293  15.131 -0.3726  0.1873  0.3847
 6858TIP3    H142065   5.417   6.245  15.161 -1.2044 -1.3379  0.2004
 6858TIP3    H242066   5.374   6.376  15.098  1.2300 -0.6126 -0.0582
 6859TIP3   OH242067   2.495   1.943  13.784  0.2622  0.1133 -0.4516
 6859TIP3    H142068   2.426   2.006  13.804  0.6021  0.2643  0.3022
 6859TIP3    H242069   2.516   1.958  13.692 -2.0314 -1.2500 -1.2791
 6860TIP3   OH242070   6.041   0.750  13.801  0.5690  0.3090  0.0701
 6860TIP3    H142071   6.117   0.693  13.795  0.2876  0.1205 -3.2064
 6860TIP3    H242072   5.972   0.695  13.838  0.6970 -1.1210 -1.7108
 6861TIP3   OH242073   1.210   5.547  13.829 -0.5153 -0.7426  1.0109
 6861TIP3    H142074   1.302   5.525  13.812 -0.4935  0.0259 -0.0099
 6861TIP3    H242075   1.175   5.568  13.742 -1.3337  0.1567  1.5464
 6862TIP3   OH242076   1.014   1.821   4.412 -0.7145 -0.7485  0.0489
 6862TIP3    H142077   1.025   1.915   4.399 -0.0506 -0.6642  1.1187
 6862TIP3    H242078   1.092   1.794   4.458 -1.4560 -1.6073  0.8358
 6863TIP3   OH242079   6.187   0.270  11.776  0.4108 -0.4414 -0.5811
 6863TIP3    H142080   6.226   0.319  11.849 -3.1098 -0.0038  1.2181
 6863TIP3    H242081   6.184   0.332  11.704  1.8489 -0.1237 -0.3938
 6864TIP3   OH242082   4.173   1.418   5.134  0.2933 -0.2951 -0.0745
 6864TIP3    H142083   4.256   1.446   5.096  0.3809  1.2542  1.1579
 6864TIP3    H242084   4.132   1.366   5.065  1.8060 -0.2124 -1.0929
 6865TIP3   OH242085   2.443   0.245  14.176  0.0610  0.2740 -0.3199
 6865TIP3    H142086   2.380   0.203  14.117  0.2524  1.6681 -1.5759
 6865TIP3    H242087   2.502   0.293  14.118  1.1003  0.5888  0.9440
 6866TIP3   OH242088   6.607   4.898   5.195 -0.0606  0.0363 -0.1623
 6866TIP3    H142089   6.541   4.901   5.265  0.2940 -1.8807  0.3242
 6866TIP3    H242090   6.558   4.917   5.115 -0.9527 -0.0571  0.3418
 6867TIP3   OH242091   6.441   2.316  15.232  0.0409 -0.1929 -0.2514
 6867TIP3    H142092   6.456   2.222  15.242 -1.1946 -0.3293  0.4945
 6867TIP3    H242093   6.506   2.357  15.289 -0.2775 -0.6420  0.4469
 6868TIP3   OH242094   6.350   2.776   5.643 -0.1731 -0.3092  0.5770
 6868TIP3    H142095   6.370   2.812   5.556 -1.2265  1.0693  0.8858
 6868TIP3    H242096   6.255   2.768   5.645 -0.3326  1.3191  2.1979
 6869TIP3   OH242097   2.396   6.126  13.411  0.1077 -0.6418  0.1427
 6869TIP3    H142098   2.414   6.190  13.480 -0.1619 -0.1522 -0.2305
 6869TIP3    H242099   2.303   6.105  13.422 -0.0978 -0.0791 -0.4602
 6870TIP3   OH242100   3.622   3.539   2.142  0.1797 -0.2356 -0.8931
 6870TIP3    H142101   3.582   3.523   2.227  0.5264  1.0194 -0.4770
 6870TIP3    H242102   3.693   3.474   2.137  0.0820 -0.3988 -0.2804
 6871TIP3   OH242103   1.621   1.055   3.305  0.2569  0.6053 -0.5578
 6871TIP3    H142104   1.617   1.137   3.355 -0.3960 -1.1032  2.3813
 6871TIP3    H242105   1.577   0.990   3.360 -2.1212 -1.1725 -4.1280
 6872TIP3   OH242106   6.038   2.693  11.825 -0.3141 -0.0685 -0.1656
 6872TIP3    H142107   6.125   2.685  11.784 -0.5151  0.0617 -0.6243
 6872TIP3    H242108   6.055   2.682  11.919  0.2189  0.1148 -0.2370
 6873TIP3   OH242109   0.044   4.647   5.357  0.1838  0.1553  0.4341
 6873TIP3    H142110   0.123   4.699   5.343 -0.6902  1.7651  1.1936
 6873TIP3    H242111  -0.022   4.710   5.386 -1.3415 -1.1604  0.0225
 6874TIP3   OH242112   4.899   3.325   3.253  0.0536  0.2552  0.6096
 6874TIP3    H142113   4.847   3.247   3.231  0.0083 -0.4578  2.9836
 6874TIP3    H242114   4.982   3.290   3.285  1.4858  1.3463 -1.6771
 6875TIP3   OH242115   1.156   0.306  12.401 -0.5250 -0.0221 -0.5242
 6875TIP3    H142116   1.247   0.335  12.396 -0.2261 -0.8394  0.0595
 6875TIP3    H242117   1.154   0.223  12.355 -0.9430 -0.0901 -0.3861
 6876TIP3   OH242118   0.409   6.400  15.452  0.0103 -0.0711 -0.1609
 6876TIP3    H142119   0.357   6.388  15.531 -0.5697 -0.7681 -0.6314
 6876TIP3    H242120   0.370   6.339  15.388 -0.0630  1.0616 -1.2292
 6877TIP3   OH242121   0.886   3.454   3.758  0.1726  0.1474  0.0314
 6877TIP3    H142122   0.910   3.374   3.805  1.9128 -1.0623 -2.6406
 6877TIP3    H242123   0.970   3.499   3.743 -0.7343  2.4049  1.2277
 6878TIP3   OH242124   0.141   6.757  14.161 -0.7334 -0.0421 -0.3992
 6878TIP3    H142125   0.090   6.837  14.165  3.6051  2.9882  1.2110
 6878TIP3    H242126   0.209   6.775  14.096  1.8436 -1.3443  1.7466
 6879TIP3   OH242127   0.108   2.484  13.338 -0.1062 -0.8195  0.4693
 6879TIP3    H142128   0.087   2.547  13.408  1.4743 -0.5737  0.7619
 6879TIP3    H242129   0.199   2.462  13.353  0.8230  0.4945 -2.4826
 6880TIP3   OH242130   1.056   0.765  13.607  0.2082  0.3021 -0.7905
 6880TIP3    H142131   1.029   0.833  13.545 -0.7639  0.8176  0.1802
 6880TIP3    H242132   1.040   0.683  13.560 -0.1643  0.6928 -1.3669
 6881TIP3   OH242133   5.142   5.962   4.333  0.0985 -0.4661 -0.7860
 6881TIP3    H142134   5.176   6.037   4.383  1.1049 -1.6754  0.4001
 6881TIP3    H242135   5.214   5.936   4.276 -0.2533 -0.5393 -1.2055
 6882TIP3   OH242136   3.255   4.662  16.112  0.8743 -0.0597 -0.1527
 6882TIP3    H142137   3.210   4.732  16.160 -0.2179 -0.6925 -0.2080
 6882TIP3    H242138   3.203   4.651  16.032  2.6702  0.9910 -1.5572
 6883TIP3   OH242139   3.234   3.830   2.773  0.3356  0.8863  0.7140
 6883TIP3    H142140   3.311   3.836   2.831  1.6086 -1.0134 -0.6478
 6883TIP3    H242141   3.256   3.885   2.698 -0.0294  1.0467  0.7259
 6884TIP3   OH242142   1.556   2.994   4.436 -1.2161 -0.6395  0.4300
 6884TIP3    H142143   1.606   3.026   4.361  0.5827 -0.2620  1.7296
 6884TIP3    H242144   1.533   2.904   4.413 -0.1964 -0.7233 -0.3334
 6885TIP3   OH242145   4.669   2.307  16.040 -0.0220 -0.3334  0.2130
 6885TIP3    H142146   4.617   2.240  16.085 -1.1182 -1.0560 -1.9772
 6885TIP3    H242147   4.755   2.302  16.082 -0.7342 -1.4801  1.6679
 6886TIP3   OH242148   1.500   0.851   3.760 -0.2849  0.0764  0.0047
 6886TIP3    H142149   1.478   0.759   3.744 -0.9044  0.3888 -1.0730
 6886TIP3    H242150   1.435   0.881   3.824  0.7232 -0.5512  1.3857
 6887TIP3   OH242151   6.189   2.025  16.432  0.1312  0.3923  0.9582
 6887TIP3    H142152   6.220   2.107  16.395  1.2873  0.3258  1.7353
 6887TIP3    H242153   6.114   2.050  16.487  0.2368  0.8697  0.8860
 6888TIP3   OH242154   5.396   2.889   0.082  0.3696  0.3868  0.3503
 6888TIP3    H142155   5.450   2.847   0.015  0.0212  2.1136 -1.1185
 6888TIP3    H242156   5.339   2.820   0.114  1.1305 -0.6881 -0.5274
 6889TIP3   OH242157   1.167   3.306   2.505 -0.1879 -0.0238  0.2625
 6889TIP3    H142158   1.104   3.240   2.477 -1.1086  1.2210 -0.7599
 6889TIP3    H242159   1.116   3.366   2.559  0.4826  0.1950  0.6622
 6890TIP3   OH242160   4.087   1.512   1.547  0.5259 -0.7316 -0.2838
 6890TIP3    H142161   4.087   1.417   1.561 -0.8460 -0.7888 -0.6074
 6890TIP3    H242162   4.166   1.529   1.496 -0.0793 -1.9223 -1.6589
 6891TIP3   OH242163   0.358   3.295   3.997  0.3340 -0.1327 -0.0965
 6891TIP3    H142164   0.282   3.242   4.023 -0.3696  0.6337 -0.5500
 6891TIP3    H242165   0.369   3.276   3.903 -0.0972  0.7333 -0.3263
 6892TIP3   OH242166   6.812   6.077   4.749 -0.6563  0.6089 -0.3205
 6892TIP3    H142167   6.851   6.149   4.700  2.0594 -0.3602  0.2103
 6892TIP3    H242168   6.856   6.080   4.834 -0.6169 -1.5016 -0.2120
 6893TIP3   OH242169   2.787   6.302  14.919 -0.0539  0.1010 -0.2210
 6893TIP3    H142170   2.774   6.251  14.839  0.7235 -0.8277  0.2224
 6893TIP3    H242171   2.786   6.393  14.890 -3.4000  0.0217 -0.7821
 6894TIP3   OH242172   2.911   6.175   2.718  0.3028  0.1415 -0.1271
 6894TIP3    H142173   3.003   6.160   2.696  0.3040 -1.3594  0.7332
 6894TIP3    H242174   2.867   6.179   2.634  1.0417  0.0207 -0.5302
 6895TIP3   OH242175   2.671   2.207  13.045 -1.0596 -0.0849  0.0582
 6895TIP3    H142176   2.761   2.175  13.043 -1.0075 -0.0075  0.7180
 6895TIP3    H242177   2.679   2.299  13.019 -0.7565  0.2924  1.4047
 6896TIP3   OH242178   3.301   0.314  11.919  0.2749  0.3888  0.0682
 6896TIP3    H142179   3.323   0.228  11.882 -2.1643  1.1108 -3.5375
 6896TIP3    H242180   3.373   0.371  11.892 -0.0761  0.2845 -1.1521
 6897TIP3   OH242181   4.373   5.525  16.012 -1.0099  0.1777 -0.7794
 6897TIP3    H142182   4.457   5.532  16.058 -0.0232  1.5963 -2.6441
 6897TIP3    H242183   4.321   5.467  16.066  2.0431 -2.9106 -0.7720
 6898TIP3   OH242184   1.506   4.233  11.745 -0.4675 -0.4151  0.7232
 6898TIP3    H142185   1.560   4.273  11.676 -0.5182 -0.1537  0.8360
 6898TIP3    H242186   1.463   4.306  11.788 -0.6081 -0.5953  0.8917
 6899TIP3   OH242187   6.170   5.613  13.569  0.7063 -0.2465 -0.2043
 6899TIP3    H142188   6.213   5.604  13.655  0.6230  0.9333 -0.0117
 6899TIP3    H242189   6.096   5.670  13.586 -0.2951 -1.3465 -0.7626
 6900TIP3   OH242190   2.376   3.167   4.672  0.4654 -0.0344 -0.1117
 6900TIP3    H142191   2.365   3.141   4.764  1.3944 -0.7233 -0.1823
 6900TIP3    H242192   2.471   3.169   4.659  0.4269  2.2913 -0.4422
 6901TIP3   OH242193   5.176   2.663   5.154 -0.2228  0.3253 -0.4108
 6901TIP3    H142194   5.141   2.608   5.083  1.4839 -0.8258 -0.4237
 6901TIP3    H242195   5.116   2.737   5.158 -1.8174 -0.8318 -1.3521
 6902TIP3   OH242196   1.128   1.737  13.499  0.5070 -0.0318 -0.9903
 6902TIP3    H142197   1.203   1.677  13.497  0.3982 -0.1626 -1.2428
 6902TIP3    H242198   1.167   1.824  13.498  0.7741 -0.0241  1.7483
 6903TIP3   OH242199   0.986   5.044  14.273  0.2080  0.3477 -0.1368
 6903TIP3    H142200   0.898   5.064  14.242  0.2655  0.9720  0.0834
 6903TIP3    H242201   1.010   5.119  14.327  0.9180  0.2400 -0.2848
 6904TIP3   OH242202   5.586   4.992   4.244 -0.3334  0.3037 -0.3836
 6904TIP3    H142203   5.668   4.954   4.212 -1.0663 -0.5058 -1.3988
 6904TIP3    H242204   5.610   5.078   4.278  0.9870 -0.0733 -0.3179
 6905TIP3   OH242205   4.030   6.572   1.719 -0.4922 -0.9090  0.0582
 6905TIP3    H142206   4.041   6.647   1.777  0.4373 -3.0011  2.8093
 6905TIP3    H242207   4.118   6.555   1.685 -0.0783 -2.3468  1.7035
 6906TIP3   OH242208   2.338   4.212  16.818 -1.1463 -0.0948 -0.6589
 6906TIP3    H142209   2.268   4.217  16.754  1.0835 -2.1419 -3.5747
 6906TIP3    H242210   2.374   4.124  16.807  2.8338  1.3084 -0.5183
 6907TIP3   OH242211   5.910   1.204  16.348 -0.1058  0.1842 -0.0484
 6907TIP3    H142212   5.914   1.226  16.255  2.2048  1.2615  0.2367
 6907TIP3    H242213   5.853   1.127  16.352 -0.0946 -0.0129 -2.3568
 6908TIP3   OH242214   0.804   6.593  15.221 -0.1943 -0.3913  0.6187
 6908TIP3    H142215   0.875   6.552  15.172  1.0433 -0.5600  2.4679
 6908TIP3    H242216   0.820   6.687  15.213 -1.4192 -0.2827 -1.2663
 6909TIP3   OH242217   5.678   3.409   1.626  0.5131 -0.0101 -0.0462
 6909TIP3    H142218   5.637   3.323   1.616 -0.0445  0.1490  0.7391
 6909TIP3    H242219   5.649   3.459   1.549 -0.2228 -0.1201  0.1475
 6910TIP3   OH242220   4.145   5.377  13.002  0.3462  0.2539 -0.1190
 6910TIP3    H142221   4.054   5.407  12.993 -1.0827 -3.2169  1.3280
 6910TIP3    H242222   4.152   5.348  13.092  2.8066  0.0134 -0.3397
 6911TIP3   OH242223   4.378   0.249  12.499 -0.2788 -0.1555  0.0099
 6911TIP3    H142224   4.451   0.300  12.463  0.7982 -0.7082  1.3329
 6911TIP3    H242225   4.330   0.219  12.422  0.7787  0.3729 -0.8898
 6912TIP3   OH242226   1.615   4.613   1.837  0.2576 -0.4389  0.1427
 6912TIP3    H142227   1.552   4.606   1.766 -0.8436 -1.0057  1.1515
 6912TIP3    H242228   1.670   4.688   1.814 -1.7163  1.0286 -0.0264
 6913TIP3   OH242229   5.903   3.557  14.817 -0.3218 -0.2177  0.0221
 6913TIP3    H142230   5.963   3.486  14.795  1.0385  1.0296 -0.4992
 6913TIP3    H242231   5.818   3.515  14.829  0.6223 -2.0375  0.6890
 6914TIP3   OH242232   0.870   1.271   5.584 -0.1261  0.5133  0.1216
 6914TIP3    H142233   0.934   1.204   5.560 -0.3518  0.8822 -1.6126
 6914TIP3    H242234   0.914   1.325   5.649  0.7529 -0.1598  0.0951
 6915TIP3   OH242235   2.450   1.536   5.122  0.4697  0.0535  0.0900
 6915TIP3    H142236   2.540   1.557   5.149  0.9636 -1.0351 -0.6199
 6915TIP3    H242237   2.396   1.560   5.197  1.1045  2.5483 -0.1870
 6916TIP3   OH242238   5.514   4.320  12.254  0.1255 -0.3401  0.2096
 6916TIP3    H142239   5.571   4.378  12.304 -0.6518  0.5866  0.0522
 6916TIP3    H242240   5.573   4.270  12.198  1.0080 -1.2851  1.8888
 6917TIP3   OH242241   5.705   6.273   1.711 -0.0305  0.3888  0.6107
 6917TIP3    H142242   5.669   6.192   1.747 -0.9663 -0.2769 -1.6155
 6917TIP3    H242243   5.794   6.250   1.685  0.4480  0.7108  1.9187
 6918TIP3   OH242244   3.246   2.031   5.644 -0.5535 -0.1120 -0.0987
 6918TIP3    H142245   3.284   1.944   5.657  0.7867  0.4683  0.1338
 6918TIP3    H242246   3.227   2.062   5.732 -0.9538 -0.1365 -0.1767
 6919TIP3   OH242247   4.241   1.458  15.412 -0.2429  0.0604  0.3273
 6919TIP3    H142248   4.281   1.454  15.499  0.2470 -0.5723  0.0799
 6919TIP3    H242249   4.245   1.550  15.388  3.0541 -0.1624 -0.5737
 6920TIP3   OH242250   3.561   6.325   6.534 -0.4902 -0.2267 -0.2384
 6920TIP3    H142251   3.587   6.412   6.504  1.3859 -0.2064  1.2812
 6920TIP3    H242252   3.548   6.335   6.629 -3.9536 -0.8035 -0.5152
 6921TIP3   OH242253   6.355   4.602   0.030 -0.0802  0.3452  0.2018
 6921TIP3    H142254   6.315   4.621   0.115 -0.1152 -0.4224  0.3595
 6921TIP3    H242255   6.281   4.586  -0.028 -0.0826  1.4487 -0.1319
 6922TIP3   OH242256   1.892   3.925   4.074  0.1720  0.2729  0.0725
 6922TIP3    H142257   1.805   3.961   4.055  0.2922 -0.1760 -1.4059
 6922TIP3    H242258   1.881   3.830   4.071  0.3694  0.1714  1.6117
 6923TIP3   OH242259   2.801   2.191  13.500  0.5422 -0.2243  0.2083
 6923TIP3    H142260   2.735   2.150  13.445 -1.0737  0.5313  1.5007
 6923TIP3    H242261   2.871   2.215  13.439 -0.8203 -0.1129 -1.3990
 6924TIP3   OH242262   4.251   3.885   4.967  0.1490 -0.1561 -0.0002
 6924TIP3    H142263   4.318   3.827   4.931 -0.2202 -1.0166  0.6702
 6924TIP3    H242264   4.263   3.880   5.062 -0.5954  0.0134  0.1110
 6925TIP3   OH242265   3.357   6.296  17.051 -0.1538  0.2810 -0.3141
 6925TIP3    H142266   3.354   6.201  17.058 -1.9322 -0.0206 -3.3591
 6925TIP3    H242267   3.283   6.326  17.103 -0.7101 -0.1850 -0.8148
 6926TIP3   OH242268   5.639   0.797   6.417 -0.3569 -0.0381  0.2977
 6926TIP3    H142269   5.558   0.761   6.381 -1.0409  4.0602 -3.0585
 6926TIP3    H242270   5.613   0.878   6.460  1.8265  1.9458 -1.7737
 6927TIP3   OH242271   4.771   4.786   1.563  0.1827  0.0090 -0.2929
 6927TIP3    H142272   4.814   4.870   1.546 -0.9862  0.9491  1.1792
 6927TIP3    H242273   4.691   4.789   1.511  0.7529 -0.7706 -1.2447
 6928TIP3   OH242274   4.775   3.174   2.326 -0.5073  0.2371  0.0525
 6928TIP3    H142275   4.834   3.182   2.250  0.0945  0.7205  0.5648
 6928TIP3    H242276   4.732   3.259   2.332 -0.9420  0.0273 -0.0535
 6929TIP3   OH242277   6.255   2.906  14.385  0.1303  0.2458 -0.7847
 6929TIP3    H142278   6.208   2.897  14.468 -0.5471  0.9023 -1.0944
 6929TIP3    H242279   6.330   2.961  14.406 -1.1580  2.1953 -1.0140
 6930TIP3   OH242280   4.125   0.741   3.661  0.3641 -0.5596  0.3253
 6930TIP3    H142281   4.076   0.812   3.620 -0.8532 -1.3803  0.3103
 6930TIP3    H242282   4.182   0.708   3.592 -1.7786 -2.0317 -0.8439
 6931TIP3   OH242283   5.707   2.916  11.458 -0.1717 -0.0361 -0.3093
 6931TIP3    H142284   5.794   2.940  11.425 -0.0899 -0.5042 -0.4329
 6931TIP3    H242285   5.646   2.959  11.398 -0.0319  0.4733 -0.0956
 6932TIP3   OH242286   3.437   0.770  17.150 -0.1359  0.2094 -0.0666
 6932TIP3    H142287   3.403   0.820  17.224 -1.2197 -0.8645  0.2088
 6932TIP3    H242288   3.400   0.813  17.072 -0.1487  0.4948  0.0975
 6933TIP3   OH242289   2.195   2.401   4.925 -0.5004  0.0150 -0.1621
 6933TIP3    H142290   2.263   2.375   4.864 -2.5152  0.0898 -2.6134
 6933TIP3    H242291   2.191   2.330   4.989 -0.8620 -2.1051 -2.3969
 6934TIP3   OH242292   4.573   0.533  12.068 -0.2220 -0.2140  0.2434
 6934TIP3    H142293   4.546   0.545  11.978  1.8801 -0.8339 -0.5355
 6934TIP3    H242294   4.546   0.444  12.090  2.2943 -1.3634 -1.0143
 6935TIP3   OH242295   1.659   1.855   3.508 -0.0981 -0.0195 -0.3280
 6935TIP3    H142296   1.636   1.879   3.419 -0.6378 -1.1187 -0.5041
 6935TIP3    H242297   1.657   1.937   3.557 -0.1109  0.5434 -1.2501
 6936TIP3   OH242298   6.732   0.768   3.273 -0.0978  0.1264 -0.1542
 6936TIP3    H142299   6.759   0.683   3.236  1.6566  0.4233  0.3684
 6936TIP3    H242300   6.776   0.772   3.358 -0.0365  1.6157 -0.2363
 6937TIP3   OH242301   4.552   3.643  11.077  0.6032 -0.4593  0.5810
 6937TIP3    H142302   4.519   3.556  11.095  1.0339 -0.1089  3.5288
 6937TIP3    H242303   4.636   3.647  11.123  0.7286  1.4292  0.2852
 6938TIP3   OH242304   0.852   0.186   0.311 -0.1912  0.0273 -0.5440
 6938TIP3    H142305   0.870   0.274   0.344 -0.6308 -0.0333 -0.1259
 6938TIP3    H242306   0.775   0.157   0.360 -0.4488 -0.3352 -1.1513
 6939TIP3   OH242307   5.521   6.766  13.645 -0.2444  0.3986 -0.3451
 6939TIP3    H142308   5.591   6.706  13.673  1.4476  2.0547 -0.8248
 6939TIP3    H242309   5.517   6.753  13.550  1.6717  2.5025 -0.7901
 6940TIP3   OH242310   6.722   1.257   1.046 -0.0855  0.5825  0.2644
 6940TIP3    H142311   6.717   1.219   0.958  0.1588  1.2965 -0.0664
 6940TIP3    H242312   6.744   1.183   1.103 -2.2770 -0.3110  0.0471
 6941TIP3   OH242313   3.587   3.520   0.414  0.0229 -0.1599 -0.0710
 6941TIP3    H142314   3.625   3.548   0.498  0.6676  0.2706 -0.4964
 6941TIP3    H242315   3.570   3.601   0.367 -0.0967 -0.4111 -0.4634
 6942TIP3   OH242316   4.321   6.578   5.818 -0.8732 -0.1234  0.2910
 6942TIP3    H142317   4.250   6.525   5.856 -1.9436  1.3655  0.4720
 6942TIP3    H242318   4.284   6.666   5.812  1.6202  1.1546  2.1857
 6943TIP3   OH242319   3.984   4.428  13.197 -0.0362  0.7311 -0.0485
 6943TIP3    H142320   3.975   4.333  13.194  0.7903  0.6103  0.6995
 6943TIP3    H242321   4.009   4.446  13.288 -0.3751  1.6822 -0.1383
 6944TIP3   OH242322   6.323   0.881  14.561 -0.1596 -0.0594  0.9602
 6944TIP3    H142323   6.344   0.969  14.532  1.7678  0.1080  2.6025
 6944TIP3    H242324   6.319   0.829  14.481 -0.2227  1.3034  0.0502
 6945TIP3   OH242325   5.802   2.137   4.986 -0.1157  0.0055 -0.4284
 6945TIP3    H142326   5.893   2.155   4.962  0.7620  0.4875  2.7781
 6945TIP3    H242327   5.806   2.054   5.033 -1.2389  0.2688  0.1572
 6946TIP3   OH242328   4.809   2.189   0.107  0.7563  0.0754 -0.1635
 6946TIP3    H142329   4.716   2.168   0.107  0.3309  1.7632 -0.8305
 6946TIP3    H242330   4.838   2.170   0.196 -0.2835 -0.2416  0.1257
 6947TIP3   OH242331   3.083   5.324   4.346  0.4086 -0.1986 -0.6597
 6947TIP3    H142332   3.020   5.369   4.291 -0.2038  0.5379  0.6154
 6947TIP3    H242333   3.119   5.392   4.403  0.1329 -1.1285  0.6756
 6948TIP3   OH242334   4.559   3.890   3.113  0.5321 -0.0166  0.6065
 6948TIP3    H142335   4.464   3.893   3.100  0.7164 -1.2021 -1.6976
 6948TIP3    H242336   4.589   3.977   3.089  0.0217  0.4335  1.5571
 6949TIP3   OH242337   5.893   0.647  10.863 -0.0798  0.4328  0.5109
 6949TIP3    H142338   5.825   0.607  10.917  0.7161  0.3281  1.4510
 6949TIP3    H242339   5.931   0.715  10.918  2.1535 -1.0232  0.8945
 6950TIP3   OH242340   3.912   3.599  10.969  0.5573 -0.2391  0.4762
 6950TIP3    H142341   3.829   3.646  10.955  0.3507 -0.8211 -0.3026
 6950TIP3    H242342   3.975   3.646  10.915  0.4487 -0.5866  0.0474
 6951TIP3   OH242343   0.183   5.140  15.764  0.2553 -0.5054  0.7225
 6951TIP3    H142344   0.199   5.055  15.723  1.0579 -0.7416  1.4877
 6951TIP3    H242345   0.215   5.204  15.701 -0.5056 -0.7582  0.0689
 6952TIP3   OH242346   1.770   3.340  15.283 -0.1944  0.0927 -0.0513
 6952TIP3    H142347   1.784   3.383  15.199  0.8725 -0.1409 -0.0059
 6952TIP3    H242348   1.855   3.344  15.327 -0.1688 -1.6265  0.1522
 6953TIP3   OH242349   3.525   2.594   0.179 -0.0753  0.3624 -0.0927
 6953TIP3    H142350   3.600   2.580   0.121  0.5229  2.2675  0.1469
 6953TIP3    H242351   3.544   2.676   0.223 -1.2621 -0.2644  1.6835
 6954TIP3   OH242352   4.793   5.078   0.786 -0.5045  0.3767 -0.1572
 6954TIP3    H142353   4.721   5.086   0.724  0.6119 -0.9517 -1.7022
 6954TIP3    H242354   4.758   5.023   0.856 -1.5652  1.3249  0.0831
 6955TIP3   OH242355   4.936   1.237  11.020 -0.2835 -0.1851 -0.0540
 6955TIP3    H142356   4.904   1.296  10.952  0.7439  0.4842  0.0302
 6955TIP3    H242357   4.999   1.181  10.976 -1.8074 -1.7912 -0.3151
 6956TIP3   OH242358   4.267   2.285  16.447 -0.2016 -0.2522  0.6026
 6956TIP3    H142359   4.231   2.365  16.408  0.1572 -0.4484 -0.1438
 6956TIP3    H242360   4.211   2.215  16.412 -0.5472 -0.3300  1.2963
 6957TIP3   OH242361   1.002   1.940   0.825 -0.1781 -0.5821 -0.0054
 6957TIP3    H142362   1.023   1.951   0.732  1.3768  2.8134  0.5758
 6957TIP3    H242363   1.072   1.884   0.859 -0.3977 -1.3223 -0.7263
 6958TIP3   OH242364   3.381   2.025   2.859 -0.1211 -0.0087  0.4824
 6958TIP3    H142365   3.449   2.001   2.922  2.3171 -0.6619 -2.1751
 6958TIP3    H242366   3.368   1.946   2.807 -1.2700  0.8104 -0.5247
 6959TIP3   OH242367   4.174   0.580  12.181  0.1686 -0.4260  0.1919
 6959TIP3    H142368   4.158   0.674  12.188 -3.2653 -0.9574  0.8181
 6959TIP3    H242369   4.181   0.550  12.271  1.6608 -0.7912 -0.0083
 6960TIP3   OH242370   1.787   0.724  10.819  0.5638  0.0724  1.0065
 6960TIP3    H142371   1.837   0.673  10.756  0.1809  0.2399  0.5626
 6960TIP3    H242372   1.698   0.725  10.784 -0.0804 -1.3702  2.4605
 6961TIP3   OH242373   2.562   5.261   0.490  0.3558  0.1132  0.3174
 6961TIP3    H142374   2.646   5.259   0.535  1.2890  0.2044 -1.3545
 6961TIP3    H242375   2.536   5.169   0.483 -0.1573  0.1381  1.6391
 6962TIP3   OH242376   4.572   2.027  12.622  0.1016  0.1783 -0.3835
 6962TIP3    H142377   4.629   1.980  12.560 -0.2242 -0.6771 -0.0352
 6962TIP3    H242378   4.520   1.959  12.664  0.1993  0.7636  0.7252
 6963TIP3   OH242379   4.160   4.732   1.824  0.1243 -0.1884 -0.2480
 6963TIP3    H142380   4.216   4.710   1.898  0.7240 -1.9429 -1.1626
 6963TIP3    H242381   4.161   4.828   1.822 -1.5688  0.0445  3.1739
 6964TIP3   OH242382   1.742   6.531  14.138  0.1843 -0.0958 -0.3905
 6964TIP3    H142383   1.766   6.622  14.154  1.1631 -0.1857 -1.2148
 6964TIP3    H242384   1.648   6.532  14.122  0.5336  1.1263 -2.7341
 6965TIP3   OH242385   3.313   5.684  16.860  0.2613  0.0587 -0.4232
 6965TIP3    H142386   3.402   5.675  16.826  0.4662  2.1809 -0.5651
 6965TIP3    H242387   3.275   5.757  16.811 -1.9595 -1.4489 -1.0936
 6966TIP3   OH242388   0.634   1.694   0.438 -0.2967  0.0739  0.1633
 6966TIP3    H142389   0.682   1.616   0.411  1.7726  1.2301  0.3219
 6966TIP3    H242390   0.625   1.685   0.533 -1.9920 -0.9477 -0.0407
 6967TIP3   OH242391   6.072   6.175  13.205 -0.5792 -0.2953  0.4748
 6967TIP3    H142392   6.055   6.148  13.115 -0.6805  1.2855 -0.0098
 6967TIP3    H242393   6.167   6.175  13.213 -0.4101  2.4036 -0.6125
 6968TIP3   OH242394   1.205   1.007  12.014  0.4262  0.3271  0.3224
 6968TIP3    H142395   1.203   0.928  12.067  1.5786  0.8606  1.2071
 6968TIP3    H242396   1.295   1.013  11.983  0.1034  0.7600 -0.5835
 6969TIP3   OH242397   0.795   1.242   6.327 -0.0997  0.5352 -0.3764
 6969TIP3    H142398   0.878   1.261   6.283 -0.3266 -1.9968 -2.0857
 6969TIP3    H242399   0.772   1.324   6.370  2.8967  1.5451 -0.4399
 6970TIP3   OH242400   3.383   0.510   5.565  0.6038 -0.0488  0.1950
 6970TIP3    H142401   3.319   0.476   5.627  0.6547  1.5871  1.1758
 6970TIP3    H242402   3.349   0.484   5.479  0.0260 -1.4735  0.8182
 6971TIP3   OH242403   2.422   3.182  15.453 -0.5600 -0.0938 -0.0752
 6971TIP3    H142404   2.472   3.185  15.372 -0.4693  0.1393 -0.0109
 6971TIP3    H242405   2.381   3.268  15.460  0.3915  0.3116  0.7274
 6972TIP3   OH242406   3.025   3.534  10.727 -0.8475  0.2150  0.6768
 6972TIP3    H142407   3.051   3.523  10.818  0.0018  0.1551  0.4390
 6972TIP3    H242408   3.024   3.628  10.713  0.9313  0.1930  0.2376
 6973TIP3   OH242409   0.386   2.303  14.815 -0.0664 -0.0971 -0.4951
 6973TIP3    H142410   0.308   2.251  14.795 -0.3270 -0.1964  0.6889
 6973TIP3    H242411   0.434   2.250  14.879  1.7947 -0.7550 -2.3334
 6974TIP3   OH242412   2.242   2.658  12.222 -0.6998  0.4530 -0.1007
 6974TIP3    H142413   2.320   2.692  12.267 -0.4846  0.2327 -0.3014
 6974TIP3    H242414   2.218   2.728  12.161  0.3981 -0.1617 -1.3049
 6975TIP3   OH242415   3.891   3.372   4.885  0.6488  0.1473 -0.1800
 6975TIP3    H142416   3.822   3.429   4.918  0.5714 -0.8656  1.4785
 6975TIP3    H242417   3.970   3.427   4.885  0.4122  0.4874  0.6255
 6976TIP3   OH242418   1.101   3.609  16.691 -0.0337 -0.7996 -0.2951
 6976TIP3    H142419   1.020   3.578  16.651 -2.4425  0.1243  3.3294
 6976TIP3    H242420   1.129   3.682  16.637 -1.7746 -0.9856 -1.5203
 6977TIP3   OH242421   1.319   2.103   5.227 -0.1751  0.0770  0.0758
 6977TIP3    H142422   1.372   2.036   5.183 -0.7925  0.3666 -1.1563
 6977TIP3    H242423   1.240   2.110   5.172 -0.0893  1.8659  0.1479
 6978TIP3   OH242424   0.796   0.599   4.360  0.0914  0.3797  0.2201
 6978TIP3    H142425   0.877   0.621   4.313  0.6121  0.5916  1.1682
 6978TIP3    H242426   0.818   0.616   4.452 -0.6294 -0.7584  0.6246
 6979TIP3   OH242427   1.351   0.809  13.566 -0.5072  0.7457 -0.4399
 6979TIP3    H142428   1.264   0.780  13.593 -0.9330  1.8921 -0.5134
 6979TIP3    H242429   1.336   0.854  13.482  0.3248  0.0131 -0.9957
 6980TIP3   OH242430   3.847   6.258   2.159 -0.5909  0.0644  0.3986
 6980TIP3    H142431   3.789   6.215   2.096 -1.8477  1.2827  0.6710
 6980TIP3    H242432   3.796   6.262   2.240 -0.7155  2.4078  0.2746
 6981TIP3   OH242433   3.742   0.281   0.850 -0.3668 -0.0377  0.4026
 6981TIP3    H142434   3.647   0.271   0.856 -0.5509  0.3903 -1.2273
 6981TIP3    H242435   3.772   0.198   0.813 -0.2268  0.1671  0.0505
 6982TIP3   OH242436   1.992   0.536   1.046  0.1315  0.0411 -0.3959
 6982TIP3    H142437   1.999   0.628   1.070 -0.2248 -0.2485  0.8800
 6982TIP3    H242438   2.074   0.517   1.000 -0.1633  1.2051 -1.4594
 6983TIP3   OH242439   1.249   5.067  13.648 -0.7646 -0.1346  0.0503
 6983TIP3    H142440   1.314   4.997  13.653 -1.1201 -0.3952  1.3010
 6983TIP3    H242441   1.183   5.034  13.588 -1.0219 -0.9641  0.7791
 6984TIP3   OH242442   6.082   5.622   6.110 -0.9310  1.0193 -0.0440
 6984TIP3    H142443   6.103   5.540   6.157 -2.2661 -0.9371 -2.6203
 6984TIP3    H242444   6.076   5.688   6.180 -1.2417 -1.3511  2.3546
 6985TIP3   OH242445   4.810   3.360  10.534  0.3654 -0.4496 -0.1982
 6985TIP3    H142446   4.723   3.399  10.525  1.3759  1.9174 -0.2956
 6985TIP3    H242447   4.817   3.338  10.627 -0.3392 -0.7308 -0.2028
 6986TIP3   OH242448   4.482   3.137   3.422 -0.1336  0.5872  0.3186
 6986TIP3    H142449   4.462   3.157   3.514 -0.4816 -0.8695  0.5821
 6986TIP3    H242450   4.561   3.083   3.426 -1.1995 -1.0570 -0.0813
 6987TIP3   OH242451   4.744   3.624  13.627 -0.0500  0.1547  0.4397
 6987TIP3    H142452   4.730   3.609  13.534 -1.4871  1.7932  0.3523
 6987TIP3    H242453   4.658   3.648  13.661  0.1005 -1.8961  2.5440
 6988TIP3   OH242454   3.183   0.545  14.052 -0.5851 -0.2108 -0.0067
 6988TIP3    H142455   3.250   0.566  13.986  0.0291 -1.3999  0.2124
 6988TIP3    H242456   3.207   0.597  14.129 -1.4162  1.3406 -0.7300
 6989TIP3   OH242457   2.276   5.857  15.064  0.1617 -0.9395  0.9000
 6989TIP3    H142458   2.315   5.817  15.142  0.2222  0.3913  1.5715
 6989TIP3    H242459   2.235   5.937  15.096 -0.2016 -0.6029 -0.3660
 6990TIP3   OH242460   0.743   2.050   1.420  0.2058 -0.0133 -0.4082
 6990TIP3    H142461   0.771   1.959   1.409  1.3777  0.3140 -0.2032
 6990TIP3    H242462   0.669   2.059   1.360  0.1475 -1.0679 -0.5179
 6991TIP3   OH242463   0.716   2.389   5.664 -0.7459 -0.8766 -0.3793
 6991TIP3    H142464   0.638   2.425   5.620  0.4700  0.9794 -1.1580
 6991TIP3    H242465   0.776   2.367   5.592  0.1988 -0.4391  0.2582
 6992TIP3   OH242466   2.298   6.067  14.702 -0.1438 -0.7305  0.2399
 6992TIP3    H142467   2.271   6.122  14.776 -3.1105  0.3342 -1.4680
 6992TIP3    H242468   2.249   5.986  14.713 -2.2708  0.2167 -1.5265
 6993TIP3   OH242469   1.790   0.414   0.418 -0.3549  0.3132 -0.0910
 6993TIP3    H142470   1.800   0.494   0.470 -1.0414 -1.0044  2.2530
 6993TIP3    H242471   1.697   0.411   0.396 -0.3327  0.1456 -0.1649
 6994TIP3   OH242472   1.743   2.890   5.147 -0.2751  0.0240 -0.4226
 6994TIP3    H142473   1.786   2.829   5.206  0.0154  0.0954 -0.5579
 6994TIP3    H242474   1.708   2.958   5.205 -0.4034 -0.1525 -0.2925
 6995TIP3   OH242475   2.236   5.273   0.491 -0.0219 -0.3369 -0.2816
 6995TIP3    H142476   2.250   5.302   0.581  0.9432 -0.1841 -0.4702
 6995TIP3    H242477   2.294   5.198   0.481 -2.3391 -2.3086  0.1411
 6996TIP3   OH242478   0.369   5.017   4.337 -0.4282 -0.7776 -0.2325
 6996TIP3    H142479   0.407   5.101   4.309 -1.4678  0.2930  1.3882
 6996TIP3    H242480   0.415   4.952   4.285  0.6448  0.7714 -1.3299
 6997TIP3   OH242481   3.974   5.220   3.814  0.1213 -0.0497  0.0914
 6997TIP3    H142482   3.892   5.247   3.773  0.4468 -0.5030 -0.8827
 6997TIP3    H242483   4.003   5.296   3.864 -1.2142 -0.0982  0.9868
 6998TIP3   OH242484   4.440   2.653  11.788 -0.0577 -0.1494  0.4421
 6998TIP3    H142485   4.463   2.576  11.735  1.1336  0.1251  0.5406
 6998TIP3    H242486   4.442   2.622  11.878 -1.0443 -0.3548  0.4056
 6999TIP3   OH242487   2.469   2.119  13.277  0.2559 -0.2318  0.8539
 6999TIP3    H142488   2.529   2.153  13.210 -1.4071  1.8595  0.3325
 6999TIP3    H242489   2.392   2.090  13.228  0.1632 -1.4040  1.6459
 7000TIP3   OH242490   1.881   3.914  15.181 -0.2743  0.4992  0.5212
 7000TIP3    H142491   1.974   3.934  15.177 -0.6903  2.3778 -1.2923
 7000TIP3    H242492   1.863   3.864  15.101 -0.5313 -1.5536  1.7780
 7001TIP3   OH242493   0.754   5.895  12.457 -0.2787  0.2504  0.4763
 7001TIP3    H142494   0.728   5.936  12.540  0.0897 -1.3426  1.4037
 7001TIP3    H242495   0.741   5.964  12.392  1.8953  2.4208  2.1660
 7002TIP3   OH242496   3.280   0.753  11.844  0.1969 -0.0281  0.2898
 7002TIP3    H142497   3.275   0.672  11.793 -0.7695 -0.1652  0.5792
 7002TIP3    H242498   3.195   0.758  11.888  0.5152  0.7866  0.8191
 7003TIP3   OH242499   4.482   1.399  14.355  0.0185 -0.5173 -0.0581
 7003TIP3    H142500   4.554   1.351  14.397 -0.1744 -0.2973  0.5397
 7003TIP3    H242501   4.421   1.331  14.327 -0.0167 -0.6572  0.3401
 7004TIP3   OH242502   3.673   4.446  11.129 -0.0211  0.0491  0.3155
 7004TIP3    H142503   3.758   4.447  11.085  0.6548 -0.1371  1.5660
 7004TIP3    H242504   3.632   4.364  11.101  0.2083  0.1394 -0.2903
 7005TIP3   OH242505   4.940   3.215  14.422 -0.2845 -0.2818  0.4528
 7005TIP3    H142506   4.869   3.246  14.478 -1.6610  1.2726 -1.9776
 7005TIP3    H242507   4.927   3.120  14.416 -1.7041 -0.1113  0.6602
 7006TIP3   OH242508   0.883   3.797   3.852  0.2044 -0.2160 -0.0093
 7006TIP3    H142509   0.942   3.815   3.925  1.0963 -0.4936 -0.6481
 7006TIP3    H242510   0.919   3.847   3.779 -0.6198 -0.0295 -0.2986
 7007TIP3   OH242511   5.300   1.284  13.987 -0.1302 -0.0188 -0.0579
 7007TIP3    H142512   5.327   1.192  13.995  0.0335  0.1600  2.3494
 7007TIP3    H242513   5.371   1.333  14.027 -0.9830  1.0117  0.2303
 7008TIP3   OH242514   5.353   3.494  14.973  0.1955 -0.2915 -0.2344
 7008TIP3    H142515   5.316   3.582  14.978 -1.5832 -1.0160  0.3239
 7008TIP3    H242516   5.294   3.440  15.026  0.2285 -2.1251 -1.9169
 7009TIP3   OH242517   2.775   1.567  12.347 -0.3787 -0.2367 -0.1710
 7009TIP3    H142518   2.800   1.503  12.414 -0.4307 -0.2752 -0.1878
 7009TIP3    H242519   2.790   1.652  12.388  1.9622 -0.2089 -0.9454
 7010TIP3   OH242520   5.997   4.417   1.945  0.4012  0.2202  0.7182
 7010TIP3    H142521   6.037   4.337   1.912 -0.6999 -1.1452  2.4565
 7010TIP3    H242522   5.904   4.408   1.924  0.4978  2.0487 -0.8430
 7011TIP3   OH242523   3.283   4.426   3.512  0.0049 -0.4231 -0.1916
 7011TIP3    H142524   3.242   4.476   3.442  1.8599  0.1971 -0.8995
 7011TIP3    H242525   3.265   4.334   3.490 -2.5732 -0.1809  0.5895
 7012TIP3   OH242526   3.214   0.612   4.949  0.0245  0.3313  0.1856
 7012TIP3    H142527   3.237   0.569   4.867  1.2300  2.7986 -0.8630
 7012TIP3    H242528   3.217   0.705   4.929 -2.4007  1.0071  2.3405
 7013TIP3   OH242529   5.626   0.379   0.546 -0.0999  0.0809 -0.3988
 7013TIP3    H142530   5.631   0.463   0.499 -0.6389  0.6615  0.5526
 7013TIP3    H242531   5.552   0.389   0.606  0.1244 -0.9081  0.0663
 7014TIP3   OH242532   0.714   1.547   4.426 -0.2489  0.2560 -0.1058
 7014TIP3    H142533   0.625   1.535   4.459  0.8219  0.9817  3.5280
 7014TIP3    H242534   0.765   1.476   4.465  0.8980  0.0593 -1.8227
 7015TIP3   OH242535   5.247   6.091   4.051 -0.2293  0.4005  0.0652
 7015TIP3    H142536   5.296   6.133   4.122 -0.6238  1.6748 -0.3873
 7015TIP3    H242537   5.155   6.106   4.073 -0.4075 -0.9703  0.3140
 7016TIP3   OH242538   0.866   4.598  12.659  0.2633 -0.2884 -0.5825
 7016TIP3    H142539   0.866   4.561  12.570  0.8872 -2.1103  0.1191
 7016TIP3    H242540   0.909   4.531  12.712 -2.5675 -0.5846  1.6115
 7017TIP3   OH242541   4.357   5.637  14.378 -0.5511  0.0050 -0.1034
 7017TIP3    H142542   4.343   5.551  14.417 -1.7606  0.8168  1.3629
 7017TIP3    H242543   4.363   5.620  14.284 -0.9725 -1.6533  0.1383
 7018TIP3   OH242544   4.171   3.891  16.237 -0.2133  0.0406 -0.1494
 7018TIP3    H142545   4.232   3.830  16.279  0.4131  1.2377  0.7401
 7018TIP3    H242546   4.113   3.835  16.186  0.8111 -1.2375  0.0278
 7019TIP3   OH242547   2.374   5.886   3.965 -0.7126 -0.2559  0.1595
 7019TIP3    H142548   2.347   5.937   4.041 -2.5695 -0.4158 -0.3551
 7019TIP3    H242549   2.430   5.946   3.915 -1.3776  0.6551  0.4779
 7020TIP3   OH242550   0.032   3.582   0.341  0.0449 -0.2934  0.3684
 7020TIP3    H142551  -0.001   3.493   0.332 -1.4494  0.1941  0.8382
 7020TIP3    H242552  -0.046   3.638   0.338  0.6642  0.8229  2.6772
 7021TIP3   OH242553   5.362   6.597  11.352  0.1764  0.1282 -0.1237
 7021TIP3    H142554   5.394   6.591  11.262  0.8233  0.5861  0.0626
 7021TIP3    H242555   5.352   6.507  11.381 -0.7183 -0.0249 -0.8873
 7022TIP3   OH242556   3.692   6.093   1.991 -1.1890 -0.4464 -0.3222
 7022TIP3    H142557   3.606   6.068   2.023 -2.0198 -0.7479 -2.5919
 7022TIP3    H242558   3.733   6.010   1.965 -1.3832 -0.0829 -1.8825
 7023TIP3   OH242559   2.511   4.892   2.455 -0.6008  0.0726  0.4947
 7023TIP3    H142560   2.590   4.912   2.406  0.4983 -1.0399  1.7209
 7023TIP3    H242561   2.442   4.886   2.389  0.8251 -1.4720 -0.9500
 7024TIP3   OH242562   4.629   6.350   0.227 -0.7341 -0.2990 -0.0745
 7024TIP3    H142563   4.572   6.326   0.300 -2.2092 -1.0002 -1.3980
 7024TIP3    H242564   4.674   6.269   0.204  0.9675  0.2579  1.0001
 7025TIP3   OH242565   1.769   4.948   5.631 -0.3227 -0.2213 -1.1307
 7025TIP3    H142566   1.821   4.896   5.693 -2.3392 -1.4217 -0.3459
 7025TIP3    H242567   1.684   4.957   5.674 -0.8377  1.5811 -2.4188
 7026TIP3   OH242568   0.218   6.800   5.398  0.3743  0.2098  0.2569
 7026TIP3    H142569   0.230   6.731   5.463  0.4984 -0.5827 -0.5845
 7026TIP3    H242570   0.302   6.846   5.396  1.1765 -1.2091 -0.9466
 7027TIP3   OH242571   2.644   2.226  14.454 -0.0847  0.2564 -0.0238
 7027TIP3    H142572   2.666   2.133  14.454 -3.3843 -0.6709 -0.5965
 7027TIP3    H242573   2.611   2.243  14.366 -3.0672  0.8504  1.0630
 7028TIP3   OH242574   3.792   2.009  14.673  0.4120 -0.1598 -0.2740
 7028TIP3    H142575   3.868   1.984  14.621  0.6590 -1.4360  0.6306
 7028TIP3    H242576   3.717   1.986  14.619  0.6673 -0.6710 -0.4172
 7029TIP3   OH242577   3.938   6.147  14.412 -0.0286 -0.4361 -0.0982
 7029TIP3    H142578   3.950   6.052  14.409 -0.8655 -0.5297 -2.0077
 7029TIP3    H242579   3.848   6.158  14.444 -0.1724 -0.3261 -0.5313
 7030TIP3   OH242580   2.130   2.433  14.192  0.2405  0.7898 -0.0866
 7030TIP3    H142581   2.070   2.378  14.241 -1.2181  2.4428  0.0811
 7030TIP3    H242582   2.083   2.516  14.179  2.8101  2.5543  0.9028
 7031TIP3   OH242583   4.670   0.015   3.576  0.0974 -0.0723 -0.5495
 7031TIP3    H142584   4.732  -0.050   3.542 -1.3687 -0.6888 -2.1746
 7031TIP3    H242585   4.627  -0.029   3.650  0.1198 -0.4210 -0.7420
 7032TIP3   OH242586   6.491   4.766  14.759  0.4320  0.5688  0.4990
 7032TIP3    H142587   6.459   4.676  14.744  2.2803 -0.3944  1.9015
 7032TIP3    H242588   6.455   4.790  14.844  0.2978  1.0097  0.3193
 7033TIP3   OH242589   5.198   6.367   2.225 -0.3200 -0.0372  0.2351
 7033TIP3    H142590   5.165   6.437   2.281 -0.5944  2.7773 -3.1316
 7033TIP3    H242591   5.293   6.375   2.229 -0.3149 -0.2474  0.6804
 7034TIP3   OH242592   0.873   2.977   0.258  0.4647  0.5285  0.3270
 7034TIP3    H142593   0.898   3.069   0.259  0.8175  0.4300  0.7014
 7034TIP3    H242594   0.888   2.949   0.168  1.0638  0.6477  0.3898
 7035TIP3   OH242595   1.860   2.966  11.528 -0.0320 -0.0546 -0.0613
 7035TIP3    H142596   1.897   2.938  11.444 -3.3810 -0.6932 -1.4698
 7035TIP3    H242597   1.803   2.893  11.554 -1.1539  1.2790  1.3776
 7036TIP3   OH242598   1.606   2.150   1.119 -0.5191 -0.5645  0.0728
 7036TIP3    H142599   1.572   2.121   1.034 -0.4820 -1.8900  0.4942
 7036TIP3    H242600   1.576   2.084   1.181 -0.1202  0.1195  1.0271
 7037TIP3   OH242601   0.133   5.675   4.257  0.1295 -0.3462 -0.4694
 7037TIP3    H142602   0.144   5.671   4.162 -2.6352 -1.7380 -0.8550
 7037TIP3    H242603   0.200   5.618   4.293  0.8766 -0.2044 -1.6186
 7038TIP3   OH242604   2.554   2.119   0.386 -0.1319  0.0422  0.5278
 7038TIP3    H142605   2.583   2.137   0.297  1.7019  1.3251  1.3006
 7038TIP3    H242606   2.592   2.034   0.407 -1.4192 -0.7290 -0.2374
 7039TIP3   OH242607   2.431   2.330  16.125  0.4859 -0.1230 -0.1916
 7039TIP3    H142608   2.466   2.246  16.153  0.5272 -0.2105 -0.5021
 7039TIP3    H242609   2.392   2.368  16.204 -0.9936 -1.1602 -0.3749
 7040TIP3   OH242610   0.171   1.674  14.385  0.5665  0.1654  0.7112
 7040TIP3    H142611   0.199   1.604  14.326  1.0829  0.1676  0.9545
 7040TIP3    H242612   0.118   1.732  14.330 -0.8877 -1.0340  0.7609
 7041TIP3   OH242613   2.873   2.021   1.093  0.3145 -0.0498  0.5020
 7041TIP3    H142614   2.961   2.015   1.129  0.5867  0.0613 -0.1207
 7041TIP3    H242615   2.846   2.112   1.108  1.1644  0.5340 -1.1857
 7042TIP3   OH242616   2.190   0.303  12.075 -0.2127 -0.5747  0.4681
 7042TIP3    H142617   2.174   0.371  12.141 -0.7343 -0.8151  0.5961
 7042TIP3    H242618   2.123   0.319  12.008  0.3662 -0.2809 -0.0483
 7043TIP3   OH242619   5.100   4.304   2.914 -0.0136 -0.3321  0.5136
 7043TIP3    H142620   5.086   4.397   2.900 -1.1871 -0.6401 -0.5578
 7043TIP3    H242621   5.192   4.290   2.893 -0.2587  0.2911 -1.1956
 7044TIP3   OH242622   3.679   4.487   3.761 -0.6034 -0.0380 -0.0213
 7044TIP3    H142623   3.714   4.455   3.844  1.9566  1.2724 -0.4636
 7044TIP3    H242624   3.694   4.581   3.764  0.2762 -0.0528 -2.2253
 7045TIP3   OH242625   1.627   4.043  15.976 -0.1420  0.0192 -0.0322
 7045TIP3    H142626   1.692   3.982  16.012  0.8514  1.3255  0.4976
 7045TIP3    H242627   1.546   4.022  16.023  0.5705  0.1419  1.3225
 7046TIP3   OH242628   6.112   1.827   5.812 -0.1043  0.2585  0.2459
 7046TIP3    H142629   6.034   1.772   5.814 -0.6004  0.3556 -4.4796
 7046TIP3    H242630   6.081   1.913   5.840 -1.1871 -0.1791  0.4500
 7047TIP3   OH242631   4.189   3.216  14.270 -0.4282  0.2317  1.1213
 7047TIP3    H142632   4.271   3.175  14.241  0.3140  2.1104  0.3734
 7047TIP3    H242633   4.125   3.145  14.270  0.9122 -1.0318  0.4699
 7048TIP3   OH242634   5.783   3.321   2.427 -0.4115  0.0843  0.3440
 7048TIP3    H142635   5.783   3.225   2.436 -2.3363 -0.2472 -2.0406
 7048TIP3    H242636   5.875   3.342   2.409 -0.0551 -1.4160  0.2133
 7049TIP3   OH242637   6.524   2.711  15.608  0.7263  0.4720 -0.1189
 7049TIP3    H142638   6.487   2.793  15.641  0.7927  1.5147 -2.3930
 7049TIP3    H242639   6.611   2.707  15.647 -0.2306  0.0505  2.1260
 7050TIP3   OH242640   1.076   3.255   1.333  0.3958 -0.1739 -0.3614
 7050TIP3    H142641   1.159   3.263   1.380  0.7133  0.1130 -0.9584
 7050TIP3    H242642   1.021   3.202   1.391  0.8566 -0.0318  0.2185
 7051TIP3   OH242643   2.622   5.415  13.067  0.2551  0.0440 -0.8436
 7051TIP3    H142644   2.611   5.425  13.162  1.1314  1.4930 -0.8758
 7051TIP3    H242645   2.542   5.370  13.039 -0.8392  1.1608  0.3488
 7052TIP3   OH242646   3.176   2.254   3.318 -0.2440 -0.0593 -0.1168
 7052TIP3    H142647   3.144   2.315   3.385 -0.4175 -1.9721  1.6423
 7052TIP3    H242648   3.101   2.242   3.260 -0.6538  0.3411  0.3105
 7053TIP3   OH242649   4.693   4.864  11.455  0.1821 -0.4013 -0.4461
 7053TIP3    H142650   4.635   4.870  11.379  1.7703 -1.2065 -1.7681
 7053TIP3    H242651   4.656   4.926  11.518 -2.2115 -1.0299 -1.1435
 7054TIP3   OH242652   0.381   1.046   2.645  0.2861  0.3738  0.6584
 7054TIP3    H142653   0.464   1.015   2.680 -0.0057 -0.4779  0.5993
 7054TIP3    H242654   0.405   1.125   2.595  0.7942  1.2363  2.1806
 7055TIP3   OH242655   1.825   6.508  11.435 -0.3359  0.4226 -0.1010
 7055TIP3    H142656   1.853   6.583  11.383  0.4277 -0.5968 -1.2213
 7055TIP3    H242657   1.778   6.546  11.509  2.7825  2.1728  1.1472
 7056TIP3   OH242658   4.005   4.338  15.656 -0.1396  0.1806  0.5112
 7056TIP3    H142659   3.952   4.306  15.584 -2.8440  0.9382  2.0296
 7056TIP3    H242660   3.952   4.323  15.734  1.3402  2.1679  2.0165
 7057TIP3   OH242661   3.989   4.126  13.180  0.5269 -0.1296  0.1788
 7057TIP3    H142662   3.931   4.081  13.118 -0.0797 -0.3313  0.8827
 7057TIP3    H242663   3.968   4.088  13.265  3.2106 -1.7405  0.2133
 7058TIP3   OH242664   1.391   2.374   5.415  0.1535  0.2890  0.2195
 7058TIP3    H142665   1.395   2.303   5.480  1.1886  0.5341  0.4472
 7058TIP3    H242666   1.437   2.447   5.457 -2.0298  1.5585  0.5145
 7059TIP3   OH242667   2.003   3.549  12.082  0.1443  0.3617 -0.1033
 7059TIP3    H142668   1.983   3.518  11.994 -0.1377 -1.0609  0.4202
 7059TIP3    H242669   1.981   3.642  12.082 -0.6907  0.1751 -1.2750
 7060TIP3   OH242670   3.819   1.337   0.964  0.8787 -0.6501  0.0449
 7060TIP3    H142671   3.867   1.420   0.961 -1.1054  0.5301 -2.5762
 7060TIP3    H242672   3.802   1.323   1.057  0.7663  2.2322  0.5572
 7061TIP3   OH242673   4.591   6.808  13.227  0.4958  0.3244 -0.3703
 7061TIP3    H142674   4.513   6.763  13.260 -0.5093  1.8090 -0.6253
 7061TIP3    H242675   4.620   6.754  13.154 -0.2350 -0.2943 -0.2246
 7062TIP3   OH242676   6.543   0.596   3.950  0.3651  0.5294 -0.2772
 7062TIP3    H142677   6.615   0.534   3.945  1.1652  1.4219 -0.1650
 7062TIP3    H242678   6.586   0.682   3.957 -0.7032  1.0468  0.1355
 7063TIP3   OH242679   5.688   3.398   3.366  0.3648 -0.0363 -0.2597
 7063TIP3    H142680   5.763   3.456   3.380  0.4636 -0.3357  0.5545
 7063TIP3    H242681   5.614   3.445   3.403  0.1139  0.3328 -1.2200
 7064TIP3   OH242682   4.935   2.943  12.607  1.6812 -0.0511 -0.2034
 7064TIP3    H142683   4.981   2.863  12.632 -0.3444 -0.7789  1.4528
 7064TIP3    H242684   4.901   2.978  12.689  0.7160  1.3348 -1.1533
 7065TIP3   OH242685   3.893   0.790   5.161  0.0163  0.0449  0.7577
 7065TIP3    H142686   3.885   0.878   5.197 -0.8022 -0.2872  1.4348
 7065TIP3    H242687   3.837   0.790   5.083  1.4487  0.6397 -0.2918
 7066TIP3   OH242688   3.016   0.350  13.946  0.3752 -0.2898 -0.3063
 7066TIP3    H142689   3.080   0.411  13.983 -0.8192  0.1294  1.2192
 7066TIP3    H242690   2.934   0.400  13.945 -0.5333 -1.6854  0.5265
 7067TIP3   OH242691   5.985   4.163   4.143 -0.3667 -0.2726  0.1698
 7067TIP3    H142692   5.998   4.091   4.081 -0.2286  0.1394 -0.2826
 7067TIP3    H242693   5.959   4.119   4.224  0.6065 -0.9096  0.1650
 7068TIP3   OH242694   2.039   1.606  16.319 -0.4416 -0.1158  0.2096
 7068TIP3    H142695   1.971   1.553  16.361 -0.6610  0.5497  0.7117
 7068TIP3    H242696   2.029   1.693  16.359 -0.2328  0.3592 -0.7602
 7069TIP3   OH242697   2.451   0.508  16.365  0.5259 -0.1895  0.3638
 7069TIP3    H142698   2.496   0.428  16.338  0.8915 -0.0979  0.6911
 7069TIP3    H242699   2.424   0.550  16.283  0.5699 -0.5120  0.1851
 7070TIP3   OH242700   1.599   1.785   4.306 -0.2054 -0.3134 -0.3242
 7070TIP3    H142701   1.692   1.795   4.328 -0.0227  0.7939 -1.4997
 7070TIP3    H242702   1.574   1.702   4.346  1.1067 -0.2941  0.6121
 7071TIP3   OH242703   1.445   0.678   1.239 -0.5497  0.1799 -0.4879
 7071TIP3    H142704   1.500   0.732   1.296  3.0458 -4.3571  0.9702
 7071TIP3    H242705   1.493   0.674   1.156  0.0546 -1.6488 -0.1095
 7072TIP3   OH242706   4.222   3.735   1.500 -0.7629  0.2001  0.3530
 7072TIP3    H142707   4.162   3.679   1.450 -0.7392 -0.9022  1.4977
 7072TIP3    H242708   4.169   3.767   1.573 -0.3541  0.4361  0.5468
 7073TIP3   OH242709   4.618   4.301  12.943 -0.0993 -0.2365 -0.0777
 7073TIP3    H142710   4.610   4.395  12.957 -0.4624 -0.4001  0.8965
 7073TIP3    H242711   4.551   4.262  13.000  1.1784 -1.1625  0.8667
 7074TIP3   OH242712   3.570   2.494   4.610  0.1545  0.0059  0.5316
 7074TIP3    H142713   3.475   2.490   4.597 -0.0633  4.3759 -1.0245
 7074TIP3    H242714   3.580   2.545   4.691  1.2626 -1.4151  1.3260
 7075TIP3   OH242715   3.117   1.238   0.540  0.6735  0.2664  0.1794
 7075TIP3    H142716   3.165   1.283   0.470 -0.1563 -2.1560 -2.1016
 7075TIP3    H242717   3.170   1.252   0.618  2.2442  2.1648 -1.1227
 7076TIP3   OH242718   6.066   6.630  11.767  0.6086 -0.0994  0.0054
 7076TIP3    H142719   6.002   6.702  11.773  1.4193  0.5111  2.1568
 7076TIP3    H242720   6.047   6.589  11.683 -0.5365  2.0171 -0.8497
 7077TIP3   OH242721   3.110   0.439  11.792 -0.0486  0.0278  0.1952
 7077TIP3    H142722   3.161   0.487  11.726 -1.0778 -0.4646 -1.0133
 7077TIP3    H242723   3.172   0.376  11.829  0.5471  0.2764 -0.3647
 7078TIP3   OH242724   3.115   0.332   6.330  0.4131 -0.8717  0.1440
 7078TIP3    H142725   3.088   0.241   6.319 -0.1720 -0.7787  0.6983
 7078TIP3    H242726   3.033   0.381   6.330  0.7591 -0.2815 -0.6691
 7079TIP3   OH242727   1.148   2.982   4.836  0.6122 -0.0083 -0.0533
 7079TIP3    H142728   1.242   2.983   4.821  0.4687  2.0098 -1.2080
 7079TIP3    H242729   1.132   2.900   4.882  2.8686 -0.5755 -0.1513
 7080TIP3   OH242730   4.947   1.812  10.831 -0.2197  0.0447 -0.2895
 7080TIP3    H142731   4.926   1.757  10.906 -1.0083  1.0856  0.2750
 7080TIP3    H242732   4.876   1.796  10.769 -0.9198  1.0349  0.2283
 7081TIP3   OH242733   1.796   2.840  13.904  0.0534 -0.1385 -0.3135
 7081TIP3    H142734   1.798   2.750  13.870 -1.4950 -0.0774 -0.5993
 7081TIP3    H242735   1.889   2.861  13.920  0.4194 -1.8605 -0.0119
 7082TIP3   OH242736   5.328   2.185  13.135 -0.6117  0.0323  0.1293
 7082TIP3    H142737   5.255   2.241  13.108 -0.2176  0.6021  0.2346
 7082TIP3    H242738   5.382   2.241  13.191  0.6992  0.0833 -1.1288
 7083TIP3   OH242739   6.338   0.558   2.844  0.0542 -0.5821 -0.3724
 7083TIP3    H142740   6.373   0.646   2.860 -2.2324  0.8792 -2.5060
 7083TIP3    H242741   6.288   0.537   2.923  1.0272 -0.2216  0.3608
 7084TIP3   OH242742   2.731   1.854  11.594 -0.6825  0.0487  0.2563
 7084TIP3    H142743   2.638   1.865  11.614 -0.7871  0.5729 -0.4797
 7084TIP3    H242744   2.747   1.915  11.522  0.0642 -0.5565 -0.1004
 7085TIP3   OH242745   0.442   3.133   1.141  0.2120 -0.6297 -0.6165
 7085TIP3    H142746   0.408   3.219   1.163  0.5882 -0.4904 -0.5781
 7085TIP3    H242747   0.530   3.149   1.106  0.3142 -0.9967 -0.5411
 7086TIP3   OH242748   1.625   0.739  15.996 -0.1216  0.0677 -0.0959
 7086TIP3    H142749   1.636   0.833  15.990  0.5975  0.4313  4.0003
 7086TIP3    H242750   1.531   0.725  15.983 -0.0796  1.1694 -1.8062
 7087TIP3   OH242751   3.446   1.307  11.631 -0.3160  0.3118 -0.2454
 7087TIP3    H142752   3.392   1.331  11.556 -0.9613  0.1559  0.1508
 7087TIP3    H242753   3.501   1.235  11.600 -0.9121 -0.0683 -0.4465
 7088TIP3   OH242754   1.991   5.100  11.434  0.5114  0.1274  0.6273
 7088TIP3    H142755   2.058   5.046  11.476 -0.4288  0.3843  2.5540
 7088TIP3    H242756   1.933   5.038  11.390  0.9474 -0.2288  0.5556
 7089TIP3   OH242757   5.213   5.068   0.102  0.6890 -0.1299 -0.5929
 7089TIP3    H142758   5.164   5.117   0.036 -1.3914 -0.2122  0.7857
 7089TIP3    H242759   5.179   5.100   0.185  1.6339 -1.6049  0.4049
 7090TIP3   OH242760   6.730   2.688   4.612 -0.1521 -0.1994  0.7311
 7090TIP3    H142761   6.791   2.639   4.668  0.1211 -0.1653  0.4674
 7090TIP3    H242762   6.687   2.622   4.558  1.0884 -0.0715 -0.4800
 7091TIP3   OH242763   4.699   5.197  14.662 -0.0414  0.1001  0.3703
 7091TIP3    H142764   4.738   5.110  14.673  0.7759  0.5379  1.0070
 7091TIP3    H242765   4.652   5.191  14.578  0.3089 -0.8402  0.2250
 7092TIP3   OH242766   3.254   2.778  15.407 -0.1665  0.1629 -1.0091
 7092TIP3    H142767   3.294   2.695  15.382  1.7183  0.0518  1.8726
 7092TIP3    H242768   3.326   2.841  15.401 -0.6447  0.8449  0.1377
 7093TIP3   OH242769   1.118   5.793   2.060 -0.1253 -0.7430  0.0760
 7093TIP3    H142770   1.171   5.871   2.045 -0.0509 -0.7483  0.3010
 7093TIP3    H242771   1.171   5.739   2.119 -0.7619 -0.3381  1.0519
 7094TIP3   OH242772   1.427   5.928  12.681  0.2913 -0.0760  0.2472
 7094TIP3    H142773   1.404   5.835  12.688  0.5201 -0.0673  1.2711
 7094TIP3    H242774   1.357   5.974  12.728  0.2083  0.2691 -0.2082
 7095TIP3   OH242775   2.719   1.037   1.337 -0.3931 -0.2262 -0.2745
 7095TIP3    H142776   2.757   1.122   1.315  0.8192 -0.5750  0.3425
 7095TIP3    H242777   2.640   1.058   1.386 -0.3718  0.5454 -0.5583
 7096TIP3   OH242778   3.448   4.399  13.505 -0.4324 -0.0647 -0.2351
 7096TIP3    H142779   3.514   4.466  13.523  0.9877 -1.0410 -1.6000
 7096TIP3    H242780   3.457   4.336  13.577 -1.5924  1.0282  0.9064
 7097TIP3   OH242781   2.679   3.718   2.643 -0.1127 -0.0152  0.0352
 7097TIP3    H142782   2.771   3.734   2.666  0.1105  0.0673 -0.8391
 7097TIP3    H242783   2.650   3.650   2.704  0.1167  0.9186  1.2186
 7098TIP3   OH242784   5.931   0.794  17.162 -0.4194  0.0044 -0.3013
 7098TIP3    H142785   5.865   0.735  17.125 -2.8149 -0.8565  4.4532
 7098TIP3    H242786   6.010   0.741  17.168 -0.6142 -0.5128 -1.9691
 7099TIP3   OH242787   3.056   6.546   4.439  0.0818 -0.2672 -0.3126
 7099TIP3    H142788   3.085   6.638   4.436 -2.8298  0.7587  0.0530
 7099TIP3    H242789   3.000   6.536   4.362 -0.3351 -1.4858  0.1280
 7100TIP3   OH242790   2.100   6.731   4.728  0.0818 -0.1092 -0.0829
 7100TIP3    H142791   2.154   6.739   4.806 -2.4555  2.3370  1.6057
 7100TIP3    H242792   2.092   6.820   4.695 -2.0738 -0.5380 -0.8465
 7101TIP3   OH242793   5.540   6.192  13.556 -0.1537  0.5030  0.0830
 7101TIP3    H142794   5.522   6.160  13.468  1.7938 -1.4505  0.2875
 7101TIP3    H242795   5.597   6.268  13.543  1.1341 -0.5009 -0.3905
 7102TIP3   OH242796   1.356   0.763  15.940  0.1089  0.1772  0.4112
 7102TIP3    H142797   1.323   0.731  15.856 -0.5611 -0.3882  0.8872
 7102TIP3    H242798   1.297   0.727  16.005  0.8688  0.2683  1.1715
 7103TIP3   OH242799   3.958   0.623  13.511 -0.3918 -0.0184 -0.1321
 7103TIP3    H142800   3.925   0.537  13.486 -1.2610 -0.4406  2.2401
 7103TIP3    H242801   3.953   0.674  13.430 -0.6185 -1.9405 -1.3990
 7104TIP3   OH242802   4.492   5.250  16.523  0.6368 -0.2207 -0.7042
 7104TIP3    H142803   4.413   5.199  16.504  0.4288 -1.2487  2.3704
 7104TIP3    H242804   4.475   5.289  16.609  2.9591  0.6030 -0.5521
 7105TIP3   OH242805   1.643   1.229   2.290  0.6805  0.0597 -0.4841
 7105TIP3    H142806   1.596   1.285   2.229  1.6255 -0.2981 -1.5633
 7105TIP3    H242807   1.648   1.144   2.247 -1.1852 -1.0839  1.3422
 7106TIP3   OH242808   0.229   5.287  13.561 -0.0235  0.2787  0.6401
 7106TIP3    H142809   0.171   5.241  13.622 -2.5855 -0.5585 -2.1713
 7106TIP3    H242810   0.271   5.218  13.511 -0.0627  0.9488 -0.3435
 7107TIP3   OH242811   4.659   2.766   3.020  0.3092  0.3063 -0.1529
 7107TIP3    H142812   4.593   2.752   2.953 -0.4748  0.5294  0.5629
 7107TIP3    H242813   4.724   2.697   3.004  0.0978  0.3134 -1.0844
 7108TIP3   OH242814   3.696   5.254  12.386 -0.0101  0.1509 -0.1855
 7108TIP3    H142815   3.709   5.348  12.399  0.2110  0.1894 -0.6820
 7108TIP3    H242816   3.725   5.238  12.296 -0.3242 -0.3383 -0.2018
 7109TIP3   OH242817   5.576   0.123  16.938  0.2539  0.0253  0.0570
 7109TIP3    H142818   5.645   0.173  16.982 -1.2070  2.8632 -0.6617
 7109TIP3    H242819   5.511   0.107  17.007  1.0038 -1.5700  0.4411
 7110TIP3   OH242820   0.978   5.911  16.179  0.0923 -0.1764 -0.5859
 7110TIP3    H142821   0.956   5.824  16.144 -0.4825 -0.2834  0.0108
 7110TIP3    H242822   0.928   5.972  16.125 -1.5411 -0.4028  0.5900
 7111TIP3   OH242823   4.243   2.929  10.527 -0.2588 -0.6250 -0.0401
 7111TIP3    H142824   4.323   2.890  10.491 -1.6167 -2.4799 -1.2110
 7111TIP3    H242825   4.232   3.010  10.478  0.8047 -0.4408  0.0060
 7112TIP3   OH242826   5.058   1.631  14.805  0.2072 -0.2529 -0.4311
 7112TIP3    H142827   5.007   1.710  14.823 -0.2747 -0.7926  0.6407
 7112TIP3    H242828   5.081   1.639  14.713 -2.2617 -0.2359 -1.1261
 7113TIP3   OH242829   5.177   4.706   0.512 -0.5350 -0.0197  0.4734
 7113TIP3    H142830   5.213   4.708   0.423 -0.4668 -0.4996  0.4856
 7113TIP3    H242831   5.086   4.735   0.502 -0.3148  0.6250  0.3553
 7114TIP3   OH242832   1.548   1.319   2.906  0.3032  0.1430 -0.1783
 7114TIP3    H142833   1.487   1.393   2.911 -0.0657 -0.2362  2.4986
 7114TIP3    H242834   1.537   1.286   2.817 -2.5726  0.8150 -0.2033
 7115TIP3   OH242835   5.411   3.189   5.976 -0.2162 -0.2369 -0.1258
 7115TIP3    H142836   5.441   3.273   6.011 -0.9988 -0.6642  1.7444
 7115TIP3    H242837   5.350   3.213   5.906  1.7892  0.6663 -1.6423
 7116TIP3   OH242838   2.179   6.131  11.809 -0.5846 -0.6434 -0.4656
 7116TIP3    H142839   2.149   6.143  11.899 -0.4071  0.4514 -0.5327
 7116TIP3    H242840   2.212   6.042  11.806  0.9610 -0.1793  1.0126
 7117TIP3   OH242841   1.142   0.219   3.697 -1.0308  0.2086  0.4146
 7117TIP3    H142842   1.055   0.181   3.683 -2.0149  2.4548  0.1134
 7117TIP3    H242843   1.175   0.237   3.609 -0.8832  0.7050  0.5711
 7118TIP3   OH242844   0.867   6.498  12.912 -0.1565 -0.1895 -0.1374
 7118TIP3    H142845   0.939   6.442  12.940 -0.9216 -1.1839 -0.1395
 7118TIP3    H242846   0.909   6.582  12.894  0.7822 -0.3072  1.3001
 7119TIP3   OH242847   0.531   3.283   5.974  0.4260  0.3427  0.4637
 7119TIP3    H142848   0.480   3.312   6.050  0.0226 -1.7744  1.0450
 7119TIP3    H242849   0.603   3.233   6.011  0.8374  0.1943 -0.5217
 7120TIP3   OH242850   6.005   3.711  11.649 -0.2140 -0.6924 -0.1845
 7120TIP3    H142851   5.925   3.754  11.618 -0.2699 -0.0029  0.8376
 7120TIP3    H242852   6.055   3.782  11.688  0.6701 -1.2158 -0.3576
 7121TIP3   OH242853   5.826   5.378   6.422 -0.7603  0.4629 -0.3351
 7121TIP3    H142854   5.809   5.442   6.353  0.4702  0.2767 -0.8328
 7121TIP3    H242855   5.768   5.305   6.401 -1.6821  1.1193 -0.1466
 7122TIP3   OH242856   6.483   0.274  15.354 -0.2432  0.0383  0.7414
 7122TIP3    H142857   6.521   0.362  15.361 -2.2733  1.1672 -1.2206
 7122TIP3    H242858   6.543   0.227  15.296  0.1939  0.5101  0.8001
 7123TIP3   OH242859   1.594   1.299   1.294  0.2407 -0.0218  0.1954
 7123TIP3    H142860   1.659   1.253   1.240  0.1923  0.8233 -0.6272
 7123TIP3    H242861   1.516   1.303   1.239 -0.4001 -0.7000  1.0371
 7124TIP3   OH242862   2.012   2.969  16.377 -0.2951  0.2368  0.6407
 7124TIP3    H142863   1.981   2.977  16.287 -0.8589  0.5708  0.8549
 7124TIP3    H242864   2.082   2.904  16.374 -1.1018 -0.6271  0.1588
 7125TIP3   OH242865   3.693   1.120  11.489  0.5206 -0.1910  0.8437
 7125TIP3    H142866   3.737   1.108  11.573 -0.3582  0.9983  1.4993
 7125TIP3    H242867   3.693   1.214  11.475  0.6041 -0.3670 -0.4767
 7126TIP3   OH242868   1.585   3.474  16.185 -0.1619  0.5149  0.0000
 7126TIP3    H142869   1.565   3.541  16.120 -1.3418  1.0509  0.8658
 7126TIP3    H242870   1.628   3.522  16.256  0.4290  0.0702 -0.0519
 7127TIP3   OH242871   5.180   2.898   4.197  0.5362  0.1360 -0.0119
 7127TIP3    H142872   5.090   2.929   4.204  0.1542 -0.9895  0.2572
 7127TIP3    H242873   5.228   2.945   4.265 -0.1794 -0.3821  0.8698
 7128TIP3   OH242874   4.483   2.758  13.976 -0.7558 -1.3138  0.2213
 7128TIP3    H142875   4.470   2.847  13.944 -0.1626 -0.8497  1.2223
 7128TIP3    H242876   4.429   2.704  13.919 -1.2088 -0.3036 -0.3356
 7129TIP3   OH242877   0.967   4.366  11.987  0.2359  0.2156  0.1170
 7129TIP3    H142878   0.890   4.355  12.043  0.8879  0.6117  1.1158
 7129TIP3    H242879   1.003   4.451  12.012  1.7046 -0.5214  0.5366
 7130TIP3   OH242880   6.272   2.967   3.310 -0.4343 -0.0123 -0.5049
 7130TIP3    H142881   6.366   2.958   3.324 -0.5047  0.8067  0.5791
 7130TIP3    H242882   6.246   3.040   3.367 -1.9404 -1.0466  0.1777
 7131TIP3   OH242883   5.463   5.960  14.445 -0.2762 -0.6016 -0.0846
 7131TIP3    H142884   5.513   5.879  14.451  0.6433 -0.0746 -0.5654
 7131TIP3    H242885   5.373   5.934  14.465  0.3208 -1.3914  1.8839
 7132TIP3   OH242886   1.515   1.308  11.981 -0.0061  0.4206 -0.2989
 7132TIP3    H142887   1.497   1.277  11.892  0.0511 -0.0613 -0.1450
 7132TIP3    H242888   1.586   1.253  12.012  0.2400  0.8503 -0.0923
 7133TIP3   OH242889   0.357   0.110   5.966 -0.5192  0.4228 -0.3757
 7133TIP3    H142890   0.329   0.166   5.893 -0.7674 -0.5140 -1.0227
 7133TIP3    H242891   0.364   0.170   6.040  0.9491  1.6365 -1.4293
 7134TIP3   OH242892   6.378   3.385  13.935 -0.1481 -0.2594 -0.5944
 7134TIP3    H142893   6.300   3.393  13.991  1.9524 -1.4143  2.8198
 7134TIP3    H242894   6.343   3.371  13.847 -3.7635  3.9765 -0.1776
 7135TIP3   OH242895   6.428   2.856   6.548  0.5603 -0.7285  0.7060
 7135TIP3    H142896   6.366   2.830   6.616 -0.1648  0.2582  0.4400
 7135TIP3    H242897   6.455   2.945   6.573  0.5367 -0.4845 -0.1142
 7136TIP3   OH242898   6.780   5.431  15.192  0.1046  0.2996  1.0454
 7136TIP3    H142899   6.762   5.525  15.200  0.6476  0.6201 -0.8478
 7136TIP3    H242900   6.870   5.421  15.223  0.7797  0.8020 -0.6356
 7137TIP3   OH242901   3.865   3.595  16.621  0.0960 -0.1028  0.3802
 7137TIP3    H142902   3.840   3.503  16.619 -1.2762  0.2584 -0.2894
 7137TIP3    H242903   3.840   3.625  16.708 -1.5439  0.1460 -0.1322
 7138TIP3   OH242904   6.136   3.960  12.936  0.0491 -0.1054 -0.1382
 7138TIP3    H142905   6.133   3.917  12.851  0.1977  1.0144 -0.7342
 7138TIP3    H242906   6.178   3.897  12.994  3.6063  0.4773 -1.7794
 7139TIP3   OH242907   6.042   4.546   0.449 -0.2745  0.2240 -0.4420
 7139TIP3    H142908   6.049   4.640   0.465 -0.4967  0.2058 -0.2389
 7139TIP3    H242909   6.039   4.507   0.536 -1.5648  0.1300 -0.5097
 7140TIP3   OH242910   2.633   6.450  15.609 -0.1751  0.1749  0.0669
 7140TIP3    H142911   2.560   6.439  15.548 -0.4686 -0.3785  0.5109
 7140TIP3    H242912   2.681   6.526  15.575  0.7182 -1.1954 -1.9243
 7141TIP3   OH242913   2.855   4.409   1.514  0.1229  0.1366  0.0629
 7141TIP3    H142914   2.806   4.349   1.571  0.1015  0.6687  0.6145
 7141TIP3    H242915   2.884   4.354   1.442 -0.7192 -0.3358  0.0663
 7142TIP3   OH242916   1.569   1.524   4.380 -0.2831 -0.0819 -0.1870
 7142TIP3    H142917   1.653   1.491   4.412 -0.3943  0.8305  1.1116
 7142TIP3    H242918   1.563   1.491   4.291  0.0364 -2.8190  0.6915
 7143TIP3   OH242919   1.013   5.157   3.390  0.7511 -0.6940  0.3419
 7143TIP3    H142920   1.039   5.065   3.380  1.3698 -0.3114 -2.3426
 7143TIP3    H242921   1.091   5.207   3.368 -0.3592  0.4488 -1.3004
 7144TIP3   OH242922   3.397   4.360  12.945 -0.6234 -0.3974 -0.0041
 7144TIP3    H142923   3.454   4.374  13.020  0.4919 -1.2753 -0.6553
 7144TIP3    H242924   3.401   4.441  12.895  0.7245 -0.7196 -0.4586
 7145TIP3   OH242925   2.318   2.001   5.714 -0.2486  0.4230 -0.6261
 7145TIP3    H142926   2.260   1.964   5.648 -0.4613  0.2924 -0.3704
 7145TIP3    H242927   2.322   2.095   5.693  1.6261  0.0273 -2.2876
 7146TIP3   OH242928   6.575   4.294  16.779  0.2773  0.1404  0.1617
 7146TIP3    H142929   6.594   4.264  16.690 -0.0729  0.3246  0.0242
 7146TIP3    H242930   6.661   4.310  16.817  0.4460 -0.3921  0.0145
 7147TIP3   OH242931   2.339   2.602   1.669  0.0237 -0.2048 -0.2089
 7147TIP3    H142932   2.411   2.593   1.606 -2.7265  0.8812 -3.8787
 7147TIP3    H242933   2.272   2.541   1.638 -2.0678  1.4982  0.6918
 7148TIP3   OH242934   1.097   6.663  16.044 -0.3704 -0.1233 -0.1355
 7148TIP3    H142935   1.050   6.603  15.985  0.1151 -0.4610 -0.1847
 7148TIP3    H242936   1.180   6.681  15.999 -0.1172 -0.1576  0.3128
 7149TIP3   OH242937   4.876   1.013  13.346 -0.3318  0.3275 -0.2793
 7149TIP3    H142938   4.971   1.024  13.344 -0.2520 -0.3927 -0.8356
 7149TIP3    H242939   4.860   0.935  13.293 -1.2043  0.2338  0.1114
 7150TIP3   OH242940   4.312   4.419  16.542 -0.4286 -0.1913  0.8933
 7150TIP3    H142941   4.319   4.328  16.513 -2.8663 -0.8431  2.0821
 7150TIP3    H242942   4.249   4.417  16.613 -2.5538  2.7499 -0.6647
 7151TIP3   OH242943   0.370   0.458  15.416 -0.1275 -0.3364 -0.0733
 7151TIP3    H142944   0.340   0.442  15.505  2.3460  1.4772  1.2207
 7151TIP3    H242945   0.451   0.406  15.408  0.9782  1.3412 -0.3492
 7152TIP3   OH242946   5.328   2.922  12.259 -0.0370 -0.0805 -0.4214
 7152TIP3    H142947   5.308   2.844  12.207 -1.3393 -0.4083  0.5288
 7152TIP3    H242948   5.401   2.964  12.213  0.3079 -1.5493 -1.2608
 7153TIP3   OH242949   1.483   4.154   5.256  0.4698  0.0429 -0.6757
 7153TIP3    H142950   1.547   4.220   5.230  0.8537 -0.6080 -1.4310
 7153TIP3    H242951   1.453   4.116   5.173  0.3759 -0.8310 -0.2504
 7154TIP3   OH242952   2.711   0.080  12.346  0.3795  0.4913  0.3678
 7154TIP3    H142953   2.624   0.057  12.313  0.1334  1.0710  0.5818
 7154TIP3    H242954   2.742   0.147  12.285  0.8963 -0.0784  0.0002
 7155TIP3   OH242955   6.552   2.943   3.310  0.5674  0.1828  0.5605
 7155TIP3    H142956   6.621   3.002   3.340 -0.5654  0.8165  2.0661
 7155TIP3    H242957   6.559   2.866   3.367 -0.0683  0.3338  0.8562
 7156TIP3   OH242958   4.174   6.163  16.920  0.3177  0.3135  0.5975
 7156TIP3    H142959   4.096   6.215  16.902 -0.9911 -2.0034 -1.0707
 7156TIP3    H242960   4.235   6.187  16.851 -0.9931 -1.5594 -1.3281
 7157TIP3   OH242961   3.972   2.831   1.782 -0.2851  0.0017  0.3082
 7157TIP3    H142962   3.948   2.761   1.722  0.0572  0.1819 -0.0453
 7157TIP3    H242963   4.059   2.806   1.814 -0.0318  0.4139 -0.0518
 7158TIP3   OH242964   2.792   3.465  11.568 -0.5189  0.3151 -0.1743
 7158TIP3    H142965   2.732   3.464  11.642 -1.3259  1.2957 -0.7950
 7158TIP3    H242966   2.742   3.506  11.497  0.3051 -0.4075 -1.2002
 7159TIP3   OH242967   2.486   4.543  10.351 -0.0154 -0.2193  0.3543
 7159TIP3    H142968   2.496   4.448  10.341  0.0252 -0.2186  0.3900
 7159TIP3    H242969   2.408   4.552  10.406  0.8338 -0.2717  1.5915
 7160TIP3   OH242970   1.253   2.572  13.612 -0.3485  0.1983  0.6890
 7160TIP3    H142971   1.224   2.484  13.591 -1.9751  0.8693 -0.0807
 7160TIP3    H242972   1.270   2.570  13.706  0.2230 -1.0703  0.5753
 7161TIP3   OH242973   6.636   1.890   2.903 -0.3071  0.2953  0.3330
 7161TIP3    H142974   6.705   1.942   2.943  1.9490 -3.1567  1.3082
 7161TIP3    H242975   6.663   1.880   2.812 -0.2311  0.0275  0.3852
 7162TIP3   OH242976   0.726   2.540  13.246 -0.1828  0.2009 -0.1237
 7162TIP3    H142977   0.650   2.511  13.195 -0.3430  0.3102  0.0560
 7162TIP3    H242978   0.800   2.531  13.185 -0.3589  0.2254 -0.3412
 7163TIP3   OH242979   1.338   3.973  13.965 -0.5920  0.3951  0.2742
 7163TIP3    H142980   1.308   4.028  13.893 -1.1947  0.0685  0.2615
 7163TIP3    H242981   1.271   3.904  13.970 -0.4349  0.2956  0.9988
 7164TIP3   OH242982   5.352   1.002   0.561  0.2533 -0.3907  0.0785
 7164TIP3    H142983   5.275   0.981   0.508 -0.4180 -0.7660  1.1575
 7164TIP3    H242984   5.334   0.961   0.646  2.6018 -2.3078 -0.2604
 7165TIP3   OH242985   2.180   3.176   4.935  0.1027  0.6863  0.4454
 7165TIP3    H142986   2.196   3.265   4.903 -1.4349  0.5388 -0.8861
 7165TIP3    H242987   2.097   3.151   4.895  0.7057 -1.5238  0.4408
 7166TIP3   OH242988   1.015   0.186   6.155 -0.3329 -0.1510  0.1141
 7166TIP3    H142989   1.081   0.255   6.156 -0.2472 -0.2351  0.5205
 7166TIP3    H242990   1.058   0.111   6.197 -0.6285 -0.2595  0.2275
 7167TIP3   OH242991   3.581   3.277  16.482 -0.6801  0.5625 -0.2033
 7167TIP3    H142992   3.536   3.322  16.554 -1.6882 -0.4152 -0.1913
 7167TIP3    H242993   3.624   3.203  16.523 -2.2739 -0.7202 -0.7134
 7168TIP3   OH242994   6.439   0.256   5.052 -0.2853  0.0308  0.7675
 7168TIP3    H142995   6.485   0.282   4.972 -1.4220 -1.9582 -0.6296
 7168TIP3    H242996   6.385   0.333   5.074  0.0158  0.6069 -0.4012
 7169TIP3   OH242997   1.015   1.604   0.350  0.1099  0.0391 -0.2011
 7169TIP3    H142998   0.929   1.569   0.374 -0.8760  1.4387 -1.4561
 7169TIP3    H242999   1.012   1.613   0.254  1.4539  0.5977 -0.2198
 7170TIP3   OH243000   3.955   6.392  10.648 -0.1092 -0.0050 -0.5652
 7170TIP3    H143001   3.900   6.460  10.688  1.6232  0.9883  0.3078
 7170TIP3    H243002   3.945   6.316  10.706  0.1011  0.4610  0.1045
 7171TIP3   OH243003   1.672   4.028  10.689  0.1096 -0.4399 -0.5046
 7171TIP3    H143004   1.681   4.033  10.594  0.5957 -3.6730 -0.7575
 7171TIP3    H243005   1.591   3.978  10.702  0.4910 -0.7559  0.7480
 7172TIP3   OH243006   4.973   1.003   1.028  0.1133 -0.3548 -0.1146
 7172TIP3    H143007   4.925   0.929   0.990  0.1257 -0.8503  0.8231
 7172TIP3    H243008   4.926   1.024   1.109 -1.2677  2.1473 -1.4189
 7173TIP3   OH243009   4.174   1.620   1.113 -0.2174 -0.0394  0.1033
 7173TIP3    H143010   4.244   1.643   1.173  0.0554 -0.3994 -0.0739
 7173TIP3    H243011   4.101   1.595   1.170 -0.4251  0.9707  0.2910
 7174TIP3   OH243012   5.919   2.030   2.888 -0.5078 -0.0394  0.4397
 7174TIP3    H143013   5.945   2.114   2.848 -1.2321 -0.0440 -0.0519
 7174TIP3    H243014   5.909   2.051   2.981 -2.8873  0.9988  0.0233
 7175TIP3   OH243015   6.757   2.002   0.440 -0.4699 -0.5128  0.1526
 7175TIP3    H143016   6.710   1.970   0.517  0.4630  1.2735  1.5436
 7175TIP3    H243017   6.694   2.058   0.395 -1.4260 -2.5284 -1.1421
 7176TIP3   OH243018   3.583   3.640   3.869  0.5648  0.4104  0.8472
 7176TIP3    H143019   3.538   3.724   3.881  0.3376  0.6274 -1.1699
 7176TIP3    H243020   3.515   3.575   3.879  0.3543  0.5876  0.5978
 7177TIP3   OH243021   1.217   4.905  11.187 -0.0709 -0.5316 -0.2320
 7177TIP3    H143022   1.170   4.985  11.163 -0.5054 -0.3903  1.0214
 7177TIP3    H243023   1.152   4.835  11.175 -0.0230 -0.5671 -0.2865
 7178TIP3   OH243024   1.318   4.941   6.028  0.1020 -0.4334  0.0320
 7178TIP3    H143025   1.348   5.029   6.048 -0.8845 -0.5406  2.3804
 7178TIP3    H243026   1.224   4.951   6.011  0.6424 -0.5327 -4.0186
 7179TIP3   OH243027   4.595   3.708  10.807  0.4388 -0.4558  0.2475
 7179TIP3    H143028   4.553   3.706  10.893  2.4461 -0.0472  1.2927
 7179TIP3    H243029   4.688   3.708  10.826  0.9363  0.0431 -1.9442
 7180TIP3   OH243030   6.424   3.708   5.090  0.4918  0.5340 -0.1769
 7180TIP3    H143031   6.384   3.768   5.027 -0.0400  0.6906  0.2978
 7180TIP3    H243032   6.365   3.632   5.090  1.2586 -0.0844 -0.9135
 7181TIP3   OH243033   1.539   4.646   4.492  0.4023  0.8188  0.5558
 7181TIP3    H143034   1.454   4.603   4.499  0.9923 -0.2062  2.0159
 7181TIP3    H243035   1.528   4.710   4.422 -1.2033 -0.1104 -0.0954
 7182TIP3   OH243036   4.539   4.381   0.155 -0.2323 -0.5672  0.0419
 7182TIP3    H143037   4.584   4.333   0.085 -0.6958 -0.7961 -0.1009
 7182TIP3    H243038   4.446   4.372   0.135 -0.3345  0.4442 -0.0221
 7183TIP3   OH243039   4.322   3.782   3.636  0.6856 -0.3139 -0.4757
 7183TIP3    H143040   4.314   3.863   3.585  1.2335 -0.8138 -1.3713
 7183TIP3    H243041   4.360   3.811   3.719  0.7396  0.3694 -0.7301
 7184TIP3   OH243042   4.554   1.631   2.366  0.5093 -0.5788 -1.2196
 7184TIP3    H143043   4.542   1.703   2.428 -0.5636 -0.6657 -1.2997
 7184TIP3    H243044   4.518   1.555   2.411 -0.1363 -0.6728 -1.8861
 7185TIP3   OH243045   4.893   6.785  12.311 -0.0548  0.2753  0.5260
 7185TIP3    H143046   4.946   6.710  12.336  0.6961  0.6567  0.0980
 7185TIP3    H243047   4.815   6.779  12.367  1.0245  0.4412  2.0980
 7186TIP3   OH243048   3.697   1.256   3.999  0.0953  0.5363 -0.0235
 7186TIP3    H143049   3.704   1.351   4.013 -0.0860  0.4155  0.9141
 7186TIP3    H243050   3.768   1.219   4.051 -1.0841  0.0266  1.2876
 7187TIP3   OH243051   4.498   0.576   2.574 -0.3112  0.2420 -0.4973
 7187TIP3    H143052   4.466   0.487   2.583  1.6656 -0.5134 -0.4665
 7187TIP3    H243053   4.470   0.604   2.487 -1.5343 -0.1303 -0.2354
 7188TIP3   OH243054   2.882   5.811  12.999 -0.4253  0.4139  0.0447
 7188TIP3    H143055   2.890   5.799  13.094 -0.1798  3.0868  0.4238
 7188TIP3    H243056   2.874   5.905  12.987  0.0813  0.1926 -2.6513
 7189TIP3   OH243057   3.439   6.190   2.908 -0.1049  0.3140  0.2874
 7189TIP3    H143058   3.525   6.232   2.900  0.6961 -0.5829  3.0411
 7189TIP3    H243059   3.448   6.109   2.857  0.4289  0.5686 -0.0355
 7190TIP3   OH243060   1.860   5.193   1.724  0.1980 -0.4301 -0.5939
 7190TIP3    H143061   1.811   5.148   1.655 -1.2800 -0.6296  0.5537
 7190TIP3    H243062   1.901   5.267   1.679 -0.1971 -0.9275 -1.8171
 7191TIP3   OH243063   3.120   2.450  13.555  0.5814  0.0543 -0.2558
 7191TIP3    H143064   3.211   2.427  13.536  0.3834 -1.1062  0.1182
 7191TIP3    H243065   3.095   2.391  13.627 -1.1839 -1.3790 -1.9237
 7192TIP3   OH243066   6.050   1.635  12.536  0.5634 -0.2086  0.7931
 7192TIP3    H143067   5.986   1.699  12.506  0.2680 -0.1106  1.5888
 7192TIP3    H243068   6.130   1.686  12.550  2.0186 -0.8933 -3.6611
 7193TIP3   OH243069   3.963   4.405  15.048 -0.3179  0.0643  0.4366
 7193TIP3    H143070   3.964   4.404  15.144 -0.1481  0.9040  0.4510
 7193TIP3    H243071   4.039   4.458  15.024 -1.1503  1.0583 -0.1167
 7194TIP3   OH243072   4.972   0.024   4.644 -0.0385  0.0662  0.3985
 7194TIP3    H143073   5.067   0.038   4.641 -0.0281  0.5267  2.0729
 7194TIP3    H243074   4.962  -0.069   4.664  0.0157 -0.2244 -0.8144
 7195TIP3   OH243075   6.135   3.645   4.722  0.0961  0.3491 -0.2084
 7195TIP3    H143076   6.046   3.673   4.702  0.1264  0.8552  0.3581
 7195TIP3    H243077   6.166   3.605   4.640 -1.3622 -1.7117  0.1689
 7196TIP3   OH243078   2.498   4.115   1.879  0.1355  0.2426 -0.0046
 7196TIP3    H143079   2.566   4.048   1.878  0.7245  0.8040  0.9794
 7196TIP3    H243080   2.517   4.168   1.956  0.3607  2.2353 -1.3353
 7197TIP3   OH243081   2.538   6.271  12.672 -0.2225  0.2647 -0.1683
 7197TIP3    H143082   2.557   6.177  12.675  1.3779  0.5535 -0.1970
 7197TIP3    H243083   2.446   6.278  12.698 -0.1349 -1.2353  0.6651
 7198TIP3   OH243084   4.975   2.603   5.567 -0.1541  0.3145  0.4335
 7198TIP3    H143085   5.034   2.677   5.581  0.1280 -0.1672  2.0089
 7198TIP3    H243086   5.000   2.567   5.482  0.9012  0.9517  0.4601
 7199TIP3   OH243087   4.263   1.019  14.469 -0.7576 -0.3319  0.0160
 7199TIP3    H143088   4.312   1.050  14.393 -0.8405 -1.0728 -0.3496
 7199TIP3    H243089   4.276   0.924  14.468 -0.5894 -0.3286  1.0519
 7200TIP3   OH243090   2.890   1.071  11.505 -0.0055 -0.5393  0.3390
 7200TIP3    H143091   2.804   1.106  11.530  0.0154  1.1347 -1.6979
 7200TIP3    H243092   2.953   1.127  11.550  0.1586 -2.8192  3.2436
 7201TIP3   OH243093   5.132   2.055   2.439 -0.7012  0.4983 -0.3000
 7201TIP3    H143094   5.123   2.139   2.394  1.6192 -0.6061 -3.2224
 7201TIP3    H243095   5.224   2.053   2.468 -1.7003  0.4609  3.3334
 7202TIP3   OH243096   3.601   0.365   5.658 -0.9832  0.4582 -0.1769
 7202TIP3    H143097   3.562   0.285   5.623 -0.2661  0.2679 -0.5641
 7202TIP3    H243098   3.536   0.433   5.640 -0.2370  0.5889 -2.9001
 7203TIP3   OH243099   5.982   0.985   4.512  0.4685 -0.5620 -0.2598
 7203TIP3    H143100   5.892   0.978   4.480 -0.5707  2.4748  1.5673
 7203TIP3    H243101   6.017   1.063   4.470  1.1068  0.0955  1.3933
 7204TIP3   OH243102   6.111   1.757  15.079  0.6698  0.1680 -0.5132
 7204TIP3    H143103   6.140   1.666  15.071  0.5152 -0.1117  1.6473
 7204TIP3    H243104   6.191   1.807  15.092  0.7441  0.3627 -1.5895
 7205TIP3   OH243105   5.750   3.747  14.588 -0.7009 -0.2452 -0.0579
 7205TIP3    H143106   5.722   3.691  14.516  0.5945 -0.9485 -0.0542
 7205TIP3    H243107   5.844   3.731  14.595 -0.1949  2.2565 -0.3224
 7206TIP3   OH243108   3.609   1.423  12.186 -0.2811  0.0498 -0.5191
 7206TIP3    H143109   3.699   1.393  12.179 -0.5078 -0.8017  0.0461
 7206TIP3    H243110   3.604   1.499  12.128  1.3554  1.4718  1.0595
 7207TIP3   OH243111   6.572   0.207   0.799  0.2211 -0.5965  0.5919
 7207TIP3    H143112   6.494   0.217   0.854 -0.9550  0.4061 -1.1587
 7207TIP3    H243113   6.634   0.271   0.834  0.9143 -2.4037  2.9409
 7208TIP3   OH243114   1.607   4.524   2.492 -0.0595  0.1923  0.2002
 7208TIP3    H143115   1.662   4.589   2.536  1.5266 -0.9968  0.0942
 7208TIP3    H243116   1.590   4.458   2.559 -1.7113  0.7004  0.3290
 7209TIP3   OH243117   1.526   1.492   6.382 -0.2310  0.5396 -0.4028
 7209TIP3    H143118   1.520   1.587   6.370 -1.2717  0.3576 -1.5502
 7209TIP3    H243119   1.457   1.471   6.444 -0.2487  0.4835 -0.4412
 7210TIP3   OH243120   1.678   4.614   0.260 -0.1275 -0.0135 -0.0697
 7210TIP3    H143121   1.679   4.647   0.349 -1.8108 -1.2075  0.4385
 7210TIP3    H243122   1.763   4.570   0.250 -0.1888 -0.4454  1.1733
 7211TIP3   OH243123   4.257   5.085  16.464 -1.1839 -0.1321  0.1348
 7211TIP3    H143124   4.167   5.055  16.471 -1.8104  1.2962 -1.3254
 7211TIP3    H243125   4.273   5.093  16.370  0.7387 -1.0905  0.3213
 7212TIP3   OH243126   4.606   3.052  15.103  0.1913  0.7355 -0.7512
 7212TIP3    H143127   4.544   3.111  15.061  0.5579  2.1399  0.5835
 7212TIP3    H243128   4.670   3.111  15.144  0.1089 -0.5518  1.3418
 7213TIP3   OH243129   4.866   2.497  16.710 -0.6274 -0.2315 -0.9376
 7213TIP3    H143130   4.861   2.539  16.796  1.1329 -1.4759 -0.1544
 7213TIP3    H243131   4.948   2.447  16.713 -0.5119 -0.3104 -3.3522
 7214TIP3   OH243132   1.393   4.522  11.238 -0.0089 -0.2482  0.0677
 7214TIP3    H143133   1.325   4.556  11.296  0.0567 -1.5794  0.9923
 7214TIP3    H243134   1.357   4.533  11.150  0.1660  2.4236  0.2550
 7215TIP3   OH243135   1.244   6.594  16.277  0.8844 -0.2657  0.1794
 7215TIP3    H143136   1.193   6.633  16.206  0.0833 -2.3631 -0.4702
 7215TIP3    H243137   1.210   6.635  16.357 -1.7331 -1.3807 -0.2520
 7216TIP3   OH243138   0.459   2.612  10.668 -0.1608 -0.0157 -0.2637
 7216TIP3    H143139   0.489   2.560  10.593 -0.4770 -0.3787 -0.1424
 7216TIP3    H243140   0.366   2.592  10.675  0.2157 -1.4223  1.3594
 7217TIP3   OH243141   5.487   2.363   0.514 -0.0170  0.3293 -0.2443
 7217TIP3    H143142   5.416   2.417   0.479 -0.5331  0.3109  0.7458
 7217TIP3    H243143   5.513   2.408   0.595 -1.0330 -1.3405  1.0631
 7218TIP3   OH243144   1.113   4.751  13.204 -0.5646 -0.3639 -0.3360
 7218TIP3    H143145   1.069   4.713  13.128 -1.4611  2.0999 -1.1656
 7218TIP3    H243146   1.205   4.730  13.191 -0.5803  0.6479 -2.5970
 7219TIP3   OH243147   5.383   0.867  14.614 -0.2066 -0.1047 -0.1904
 7219TIP3    H143148   5.415   0.793  14.666 -2.1214 -1.1743 -0.4479
 7219TIP3    H243149   5.336   0.826  14.541 -2.8962  1.2908  0.6110
 7220TIP3   OH243150   4.000   0.931  11.967 -0.5489  0.2991  0.2428
 7220TIP3    H143151   4.033   1.005  11.915  1.8234 -0.5073  0.4790
 7220TIP3    H243152   3.969   0.869  11.901  0.6367  0.1031 -0.1727
 7221TIP3   OH243153   3.363   3.177   2.474 -0.1025 -0.6725  0.3177
 7221TIP3    H143154   3.395   3.249   2.529  1.7885  0.5259 -2.1526
 7221TIP3    H243155   3.381   3.098   2.526 -1.4584  0.4872  2.7528
 7222TIP3   OH243156   4.752   6.238   2.103  0.2234 -0.0474  0.0123
 7222TIP3    H143157   4.783   6.269   2.189 -0.0550 -1.5369  0.6745
 7222TIP3    H243158   4.825   6.257   2.044  1.3006 -0.9478  1.0038
 7223TIP3   OH243159   2.176   6.097  13.620 -0.2046  0.1034 -0.0735
 7223TIP3    H143160   2.199   6.012  13.658 -0.8833 -0.0089  0.1132
 7223TIP3    H243161   2.217   6.161  13.677  1.6317 -0.1042 -1.1006
 7224TIP3   OH243162   2.404   2.705   2.172  0.6426 -0.2020  0.2661
 7224TIP3    H143163   2.376   2.644   2.104 -3.3069 -0.0554  1.5446
 7224TIP3    H243164   2.399   2.791   2.130 -0.4395 -0.2255  0.3236
 7225TIP3   OH243165   5.871   0.494   0.020 -0.4313 -0.1541  0.2079
 7225TIP3    H143166   5.885   0.443   0.099  1.5497 -2.1498 -1.2970
 7225TIP3    H243167   5.957   0.534   0.002 -0.7756  0.0821 -1.0265
 7226TIP3   OH243168   1.700   4.471  11.748 -0.5159 -0.7421 -0.2808
 7226TIP3    H143169   1.735   4.440  11.665 -0.4491  0.4681 -0.7250
 7226TIP3    H243170   1.706   4.395  11.806 -0.8477 -1.7041 -1.4469
 7227TIP3   OH243171   4.521   6.127  15.671 -0.3745 -0.3062 -0.0216
 7227TIP3    H143172   4.558   6.042  15.644 -1.0494 -0.6401  0.0863
 7227TIP3    H243173   4.594   6.188  15.663  0.0747 -0.8637 -0.2799
 7228TIP3   OH243174   6.237   1.177  16.893  0.0565 -0.2448  0.3636
 7228TIP3    H143175   6.212   1.258  16.848  2.0114 -0.1436 -0.6066
 7228TIP3    H243176   6.188   1.180  16.976 -0.4352  1.5877  0.0474
 7229TIP3   OH243177   6.170   5.095   0.219 -0.1939  0.5163 -0.2420
 7229TIP3    H143178   6.086   5.125   0.254 -0.9898 -1.2635 -0.4983
 7229TIP3    H243179   6.189   5.015   0.269  1.1470  0.6723 -0.4757
 7230TIP3   OH243180   4.692   1.779  13.903 -0.6429 -0.2507 -0.1315
 7230TIP3    H143181   4.753   1.732  13.961  1.0848  0.4705 -1.2763
 7230TIP3    H243182   4.711   1.872  13.918 -0.2981 -0.0427 -1.6750
 7231TIP3   OH243183   2.160   2.735   5.644 -0.1675 -0.2929 -0.1148
 7231TIP3    H143184   2.170   2.731   5.549 -1.6366 -0.6441 -0.2759
 7231TIP3    H243185   2.237   2.784   5.674  0.0394  0.3000 -1.5339
 7232TIP3   OH243186   2.605   6.132   0.802 -0.1832 -0.0408  0.2840
 7232TIP3    H143187   2.536   6.193   0.777 -0.1255 -0.8113 -1.8997
 7232TIP3    H243188   2.687   6.176   0.778  0.0510  0.3319  1.6809
 7233TIP3   OH243189   0.946   0.461  15.802 -0.1901  0.2288 -0.1468
 7233TIP3    H143190   0.965   0.425  15.889  0.0174  0.3928 -0.1234
 7233TIP3    H243191   1.026   0.445  15.751 -0.9785 -1.5900 -0.8902
 7234TIP3   OH243192   0.531   5.268   0.103 -0.2932 -0.1636  0.1865
 7234TIP3    H143193   0.578   5.270   0.186  0.2586 -0.4287 -0.1162
 7234TIP3    H243194   0.501   5.177   0.095  0.4590 -0.3646 -0.3492
 7235TIP3   OH243195   3.219   0.583  10.427  0.4001  0.2338  0.1912
 7235TIP3    H143196   3.135   0.606  10.466 -0.2157 -0.7346 -0.5222
 7235TIP3    H243197   3.273   0.662  10.436 -0.9352  1.2289 -0.2826
 7236TIP3   OH243198   2.871   0.564   5.802 -0.4776 -0.1966 -0.6476
 7236TIP3    H143199   2.908   0.555   5.891  2.5231  0.9135 -1.6511
 7236TIP3    H243200   2.782   0.595   5.816  0.0413  0.3725  1.9982
 7237TIP3   OH243201   2.154   1.181  14.107 -0.4233  0.5111  0.3082
 7237TIP3    H143202   2.237   1.180  14.059 -0.1719 -0.7174  0.7263
 7237TIP3    H243203   2.126   1.272  14.105 -0.0711  0.6245 -1.5733
 7238TIP3   OH243204   2.988   0.075  12.072  0.2777 -0.3158 -0.2711
 7238TIP3    H143205   3.012  -0.014  12.099 -1.7267 -0.2523  2.0954
 7238TIP3    H243206   3.051   0.132  12.117  0.4188 -0.4616 -0.2836
 7239TIP3   OH243207   3.694   5.155  15.437 -0.3721  0.5070  0.2829
 7239TIP3    H143208   3.755   5.086  15.464  0.6994  1.4505  0.3513
 7239TIP3    H243209   3.653   5.185  15.519 -1.3771 -0.5061  0.1770
 7240TIP3   OH243210   2.464   5.717   0.915 -0.1039  0.7787 -0.2626
 7240TIP3    H143211   2.390   5.662   0.942  0.6822  0.5778  1.5802
 7240TIP3    H243212   2.530   5.654   0.886 -0.7628  0.9733 -2.3952
 7241TIP3   OH243213   2.279   3.708  13.021  0.6173 -0.4973  0.3113
 7241TIP3    H143214   2.301   3.786  13.073 -0.3641 -0.1869  0.2803
 7241TIP3    H243215   2.308   3.635  13.075  1.9692 -0.1223  0.1492
 7242TIP3   OH243216   6.139   6.018   0.562  0.8871 -0.0672  0.2143
 7242TIP3    H143217   6.095   5.936   0.539  1.0514 -0.1173  0.0740
 7242TIP3    H243218   6.126   6.027   0.656  1.3813 -0.5614  0.3373
 7243TIP3   OH243219   5.512   5.965   0.168 -0.4832  0.0083 -0.0465
 7243TIP3    H143220   5.595   5.917   0.160  0.6990  1.2361  3.2220
 7243TIP3    H243221   5.460   5.913   0.229 -1.8738 -0.3403 -1.4688
 7244TIP3   OH243222   2.139   4.496   5.821  0.2913 -0.1855 -0.2366
 7244TIP3    H143223   2.218   4.464   5.776  1.2475  0.8539  0.6323
 7244TIP3    H243224   2.172   4.563   5.881 -1.2044 -0.0990  0.5267
 7245TIP3   OH243225   4.753   5.851   4.698  0.1056 -0.5428 -0.4604
 7245TIP3    H143226   4.672   5.897   4.677  0.3537 -1.0292 -2.7082
 7245TIP3    H243227   4.733   5.759   4.683  0.6507 -0.8417  0.5278
 7246TIP3   OH243228   2.381   5.241  13.775  0.2486 -0.1534  0.1216
 7246TIP3    H143229   2.432   5.191  13.712  1.9823  0.3932  1.0163
 7246TIP3    H243230   2.420   5.219  13.860 -1.7406 -0.5580  1.0054
 7247TIP3   OH243231   2.947   0.906   1.982  0.3590 -0.4370  0.6005
 7247TIP3    H143232   3.003   0.904   1.904 -0.0444 -1.3778  0.3273
 7247TIP3    H243233   2.983   0.978   2.034  0.4075  0.4719 -0.6156
 7248TIP3   OH243234   3.093   1.799  12.146  0.7033 -0.3333  0.5855
 7248TIP3    H143235   3.030   1.736  12.180  1.3872 -0.6155  1.3504
 7248TIP3    H243236   3.178   1.757  12.159  1.3841  1.5727  3.0732
 7249TIP3   OH243237   2.042   4.889  14.415  0.2238  0.4877  0.2270
 7249TIP3    H143238   2.062   4.798  14.434  0.6222  0.1619 -1.5199
 7249TIP3    H243239   2.093   4.939  14.478  0.9077 -0.4895  0.4692
 7250TIP3   OH243240   0.409   3.588   6.013 -0.3845 -0.3178 -0.6606
 7250TIP3    H143241   0.479   3.541   6.058 -0.7319 -0.7922 -0.5979
 7250TIP3    H243242   0.337   3.591   6.076  0.1081  1.5805 -0.1372
 7251TIP3   OH243243   2.430   4.336   2.603 -0.0715  0.6415 -0.2265
 7251TIP3    H143244   2.420   4.430   2.613  0.1309  0.7815 -1.2768
 7251TIP3    H243245   2.362   4.311   2.540  0.1799  0.1607 -0.3108
 7252TIP3   OH243246   2.926   3.839   5.118  0.2705 -0.4772  0.0172
 7252TIP3    H143247   2.917   3.807   5.208 -0.0503 -0.2131  0.0794
 7252TIP3    H243248   2.867   3.914   5.113 -0.9949 -1.4828 -0.8870
 7253TIP3   OH243249   5.217   6.254   4.322 -0.1523  0.0571 -0.2795
 7253TIP3    H143250   5.221   6.273   4.416 -0.5287 -1.9311  0.1828
 7253TIP3    H243251   5.160   6.322   4.286  1.1646  1.7195  0.6449
 7254TIP3   OH243252   2.050   4.207   0.285 -0.1823 -0.4035  0.7906
 7254TIP3    H143253   2.052   4.223   0.191  0.4078 -0.3914  0.7999
 7254TIP3    H243254   1.974   4.256   0.316 -1.1172 -1.4039  0.1520
 7255TIP3   OH243255   3.142   3.657  15.820 -0.6123  0.5290  0.2248
 7255TIP3    H143256   3.158   3.604  15.742  0.4364  2.1214 -0.6879
 7255TIP3    H243257   3.150   3.595  15.893 -0.9366 -0.8546 -0.8606
 7256TIP3   OH243258   3.797   3.715  12.669 -0.0622 -0.6921  0.1523
 7256TIP3    H143259   3.757   3.710  12.755 -0.2356  2.2251  0.3161
 7256TIP3    H243260   3.744   3.778  12.621  0.0976 -2.1451 -2.1180
 7257TIP3   OH243261   0.340   2.501   1.858 -0.0262  0.5474  0.2958
 7257TIP3    H143262   0.387   2.471   1.781  0.4759 -0.3096  0.9106
 7257TIP3    H243263   0.348   2.429   1.921 -2.0042  0.4283  0.4944
 7258TIP3   OH243264   4.466   6.333   0.504  0.6232 -0.2039 -0.7970
 7258TIP3    H143265   4.396   6.349   0.567  0.1529 -0.1660 -1.3155
 7258TIP3    H243266   4.456   6.241   0.479  0.0119  0.1038 -1.7423
 7259TIP3   OH243267   2.740   2.372  15.260  0.3627  0.0127 -0.1080
 7259TIP3    H143268   2.829   2.338  15.247  0.4972  0.9782 -2.1015
 7259TIP3    H243269   2.721   2.422  15.181 -1.4627  0.9753  0.8499
 7260TIP3   OH243270   4.866   4.555   4.923  0.6702  0.3694  0.9013
 7260TIP3    H143271   4.949   4.597   4.945  0.3055  1.5426  0.1302
 7260TIP3    H243272   4.802   4.627   4.921  0.0697 -0.1487 -0.6809
 7261TIP3   OH243273   2.715   4.577  17.171 -0.4341 -0.3920 -0.3929
 7261TIP3    H143274   2.761   4.619  17.243 -0.4359 -0.9794 -0.0399
 7261TIP3    H243275   2.782   4.560  17.105 -0.5223  0.6100 -0.7584
 7262TIP3   OH243276   4.321   1.081  16.541  0.2223  0.2214  0.2696
 7262TIP3    H143277   4.320   1.015  16.610 -0.2248  1.1825  1.2067
 7262TIP3    H243278   4.322   1.030  16.459  1.5483 -0.9337  0.9651
 7263TIP3   OH243279   2.459   2.021   2.622  0.0478 -0.3824 -0.0578
 7263TIP3    H143280   2.472   2.086   2.691  0.2066 -1.8989  1.4075
 7263TIP3    H243281   2.377   2.048   2.579 -1.2418 -0.5650  2.1388
 7264TIP3   OH243282   6.450   3.318  14.506  0.3504  0.4316  0.0321
 7264TIP3    H143283   6.526   3.340  14.559 -0.2280  1.4008  0.4955
 7264TIP3    H243284   6.437   3.395  14.449 -0.6903  0.5980  0.4647
 7265TIP3   OH243285   1.250   3.020  15.069  0.7129 -0.6256 -0.0556
 7265TIP3    H143286   1.289   3.108  15.070  1.3597 -0.8976 -0.2506
 7265TIP3    H243287   1.181   3.025  15.004  0.3137 -0.0886  0.3959
 7266TIP3   OH243288   2.260   6.556  13.957  0.6369 -0.5492  0.0293
 7266TIP3    H143289   2.266   6.570  14.051  2.2190  0.0297 -0.1319
 7266TIP3    H243290   2.193   6.617  13.927  0.9380  0.0886  0.6395
 7267TIP3   OH243291   2.070   1.556  16.052  0.1174  0.2648  0.2137
 7267TIP3    H143292   1.984   1.570  16.013  0.6183  1.9861 -0.3524
 7267TIP3    H243293   2.060   1.583  16.144 -0.0611  0.0318  0.2636
 7268TIP3   OH243294   2.265   0.877  17.160  0.0707  0.2207  0.4978
 7268TIP3    H143295   2.309   0.958  17.138 -0.1863  1.0325  2.7033
 7268TIP3    H243296   2.177   0.886  17.124 -0.8970  2.2383  3.0533
 7269TIP3   OH243297   5.075   1.534   0.749  0.1799  0.0221 -0.2009
 7269TIP3    H143298   5.128   1.582   0.685  1.5503  0.1524  0.9724
 7269TIP3    H243299   5.030   1.467   0.698  0.4416  0.7644 -1.4493
 7270TIP3   OH243300   5.971   1.063  11.085 -0.3959  0.2048  0.1612
 7270TIP3    H143301   6.007   1.141  11.044 -0.0579  0.0795  0.2097
 7270TIP3    H243302   6.036   0.995  11.067 -0.7411 -0.0894  0.0240
 7271TIP3   OH243303   2.364   2.318   3.173 -0.3513  0.2296  0.5184
 7271TIP3    H143304   2.388   2.310   3.265 -1.6849 -0.5316  0.8265
 7271TIP3    H243305   2.321   2.235   3.152  0.4704  0.1453 -0.9761
 7272TIP3   OH243306   4.897   2.742   2.168 -0.1008 -0.2906 -0.4520
 7272TIP3    H143307   4.959   2.679   2.133 -0.9513 -1.4386  0.0246
 7272TIP3    H243308   4.825   2.744   2.104 -0.2352 -0.0657 -0.2972
 7273TIP3   OH243309   4.892   3.384   2.596  0.0174 -0.1569 -0.4145
 7273TIP3    H143310   4.877   3.477   2.577  1.3852  0.2496  0.3425
 7273TIP3    H243311   4.929   3.349   2.515 -0.8246 -0.1222 -0.8153
 7274TIP3   OH243312   2.854   4.201   1.818  0.5999 -0.0568  0.0930
 7274TIP3    H143313   2.921   4.216   1.885  2.7816  0.8801 -2.1535
 7274TIP3    H243314   2.794   4.274   1.828  1.2856  0.4534  0.5914
 7275TIP3   OH243315   3.765   2.964   3.770 -0.0399  0.3266  0.3465
 7275TIP3    H143316   3.849   2.918   3.764 -0.2532  0.0083 -0.2700
 7275TIP3    H243317   3.779   3.044   3.719 -0.5778 -0.4481 -1.0564
 7276TIP3   OH243318   1.270   4.944   3.402 -0.0966 -0.0483 -0.7638
 7276TIP3    H143319   1.348   4.914   3.354  2.2766  1.6448  1.7151
 7276TIP3    H243320   1.299   4.950   3.493 -3.3779  0.1128  0.3856
 7277TIP3   OH243321   3.585   5.687   3.623 -0.4026  0.5082  0.2310
 7277TIP3    H143322   3.630   5.620   3.572  1.4932  1.5502  0.4496
 7277TIP3    H243323   3.551   5.640   3.699  0.9760 -0.2146  0.4308
 7278TIP3   OH243324   1.566   5.575   3.458  0.4772 -0.0938  0.3017
 7278TIP3    H143325   1.516   5.521   3.518  0.9197 -1.4243 -0.4924
 7278TIP3    H243326   1.657   5.548   3.470  0.7211  0.5306 -0.0466
 7279TIP3   OH243327   1.503   0.369  11.961  0.2388 -0.2647  0.0867
 7279TIP3    H143328   1.531   0.434  12.025 -3.6466 -0.0460  1.8854
 7279TIP3    H243329   1.494   0.288  12.011 -0.1984 -0.8196 -0.8507
 7280TIP3   OH243330   4.946   6.500   1.396 -0.2822 -0.0248  0.6106
 7280TIP3    H143331   4.851   6.488   1.396 -0.2643 -0.3052 -0.5426
 7280TIP3    H243332   4.959   6.589   1.365 -0.1435 -0.5996 -1.0894
 7281TIP3   OH243333   2.369   2.946  14.609  0.2736 -0.1277 -0.2909
 7281TIP3    H143334   2.455   2.986  14.618 -0.4869  1.5768 -0.3717
 7281TIP3    H243335   2.375   2.891  14.531  1.0580  0.5670 -0.7218
 7282TIP3   OH243336   6.348   6.295  11.540  0.2054 -0.0675 -0.1680
 7282TIP3    H143337   6.305   6.380  11.529  0.0235 -0.3205 -1.5337
 7282TIP3    H243338   6.335   6.250  11.457 -0.0117 -1.5925  0.6508
 7283TIP3   OH243339   3.535   0.022  16.341  0.2160 -0.2590  0.0998
 7283TIP3    H143340   3.449   0.038  16.380 -0.6600 -0.0558 -1.8126
 7283TIP3    H243341   3.546  -0.073  16.345  0.2886 -0.2164  1.1041
 7284TIP3   OH243342   5.417   5.655   3.973 -0.5508 -0.0878 -0.2391
 7284TIP3    H143343   5.490   5.609   3.931 -1.0726 -1.1137 -0.0283
 7284TIP3    H243344   5.448   5.746   3.981  1.7946 -0.9924  2.3334
 7285TIP3   OH243345   0.935   4.874   4.955 -0.3525 -0.3455  0.0745
 7285TIP3    H143346   1.017   4.895   5.000 -0.0339 -2.4451  0.5742
 7285TIP3    H243347   0.889   4.815   5.015 -1.5170 -0.4285 -0.8598
 7286TIP3   OH243348   5.073   1.821   1.457  0.1885  0.0964 -0.4641
 7286TIP3    H143349   5.153   1.842   1.506  0.4989 -0.5277 -0.6947
 7286TIP3    H243350   5.104   1.800   1.369 -0.1915 -0.5459 -0.4463
 7287TIP3   OH243351   2.626   4.226   4.513  0.1156  0.3792 -0.2568
 7287TIP3    H143352   2.607   4.313   4.548 -0.9317  0.6949 -1.5093
 7287TIP3    H243353   2.553   4.172   4.542 -0.6551  0.5963 -1.7146
 7288TIP3   OH243354   4.362   1.723   1.260 -0.2583  0.2277 -0.5876
 7288TIP3    H143355   4.358   1.757   1.350  0.3123  0.2927 -0.5851
 7288TIP3    H243356   4.390   1.797   1.207  1.1446 -0.2390 -0.5588
 7289TIP3   OH243357   1.601   5.506   1.624  0.2461  0.4728  0.1513
 7289TIP3    H143358   1.692   5.482   1.608 -0.4140 -2.1558 -0.1166
 7289TIP3    H243359   1.567   5.436   1.679 -1.7581  1.0985 -0.2169
 7290TIP3   OH243360   2.285   4.279   4.414  0.2732  0.1475  0.9186
 7290TIP3    H143361   2.347   4.330   4.467 -0.5348  0.7580  1.2997
 7290TIP3    H243362   2.204   4.279   4.466 -0.3831  0.3128 -0.0766
 7291TIP3   OH243363   4.732   3.141  11.272  0.2385 -0.1789  0.1700
 7291TIP3    H143364   4.787   3.118  11.197  0.7827  0.1911  0.4489
 7291TIP3    H243365   4.754   3.078  11.340 -0.3269 -0.5755 -0.0099
 7292TIP3   OH243366   0.190   2.672   5.193  0.1327 -0.2099  0.0249
 7292TIP3    H143367   0.253   2.628   5.250 -0.4237 -0.1704  0.6891
 7292TIP3    H243368   0.122   2.704   5.253  0.4538  1.4541 -0.4439
 7293TIP3   OH243369   5.767   5.203  12.583  0.4099 -0.7957 -0.1882
 7293TIP3    H143370   5.856   5.234  12.564  0.3569  0.0756  0.9049
 7293TIP3    H243371   5.780   5.134  12.648  0.2749 -0.5777  0.0683
 7294TIP3   OH243372   5.741   5.170   3.944 -0.1875 -0.0918  1.0610
 7294TIP3    H143373   5.834   5.172   3.921 -0.2268 -0.2866  0.8813
 7294TIP3    H243374   5.725   5.080   3.973 -0.7217 -0.5753 -0.6137
 7295TIP3   OH243375   5.266   0.899  16.807 -0.5917 -0.2272 -0.9046
 7295TIP3    H143376   5.204   0.967  16.782 -0.5341  0.0323 -0.3752
 7295TIP3    H243377   5.343   0.915  16.752  0.5592  1.9726  1.1471
 7296TIP3   OH243378   3.655   2.028  12.525 -0.1093  0.1718  1.0532
 7296TIP3    H143379   3.694   2.105  12.483  0.2463 -0.2561  0.5970
 7296TIP3    H243380   3.719   2.002  12.591 -0.3841  0.4685  1.4397
 7297TIP3   OH243381   5.306   0.529  15.815 -0.0283 -0.6649  0.4387
 7297TIP3    H143382   5.317   0.589  15.741 -0.6436  0.4022  1.1983
 7297TIP3    H243383   5.368   0.458  15.797  1.8411  0.9293  0.2690
 7298TIP3   OH243384   5.055   4.986   4.181 -0.2991 -0.4808 -0.1570
 7298TIP3    H143385   4.972   5.009   4.222  1.6291  1.5208  3.1297
 7298TIP3    H243386   5.084   4.908   4.228  0.2732 -0.3548 -0.2906
 7299TIP3   OH243387   5.435   5.352  12.909 -0.1213  0.6382  0.1124
 7299TIP3    H143388   5.371   5.367  12.839 -0.4703  0.8472  0.4686
 7299TIP3    H243389   5.500   5.295  12.870 -0.8373 -0.0651 -0.0816
 7300TIP3   OH243390   1.510   3.804  12.843  0.5089  0.6368 -0.4324
 7300TIP3    H143391   1.566   3.729  12.865 -1.7314 -1.3240 -1.0444
 7300TIP3    H243392   1.462   3.823  12.923 -2.0032 -1.4480 -1.3312
 7301TIP3   OH243393   2.529   4.921   5.958  0.4911 -0.2206  0.5858
 7301TIP3    H143394   2.502   4.994   5.902  0.2919 -0.6809  0.0814
 7301TIP3    H243395   2.612   4.950   5.996 -0.2686  0.8670  1.5056
 7302TIP3   OH243396   0.948   1.926   5.529  0.0240  0.5701 -0.2263
 7302TIP3    H143397   0.867   1.945   5.577 -0.6960  1.2586 -1.6693
 7302TIP3    H243398   0.940   1.975   5.447  1.3294 -0.3767 -0.9605
 7303TIP3   OH243399   1.943   2.004   6.011 -0.0035  0.1953 -0.9162
 7303TIP3    H143400   2.016   2.064   6.023  0.2565 -0.0010 -1.5078
 7303TIP3    H243401   1.947   1.947   6.088  1.2300 -0.5985 -1.5280
 7304TIP3   OH243402   4.454   1.425   2.512  0.4251 -0.2713 -0.7786
 7304TIP3    H143403   4.372   1.417   2.559  0.8062 -0.1486 -0.0864
 7304TIP3    H243404   4.521   1.401   2.576  0.8912 -0.9046 -1.4886
 7305TIP3   OH243405   2.982   6.259  11.571  0.0106  0.1617  0.0088
 7305TIP3    H143406   2.923   6.332  11.552  0.0073  0.4560  1.0839
 7305TIP3    H243407   2.923   6.186  11.592  0.0120 -0.1929 -1.1438
 7306TIP3   OH243408   6.507   4.122   6.064  0.0065  0.0771 -0.0957
 7306TIP3    H143409   6.479   4.052   6.123 -0.2001  0.3829  0.1755
 7306TIP3    H243410   6.502   4.084   5.977  0.3303 -0.3900  0.0808
 7307TIP3   OH243411   6.738   0.397   0.907  0.6586 -0.7381 -0.0325
 7307TIP3    H143412   6.819   0.437   0.873 -0.2889  0.0198 -1.5290
 7307TIP3    H243413   6.705   0.460   0.970  0.7409 -0.5952 -0.1307
 7308TIP3   OH243414   2.081   2.563  15.636  0.3622  0.3302  0.4612
 7308TIP3    H143415   2.066   2.477  15.675 -0.8856  0.5721  0.5473
 7308TIP3    H243416   2.044   2.624  15.700  1.7811  0.9919  0.6918
 7309TIP3   OH243417   0.955   2.029  14.808  0.4901 -0.0410 -0.1543
 7309TIP3    H143418   1.040   2.063  14.782 -0.3581 -0.7405 -4.8048
 7309TIP3    H243419   0.898   2.107  14.811  1.0994  0.4129  2.8604
 7310TIP3   OH243420   0.524   3.516  13.809  0.1315  0.8232 -0.3844
 7310TIP3    H143421   0.488   3.583  13.751 -0.4008  0.7849 -0.1081
 7310TIP3    H243422   0.541   3.440  13.752 -1.4925  0.3717 -0.3090
 7311TIP3   OH243423   6.321   6.327   6.155 -0.1898  0.2828  0.5144
 7311TIP3    H143424   6.401   6.375   6.131  0.1451 -1.3799 -2.1223
 7311TIP3    H243425   6.353   6.250   6.202 -0.0727 -0.9599 -1.5143
 7312TIP3   OH243426   4.350   1.267   0.962 -0.0335 -0.3419  0.6226
 7312TIP3    H143427   4.354   1.362   0.961 -0.3013 -0.1115 -4.4134
 7312TIP3    H243428   4.256   1.247   0.959 -0.0568 -0.9720  3.0530
 7313TIP3   OH243429   4.289   4.080   1.477 -0.4593 -0.0275 -0.1164
 7313TIP3    H143430   4.326   4.080   1.565 -0.2354 -2.1764 -0.1454
 7313TIP3    H243431   4.360   4.110   1.420 -0.7567  1.8375  0.4428
 7314TIP3   OH243432   4.066   2.133  12.686 -0.1969  0.8813 -0.1969
 7314TIP3    H143433   4.114   2.196  12.634  0.6493  0.8476  0.5182
 7314TIP3    H243434   4.071   2.166  12.776  0.1166 -0.0999  0.1687
 7315TIP3   OH243435   5.435   5.526  15.759 -0.3697  0.7711  0.8311
 7315TIP3    H143436   5.359   5.580  15.739 -0.4219  1.1090  1.8742
 7315TIP3    H243437   5.483   5.575  15.826  0.9718  0.7362 -0.0570
 7316TIP3   OH243438   5.598   0.598   4.271  0.0579 -0.0192 -0.1671
 7316TIP3    H143439   5.561   0.607   4.359  0.0250  0.1746 -0.1995
 7316TIP3    H243440   5.528   0.627   4.213  0.4087  0.7689 -0.2054
 7317TIP3   OH243441   4.906   1.082   1.294  0.7431 -0.1918 -0.0162
 7317TIP3    H143442   4.836   1.143   1.316 -0.2518 -1.5284  0.6997
 7317TIP3    H243443   4.977   1.104   1.354  0.7272  0.7998 -0.3494
 7318TIP3   OH243444   3.757   6.526  10.810  0.1110  0.1562 -0.1295
 7318TIP3    H143445   3.796   6.601  10.855  1.7634  0.6332 -2.2188
 7318TIP3    H243446   3.669   6.555  10.788  0.4742  1.2174 -0.2439
 7319TIP3   OH243447   4.878   3.108   5.070 -0.3649  0.2348 -0.0350
 7319TIP3    H143448   4.906   3.199   5.060 -0.9589  0.5136  0.7179
 7319TIP3    H243449   4.789   3.115   5.105  0.0189 -0.6369  1.1549
 7320TIP3   OH243450   0.065   3.015  12.696 -0.1325 -0.5731  0.1583
 7320TIP3    H143451   0.002   2.984  12.631  0.4772 -0.8571 -0.3124
 7320TIP3    H243452   0.149   2.984  12.663  0.4475  1.1289 -0.0649
 7321TIP3   OH243453   6.566   2.029  14.949 -0.3401 -0.0999 -0.6560
 7321TIP3    H143454   6.579   2.029  14.855  1.2670 -0.3926 -0.4571
 7321TIP3    H243455   6.565   2.122  14.974 -1.4528 -0.0002 -1.0250
 7322TIP3   OH243456   3.459   4.585   4.718 -0.3403  0.2950  0.1319
 7322TIP3    H143457   3.443   4.672   4.754  1.7499 -0.0365  2.0715
 7322TIP3    H243458   3.505   4.602   4.636  0.1475  1.0087  0.5437
 7323TIP3   OH243459   2.623   2.101  12.513  0.0454 -1.0549  0.3649
 7323TIP3    H143460   2.595   2.028  12.568 -0.6020 -0.1363  1.2888
 7323TIP3    H243461   2.545   2.154  12.502  0.9869  0.6423  1.5352
 7324TIP3   OH243462   4.394   0.565  12.710 -0.5279  0.3340  0.4696
 7324TIP3    H143463   4.450   0.523  12.775 -1.1622 -0.6190  0.4139
 7324TIP3    H243464   4.448   0.636  12.675  0.1308  0.3266  1.4160
 7325TIP3   OH243465   0.618   1.014  15.726 -0.3124  0.3381 -0.0508
 7325TIP3    H143466   0.689   1.042  15.784 -0.2918  1.3349 -0.5398
 7325TIP3    H243467   0.661   0.963  15.657  0.2505  2.6419 -1.4894
 7326TIP3   OH243468   6.197   3.194   4.524  0.1500  0.0264  0.6328
 7326TIP3    H143469   6.184   3.171   4.432  0.9278 -1.6298  0.8958
 7326TIP3    H243470   6.292   3.189   4.536 -0.0486 -1.4951  1.9039
 7327TIP3   OH243471   1.058   1.147  13.241 -0.3628  0.0172  0.3525
 7327TIP3    H143472   0.970   1.118  13.264 -0.1635 -1.0104 -0.1047
 7327TIP3    H243473   1.063   1.136  13.146 -0.0411  0.9456  0.2508
 7328TIP3   OH243474   1.258   6.272   4.628  0.2547  0.4548 -0.1462
 7328TIP3    H143475   1.191   6.340   4.619  0.8992  0.9612 -1.4114
 7328TIP3    H243476   1.316   6.286   4.553  1.0966 -0.7296  0.2581
 7329TIP3   OH243477   3.708   0.202  12.556 -0.4733 -0.6999  0.3200
 7329TIP3    H143478   3.671   0.114  12.553  0.7131 -1.2619  1.0636
 7329TIP3    H243479   3.760   0.209  12.476 -0.3747 -0.7750  0.3769
 7330TIP3   OH243480   0.257   6.474  17.187 -0.2376 -0.2469  0.0357
 7330TIP3    H143481   0.230   6.494  17.098  2.0603  0.6343 -0.5179
 7330TIP3    H243482   0.326   6.409  17.178  1.6016  1.4574  0.9519
 7331TIP3   OH243483   4.531   3.327  17.180 -0.5802  0.6763 -0.4769
 7331TIP3    H143484   4.494   3.326  17.092  0.5757  0.2603 -0.9742
 7331TIP3    H243485   4.616   3.284  17.171 -0.9138 -0.4036  1.0598
 7332TIP3   OH243486   4.458   6.457  17.184  0.9250  0.1138 -0.2814
 7332TIP3    H143487   4.444   6.529  17.122  0.3209 -0.1351 -0.4375
 7332TIP3    H243488   4.515   6.495  17.252  1.7294  0.3376 -1.0658
 7333TIP3   OH243489   0.811   4.678   5.494 -0.2312  0.2866  0.7238
 7333TIP3    H143490   0.817   4.706   5.585  1.0041 -0.5462  0.9176
 7333TIP3    H243491   0.848   4.589   5.494 -0.5084  0.1586 -0.5344
 7334TIP3   OH243492   3.477   0.633  14.995 -0.0878 -0.4060  0.2260
 7334TIP3    H143493   3.531   0.625  15.074 -0.0747 -2.1260  0.0850
 7334TIP3    H243494   3.521   0.579  14.930 -1.2098 -0.7013 -0.3239
 7335TIP3   OH243495   6.381   1.600  13.716 -0.0110 -0.5522  0.4804
 7335TIP3    H143496   6.455   1.589  13.657 -0.8694  1.4116 -1.0690
 7335TIP3    H243497   6.410   1.664  13.781 -0.9022  1.9374 -1.3924
 7336TIP3   OH243498   1.124   4.925  12.101  0.1345  1.1210  0.2177
 7336TIP3    H143499   1.084   5.004  12.136 -0.9658  0.0753  1.4460
 7336TIP3    H243500   1.104   4.857  12.166  1.2069 -0.1207 -0.6970
 7337TIP3   OH243501   0.662   6.432   2.812 -0.4601 -0.1876  0.3767
 7337TIP3    H143502   0.575   6.460   2.783 -1.5736 -1.6134  2.0918
 7337TIP3    H243503   0.678   6.351   2.763  0.6658  0.8584 -1.0966
 7338TIP3   OH243504   0.057   5.405  16.543  0.0800 -0.2749 -0.3360
 7338TIP3    H143505   0.140   5.378  16.582 -0.4330  0.1434  1.1174
 7338TIP3    H243506   0.008   5.443  16.615 -1.2340 -0.1611 -1.2517
 7339TIP3   OH243507   2.347   2.793  11.639 -0.5983 -0.0013 -0.2612
 7339TIP3    H143508   2.328   2.878  11.599 -1.4658 -0.6221 -1.2102
 7339TIP3    H243509   2.274   2.778  11.699  1.0090  1.2264  2.2013
 7340TIP3   OH243510   4.787   6.336  12.633 -0.2135  0.5511 -0.3507
 7340TIP3    H143511   4.718   6.298  12.687 -0.5972  0.8715 -0.6064
 7340TIP3    H243512   4.741   6.398  12.576  0.5498  2.6251  1.1497
 7341TIP3   OH243513   1.701   0.477   4.675  0.3155  0.2332 -0.0008
 7341TIP3    H143514   1.607   0.490   4.660  0.7129  1.0637 -2.1651
 7341TIP3    H243515   1.708   0.386   4.705 -1.0729 -0.3462 -1.2760
 7342TIP3   OH243516   6.353   1.963   2.379  0.1632 -0.4641  0.3578
 7342TIP3    H143517   6.392   1.926   2.459 -2.2648 -1.8123  1.0197
 7342TIP3    H243518   6.298   2.034   2.409  1.5963  1.0907 -0.5160
 7343TIP3   OH243519   1.753   3.899   3.022 -0.1767 -0.0991  0.8032
 7343TIP3    H143520   1.690   3.932   2.959  1.7102 -0.6049 -1.4909
 7343TIP3    H243521   1.789   3.820   2.982  1.0033 -0.5469  2.5950
 7344TIP3   OH243522   4.110   0.343   1.830 -0.4975 -0.0937  0.1530
 7344TIP3    H143523   4.151   0.318   1.747  2.5386 -0.6159  1.6708
 7344TIP3    H243524   4.084   0.259   1.869  0.5573 -0.0846  0.8890
 7345TIP3   OH243525   2.388   4.860  15.638  0.4379 -0.4858 -0.0808
 7345TIP3    H143526   2.294   4.844  15.633  0.4614 -0.3155 -1.4252
 7345TIP3    H243527   2.414   4.878  15.548  1.8601 -1.0761  0.1932
 7346TIP3   OH243528   4.446   0.728   3.676 -0.6882 -0.2638  0.7466
 7346TIP3    H143529   4.410   0.814   3.653  1.2869  0.4712  0.1860
 7346TIP3    H243530   4.505   0.745   3.749  1.2893 -0.7191 -0.6508
 7347TIP3   OH243531   5.255   5.522   4.169  0.0432  0.2532  0.1475
 7347TIP3    H143532   5.337   5.525   4.119  0.6509  0.6260  1.1349
 7347TIP3    H243533   5.215   5.438   4.145  1.2341 -0.4162  0.4574
 7348TIP3   OH243534   4.822   4.961   3.301  0.4662 -0.0738 -0.4605
 7348TIP3    H143535   4.845   5.042   3.255  1.9232  0.1526  0.6017
 7348TIP3    H243536   4.754   4.921   3.247  0.1117  1.5751 -1.3022
 7349TIP3   OH243537   5.759   6.521   0.707  0.5006  0.6285  0.3606
 7349TIP3    H143538   5.767   6.522   0.611 -0.4036  1.8281  0.2681
 7349TIP3    H243539   5.777   6.431   0.732 -0.4656 -0.0007 -1.0599
 7350TIP3   OH243540   4.407   1.373  13.649 -0.0230 -0.1769 -0.4128
 7350TIP3    H143541   4.467   1.412  13.712 -0.4000  1.0017 -0.7480
 7350TIP3    H243542   4.461   1.312  13.598 -0.0343 -2.4110  2.0360
 7351TIP3   OH243543   2.329   4.341   5.239 -0.2973  0.2567 -0.5715
 7351TIP3    H143544   2.397   4.403   5.213  0.1255 -1.4081 -4.1556
 7351TIP3    H243545   2.373   4.279   5.297  0.1881  1.2919  0.1892
 7352TIP3   OH243546   3.434   1.172   3.751 -0.0470 -0.4069  0.4024
 7352TIP3    H143547   3.348   1.190   3.788 -0.2067 -0.4926  0.0730
 7352TIP3    H243548   3.478   1.258   3.751 -0.6593 -0.0809 -0.7746
 7353TIP3   OH243549   5.776   3.172   3.711  0.1375  0.2169  0.1697
 7353TIP3    H143550   5.739   3.236   3.771  1.7171  0.1624  1.2506
 7353TIP3    H243551   5.832   3.224   3.652 -1.5244  0.2968 -1.4251
 7354TIP3   OH243552   1.620   5.658   6.015  0.5054 -0.4240 -0.3174
 7354TIP3    H143553   1.572   5.707   5.948  0.5128  0.2113  0.1280
 7354TIP3    H243554   1.557   5.594   6.048 -0.4741  1.2130  1.1257
 7355TIP3   OH243555   4.494   3.147  11.744 -0.7747  0.3398 -0.0103
 7355TIP3    H143556   4.439   3.140  11.665  1.5477  1.7822 -1.8755
 7355TIP3    H243557   4.467   3.072  11.798 -2.3396 -0.8176 -2.2235
 7356TIP3   OH243558   5.360   0.239  16.273  0.1151 -0.2693  0.1836
 7356TIP3    H143559   5.409   0.271  16.349  2.9367 -2.2823 -0.6031
 7356TIP3    H243560   5.326   0.318  16.231 -0.2186  0.9850  2.6529
 7357TIP3   OH243561   2.672   6.591   4.289  0.1983  0.0690 -0.1116
 7357TIP3    H143562   2.628   6.603   4.205 -0.3470  0.6210  0.2463
 7357TIP3    H243563   2.601   6.577   4.352  0.6203 -0.8317  0.1922
 7358TIP3   OH243564   6.674   4.634  14.499 -0.1019  0.1792  0.3860
 7358TIP3    H143565   6.692   4.550  14.458 -0.0022 -0.2176  1.2228
 7358TIP3    H243566   6.708   4.625  14.588  0.9262  1.4839  0.1549
 7359TIP3   OH243567   2.781   5.159  12.121 -0.2374 -0.5889 -0.1488
 7359TIP3    H143568   2.780   5.252  12.145  0.2028 -0.3497 -1.0105
 7359TIP3    H243569   2.870   5.143  12.089  0.0095 -1.5729  0.9683
 7360TIP3   OH243570   4.409   0.344   0.999  0.2513  0.5401  0.2750
 7360TIP3    H143571   4.348   0.285   1.042  0.1112  0.5687  0.1177
 7360TIP3    H243572   4.407   0.424   1.052 -0.6420  0.9237 -0.3170
 7361TIP3   OH243573   6.009   2.041   0.442  0.4439  0.3717  0.5170
 7361TIP3    H143574   6.002   1.980   0.515  0.2670  0.7552  0.8220
 7361TIP3    H243575   5.922   2.042   0.403  0.1183  1.3155  1.2324
 7362TIP3   OH243576   1.555   3.311   2.944  0.1301  0.0531 -0.2036
 7362TIP3    H143577   1.513   3.369   2.881  0.9598  1.2497  0.3130
 7362TIP3    H243578   1.571   3.230   2.895 -0.3649  0.5173 -1.1546
 7363TIP3   OH243579   2.490   5.276  16.764  0.1475  0.5522  0.0652
 7363TIP3    H143580   2.457   5.192  16.734  1.5563 -0.0904  0.2275
 7363TIP3    H243581   2.433   5.300  16.837  0.6960 -1.0705  1.0784
 7364TIP3   OH243582   5.084   2.720  12.704  0.0099  0.1947  0.6207
 7364TIP3    H143583   5.056   2.634  12.736 -1.1777  0.2054 -0.3152
 7364TIP3    H243584   5.179   2.715  12.704  0.0052 -1.9689 -1.5192
 7365TIP3   OH243585   1.871   0.194   0.864 -0.5424  0.5823  0.2023
 7365TIP3    H143586   1.805   0.260   0.843 -0.2861  1.0157  0.7336
 7365TIP3    H243587   1.836   0.150   0.942  0.8523  2.3766  1.9280
 7366TIP3   OH243588   3.366   4.052  15.182  0.1681 -0.0452  0.0883
 7366TIP3    H143589   3.317   4.133  15.201  1.4568  1.3118 -1.9568
 7366TIP3    H243590   3.381   4.055  15.088  1.8273 -1.7865  0.2467
 7367TIP3   OH243591   1.842   6.374   4.224 -0.0905  0.2528  0.0555
 7367TIP3    H143592   1.899   6.445   4.253 -1.4980  1.4377  0.0626
 7367TIP3    H243593   1.820   6.326   4.304  2.7022 -1.7244 -0.2085
 7368TIP3   OH243594   6.784   3.726   3.557 -0.1092  0.3271  0.2938
 7368TIP3    H143595   6.875   3.715   3.585 -0.0041  0.4712  0.0044
 7368TIP3    H243596   6.774   3.820   3.543 -0.1586  0.2532 -0.1669
 7369TIP3   OH243597   4.925   5.791   1.520 -0.3454  0.3542  0.4239
 7369TIP3    H143598   4.849   5.792   1.578 -1.5587 -1.7400 -0.9699
 7369TIP3    H243599   4.894   5.832   1.439  1.0152  2.3329  0.8344
 7370TIP3   OH243600   2.502   0.360   2.992  0.3863 -0.4531 -0.1160
 7370TIP3    H143601   2.597   0.366   3.005  0.5133 -1.2226 -0.6384
 7370TIP3    H243602   2.489   0.384   2.900 -0.0175  0.4129  0.1567
 7371TIP3   OH243603   2.918   2.185  12.968 -0.1190 -0.3725  0.3525
 7371TIP3    H143604   3.003   2.147  12.989 -0.1035 -0.6890 -0.2564
 7371TIP3    H243605   2.935   2.242  12.893  0.0883  1.7965  1.9350
 7372TIP3   OH243606   0.336   4.424  12.744 -0.2850  0.5132 -0.0195
 7372TIP3    H143607   0.410   4.456  12.692 -0.8727  2.6609  0.3794
 7372TIP3    H243608   0.369   4.420  12.833  0.3860 -2.0959 -0.3050
 7373TIP3   OH243609   1.612   3.163  14.948 -0.0344 -0.0385 -0.3110
 7373TIP3    H143610   1.531   3.172  14.998  0.0365  2.4234 -0.5604
 7373TIP3    H243611   1.597   3.211  14.867  0.6194 -2.1815 -1.8183
 7374TIP3   OH243612   2.846   3.166  13.760 -0.0867 -0.1259 -0.6397
 7374TIP3    H143613   2.860   3.112  13.682 -1.1160 -0.7026 -0.4578
 7374TIP3    H243614   2.767   3.217  13.740  0.2232  0.4701 -0.3616
 7375TIP3   OH243615   1.301   1.243   2.373 -0.2119  0.6690  0.7182
 7375TIP3    H143616   1.266   1.254   2.285 -0.2740 -0.3785  0.5952
 7375TIP3    H243617   1.317   1.332   2.404  0.9391  1.0367 -0.7911
 7376TIP3   OH243618   4.349   0.850   0.473  0.3977 -0.5938 -0.4049
 7376TIP3    H143619   4.420   0.805   0.519  1.3656  0.4422 -0.8243
 7376TIP3    H243620   4.307   0.782   0.420  0.1850 -1.5014  0.8718
 7377TIP3   OH243621   3.125   0.907  15.213 -0.0056 -0.2608  0.2058
 7377TIP3    H143622   3.090   0.818  15.214  0.5123 -0.4671  0.9931
 7377TIP3    H243623   3.118   0.935  15.121 -2.7386 -0.0722  0.3834
 7378TIP3   OH243624   6.491   3.692   6.094  0.2775 -0.3926 -0.2773
 7378TIP3    H143625   6.555   3.660   6.158  2.1057 -0.5894 -2.1094
 7378TIP3    H243626   6.439   3.756   6.143  1.3716 -0.7772  1.4941
 7379TIP3   OH243627   4.143   2.105  14.202 -0.2745 -0.2247  0.1268
 7379TIP3    H143628   4.194   2.097  14.122 -1.6755  0.3863 -0.8512
 7379TIP3    H243629   4.130   2.015  14.231 -2.9598 -0.8044 -2.4480
 7380TIP3   OH243630   1.776   0.214   4.626  0.2497  0.0653  0.7263
 7380TIP3    H143631   1.765   0.243   4.535  2.4409 -0.4709  0.2331
 7380TIP3    H243632   1.722   0.136   4.632  2.3772 -1.7119 -1.1440
 7381TIP3   OH243633   0.406   6.143  11.892 -0.1596 -0.1100  0.0402
 7381TIP3    H143634   0.326   6.092  11.882 -0.4498  0.2317  0.5654
 7381TIP3    H243635   0.399   6.212  11.826 -1.4504  1.3600  1.6237
 7382TIP3   OH243636   2.411   4.828  15.353  0.2292 -0.6814  0.2913
 7382TIP3    H143637   2.327   4.818  15.308 -0.6705  0.2353  1.7074
 7382TIP3    H243638   2.447   4.739  15.356  0.2897 -0.8053 -2.0756
 7383TIP3   OH243639   0.438   0.088  12.579  0.2389  0.9368 -0.3361
 7383TIP3    H143640   0.473   0.001  12.602  0.9239  1.2131 -0.2928
 7383TIP3    H243641   0.511   0.148  12.596 -1.1299  1.9544  2.6189
 7384TIP3   OH243642   4.116   2.560  14.499 -0.0052  0.0876 -0.2972
 7384TIP3    H143643   4.171   2.633  14.472 -0.7333 -0.5610 -4.1702
 7384TIP3    H243644   4.176   2.486  14.507  0.2411  0.2997 -0.1722
 7385TIP3   OH243645   4.295   6.577  16.375  0.6081  0.0599 -0.3072
 7385TIP3    H143646   4.225   6.532  16.422  1.5224  0.5073  1.5479
 7385TIP3    H243647   4.303   6.529  16.293 -0.0026 -1.6986  0.6177
 7386TIP3   OH243648   3.541   6.094  13.948 -0.2204  0.0645  0.0378
 7386TIP3    H143649   3.614   6.154  13.933 -0.6158  1.1177  1.9921
 7386TIP3    H243650   3.578   6.007  13.933  1.2709  0.6145  0.3119
 7387TIP3   OH243651   2.422   0.638   1.794 -0.6395 -0.1517 -0.2664
 7387TIP3    H143652   2.363   0.635   1.870  0.7293 -2.6763  0.8035
 7387TIP3    H243653   2.506   0.668   1.830 -0.9776  2.9498 -1.6876
 7388TIP3   OH243654   1.937   6.453  16.115  0.2764 -0.2377  0.3359
 7388TIP3    H143655   2.014   6.433  16.169  1.0280 -2.4737 -1.4048
 7388TIP3    H243656   1.952   6.542  16.084  1.9540 -0.4466  0.4475
 7389TIP3   OH243657   0.656   1.935  14.859 -0.5819 -0.0924 -0.2740
 7389TIP3    H143658   0.740   1.945  14.815  0.0871 -2.2263  0.3868
 7389TIP3    H243659   0.635   2.022  14.892  2.9837 -0.0650  2.3644
 7390TIP3   OH243660   1.593   1.303  13.220 -0.4884 -0.0197  0.0409
 7390TIP3    H143661   1.600   1.377  13.159 -1.6218 -0.6484 -0.8995
 7390TIP3    H243662   1.510   1.261  13.197 -0.6623 -0.6266  1.6540
 7391TIP3   OH243663   1.842   4.828  15.488  0.1796  0.0299 -0.5508
 7391TIP3    H143664   1.792   4.845  15.568 -0.9866  1.6874 -1.5707
 7391TIP3    H243665   1.901   4.903  15.480  1.1220 -0.6966 -0.6689
 7392TIP3   OH243666   5.605   6.606  12.788 -0.4986  0.6822 -0.1806
 7392TIP3    H143667   5.636   6.694  12.766  0.1752  0.2300 -1.0903
 7392TIP3    H243668   5.625   6.553  12.711 -0.4570 -0.3835  0.5367
 7393TIP3   OH243669   6.345   2.662   6.098 -0.0572 -0.0996  0.2316
 7393TIP3    H143670   6.263   2.712   6.105  0.2823  0.7211 -1.1764
 7393TIP3    H243671   6.405   2.706   6.158  0.6541  2.1775 -1.9498
 7394TIP3   OH243672   3.875   0.512   2.659  0.0589 -0.6312  0.5661
 7394TIP3    H143673   3.871   0.526   2.564  1.6936  0.5448  0.6114
 7394TIP3    H243674   3.802   0.563   2.694  0.3055  0.1254  0.0108
 7395TIP3   OH243675   6.173   0.442  17.034  0.6792 -0.3668 -0.3131
 7395TIP3    H143676   6.088   0.476  17.007  0.4375 -1.2029 -0.6402
 7395TIP3    H243677   6.228   0.448  16.955  0.1211 -2.3355 -0.9159
 7396TIP3   OH243678   5.339   3.445  15.883  0.2912 -0.5251 -0.0163
 7396TIP3    H143679   5.407   3.512  15.891  0.7498 -1.1677  2.1763
 7396TIP3    H243680   5.257   3.493  15.894  0.4151  0.0561 -1.3715
 7397TIP3   OH243681   0.362   3.163   0.381 -0.5181 -0.0913  0.3774
 7397TIP3    H143682   0.332   3.077   0.411 -0.9152  0.4236  1.5133
 7397TIP3    H243683   0.457   3.161   0.394 -0.7141  0.2742  2.2078
 7398TIP3   OH243684   6.335   5.707  14.199  0.7037 -0.2674 -0.4630
 7398TIP3    H143685   6.410   5.747  14.245 -1.4412  0.4782  2.7029
 7398TIP3    H243686   6.314   5.629  14.249 -1.8088  0.6053 -0.0034
 7399TIP3   OH243687   1.724   0.492   0.977  0.1139  0.1958 -0.1352
 7399TIP3    H143688   1.685   0.578   0.991  0.0058  0.2065 -0.4900
 7399TIP3    H243689   1.818   0.509   0.972  0.0491  0.3758 -0.8078
 7400TIP3   OH243690   2.083   6.314   1.442 -0.2923  0.6770 -0.2287
 7400TIP3    H143691   2.088   6.238   1.384  0.9196 -1.1544  2.0767
 7400TIP3    H243692   1.994   6.312   1.476 -0.3033  0.3480 -0.2737
 7401TIP3   OH243693   6.276   4.291  13.914 -0.1970 -0.1356 -0.3170
 7401TIP3    H143694   6.216   4.256  13.848  0.1810  1.2719 -1.4647
 7401TIP3    H243695   6.260   4.385  13.914 -0.7436 -0.1649  2.2132
 7402TIP3   OH243696   6.705   2.906   4.456  0.0075 -0.2271  0.3928
 7402TIP3    H143697   6.612   2.890   4.441 -0.6284  0.3434  3.1973
 7402TIP3    H243698   6.732   2.834   4.514  0.6030  1.0338  1.7485
 7403TIP3   OH243699   2.966   6.314   1.787  0.9967  0.4404 -0.0808
 7403TIP3    H143700   2.875   6.320   1.757  1.8852  1.8209 -2.9151
 7403TIP3    H243701   2.986   6.401   1.820  1.3751  0.2086  0.3105
 7404TIP3   OH243702   2.018   5.065  13.939 -0.6340  0.0239 -0.0270
 7404TIP3    H143703   1.924   5.084  13.942 -0.6908 -0.3130  0.4785
 7404TIP3    H243704   2.026   4.994  13.875 -0.3997  1.7910 -2.0676
 7405TIP3   OH243705   1.940   3.676   0.781  0.1900  0.1412 -0.3144
 7405TIP3    H143706   1.928   3.676   0.876  1.4688 -0.1406 -0.1379
 7405TIP3    H243707   1.961   3.767   0.760  0.7540  0.0405 -0.2025
 7406TIP3   OH243708   6.401   1.463  12.906 -0.6778  0.0673 -0.6358
 7406TIP3    H143709   6.342   1.419  12.844  0.2236 -1.4075 -0.4997
 7406TIP3    H243710   6.385   1.419  12.989 -0.3483  0.5908 -0.2934
 7407TIP3   OH243711   5.050   4.209  14.096  0.7385  0.3019  0.0353
 7407TIP3    H143712   5.039   4.268  14.171  1.8921 -0.6703  1.0128
 7407TIP3    H243713   5.132   4.163  14.114  1.7433  0.9606 -2.5002
 7408TIP3   OH243714   0.793   3.560   0.316  0.5222 -0.9281 -0.2708
 7408TIP3    H143715   0.885   3.586   0.312  0.6135 -1.3040 -0.6003
 7408TIP3    H243716   0.775   3.517   0.233  0.6342 -2.7734  0.5950
 7409TIP3   OH243717   0.036   1.799  15.512  0.2592  0.0693  0.3236
 7409TIP3    H143718   0.113   1.760  15.472 -1.2947 -1.4858 -1.3257
 7409TIP3    H243719   0.015   1.874  15.456 -0.8293 -1.0072 -0.7843
 7410TIP3   OH243720   3.531   3.018  14.611  0.2381 -0.2139 -0.1868
 7410TIP3    H143721   3.624   3.041  14.615 -0.1635  1.4646  0.4144
 7410TIP3    H243722   3.521   2.951  14.679  1.4030 -2.1415 -1.8030
 7411TIP3   OH243723   4.969   5.635  11.739  0.0682  0.2223  0.0124
 7411TIP3    H143724   5.000   5.556  11.696 -0.1339  0.7952 -1.2348
 7411TIP3    H243725   4.873   5.629  11.733  0.0654  0.8251 -0.5975
 7412TIP3   OH243726   0.099   4.252  12.529 -0.2643  0.1357  0.3265
 7412TIP3    H143727   0.094   4.245  12.434 -1.3679 -3.0045  0.5031
 7412TIP3    H243728   0.014   4.290  12.555  0.0718  1.0745  0.0909
 7413TIP3   OH243729   4.370   3.423   0.430 -0.2550  0.3813 -0.3593
 7413TIP3    H143730   4.364   3.470   0.347  1.3732  2.4046  0.5876
 7413TIP3    H243731   4.461   3.432   0.456 -0.2136 -2.1211  0.6180
 7414TIP3   OH243732   5.587   2.464  16.244  0.1085 -0.1123  0.2518
 7414TIP3    H143733   5.572   2.536  16.183  0.0413 -0.6307 -0.3560
 7414TIP3    H243734   5.579   2.385  16.191  2.8658 -0.5185  0.2921
 7415TIP3   OH243735   4.164   1.449  11.852 -0.2777  0.1121 -0.3325
 7415TIP3    H143736   4.198   1.414  11.769 -2.5006  0.5034 -1.5007
 7415TIP3    H243737   4.186   1.382  11.917  0.9081 -0.5320 -1.3623
 7416TIP3   OH243738   1.574   0.555   3.743  0.0724 -0.3909  0.1731
 7416TIP3    H143739   1.642   0.575   3.807 -1.3836  0.4674  1.5145
 7416TIP3    H243740   1.542   0.469   3.768  1.1204 -1.1198 -0.9048
 7417TIP3   OH243741   3.108   0.276   3.462  0.1196 -0.3778  0.2443
 7417TIP3    H143742   3.113   0.282   3.366  1.1152 -0.6830  0.2651
 7417TIP3    H243743   3.078   0.187   3.478  0.2190 -0.4172  0.2152
 7418TIP3   OH243744   6.068   2.193   4.930 -0.0635 -0.2974 -0.0023
 7418TIP3    H143745   6.143   2.155   4.977 -1.4933 -0.7706  2.0034
 7418TIP3    H243746   6.085   2.287   4.929 -0.8279 -0.0205  3.2156
 7419TIP3   OH243747   0.376   1.551  13.412  0.2595 -0.8505  0.3346
 7419TIP3    H143748   0.348   1.642  13.403  0.8960 -0.5261  1.5049
 7419TIP3    H243749   0.312   1.501  13.362 -0.8546  0.1115  0.7660
 7420TIP3   OH243750   6.629   5.665  13.701 -0.2874  0.0549  0.4082
 7420TIP3    H143751   6.544   5.655  13.659  0.3278 -1.0397 -0.6041
 7420TIP3    H243752   6.631   5.596  13.768 -0.1881  0.0807  0.4318
 7421TIP3   OH243753   4.332   2.994   1.681 -0.5649 -0.7796  0.4142
 7421TIP3    H143754   4.298   3.082   1.698  0.7685 -0.2391  0.3879
 7421TIP3    H243755   4.393   3.006   1.609 -1.4125 -1.9838 -0.5496
 7422TIP3   OH243756   3.016   6.169   5.113  0.3655 -0.5863 -0.1031
 7422TIP3    H143757   2.981   6.257   5.131  0.1460 -1.0197  1.8227
 7422TIP3    H243758   3.077   6.153   5.185  0.8772 -1.7794 -0.7760
 7423TIP3   OH243759   5.508   1.978  11.909  0.0968 -0.1436 -0.3812
 7423TIP3    H143760   5.431   2.008  11.957  0.6858 -0.0706  0.5435
 7423TIP3    H243761   5.473   1.927  11.836 -0.8973  2.1339 -1.5676
 7424TIP3   OH243762   4.472   0.472   0.105 -0.2365 -0.1668 -0.2169
 7424TIP3    H143763   4.497   0.381   0.088  0.7315 -0.1156  0.8295
 7424TIP3    H243764   4.476   0.514   0.019  2.1372 -0.4796 -0.3285
 7425TIP3   OH243765   1.366   1.563   1.013 -0.3047 -0.4802  0.1332
 7425TIP3    H143766   1.429   1.623   1.051  0.5667 -0.4028 -1.3498
 7425TIP3    H243767   1.413   1.520   0.941 -1.0283 -2.6178  0.8450
 7426TIP3   OH243768   0.978   6.245   3.890  0.4367 -0.3311 -0.1738
 7426TIP3    H143769   1.057   6.192   3.902  1.1867  0.8360  0.1743
 7426TIP3    H243770   0.966   6.249   3.795  0.4967 -0.9393 -0.2111
 7427TIP3   OH243771   1.170   4.002  12.954 -0.2078 -0.7108 -0.2558
 7427TIP3    H143772   1.249   3.957  12.984  0.4558 -0.2451 -1.2455
 7427TIP3    H243773   1.099   3.965  13.007  0.8437 -0.1929  1.5883
 7428TIP3   OH243774   1.518   3.165   3.240 -0.1168 -0.2883  0.4118
 7428TIP3    H143775   1.541   3.075   3.264 -2.5975 -1.0542  0.1751
 7428TIP3    H243776   1.522   3.166   3.145  0.3033  0.0038  0.4265
 7429TIP3   OH243777   0.783   5.486  13.221  0.0138  0.2476  0.6442
 7429TIP3    H143778   0.689   5.504  13.217 -0.2949 -1.3373  0.0352
 7429TIP3    H243779   0.813   5.490  13.131  0.3343 -0.2020  0.7251
 7430TIP3   OH243780   2.961   6.598   1.870 -0.4261 -0.5929  0.1415
 7430TIP3    H143781   3.026   6.662   1.843  1.1444 -1.9545  0.5550
 7430TIP3    H243782   2.939   6.623   1.960  1.8862 -1.8693  1.1432
 7431TIP3   OH243783   6.029   4.506   0.978  0.4546  0.2412 -0.2334
 7431TIP3    H143784   6.021   4.537   1.069  2.9042 -1.7945  0.7821
 7431TIP3    H243785   6.097   4.562   0.940  2.9586 -1.9087  0.7918
 7432TIP3   OH243786   3.259   2.026  16.720 -0.1253 -0.2600  0.4946
 7432TIP3    H143787   3.166   2.025  16.697  0.2308 -0.5928 -1.0470
 7432TIP3    H243788   3.290   1.938  16.697  1.2923  0.8435 -2.3609
 7433TIP3   OH243789   1.613   1.013  15.922 -0.3514 -0.6036 -0.0531
 7433TIP3    H143790   1.571   0.966  15.851  0.8330 -0.4595 -0.8775
 7433TIP3    H243791   1.565   1.096  15.929 -1.3239 -1.1829  0.2339
 7434TIP3   OH243792   4.416   1.242   1.711  0.7299  0.0541  0.0291
 7434TIP3    H143793   4.385   1.201   1.792 -1.6286  0.4821 -0.5664
 7434TIP3    H243794   4.463   1.173   1.665 -0.4711 -1.0969  0.4542
 7435TIP3   OH243795   2.131   0.501  12.255 -0.6496  0.4891  0.4868
 7435TIP3    H143796   2.205   0.561  12.268 -1.2504  1.2457  0.4680
 7435TIP3    H243797   2.104   0.477  12.344 -0.7290  0.6403  0.5025
 7436TIP3   OH243798   0.780   3.663  15.829 -0.3495  0.1727 -0.1270
 7436TIP3    H143799   0.733   3.667  15.746 -0.4590  1.7355 -0.0142
 7436TIP3    H243800   0.799   3.754  15.851  0.3922 -0.2597  1.1652
 7437TIP3   OH243801   1.300   1.304  12.204  0.3527  0.5297  0.6522
 7437TIP3    H143802   1.344   1.322  12.121 -0.0431 -1.5034 -0.0563
 7437TIP3    H243803   1.207   1.304  12.182  0.2689 -0.5248  0.9614
 7438TIP3   OH243804   1.984   6.542  15.671  0.5538  0.4139  0.2947
 7438TIP3    H143805   1.999   6.450  15.649 -0.0138  0.2388  0.6190
 7438TIP3    H243806   2.025   6.554  15.756  0.9741  0.5717  0.0762
 7439TIP3   OH243807   0.124   6.063  13.036  0.5489 -0.0362 -0.1148
 7439TIP3    H143808   0.198   6.114  13.068  0.6277  0.1245 -0.5405
 7439TIP3    H243809   0.067   6.128  12.993 -0.3973  0.0214  1.1844
 7440TIP3   OH243810   1.638   1.730  11.684 -0.8999  0.0622  0.3548
 7440TIP3    H143811   1.706   1.678  11.726  1.3462  1.8046 -0.8780
 7440TIP3    H243812   1.572   1.744  11.752  1.4228  0.7895  2.5883
 7441TIP3   OH243813   0.373   6.575   0.329 -0.2663 -0.5932  0.2657
 7441TIP3    H143814   0.300   6.632   0.352  0.2238 -0.0526  0.5146
 7441TIP3    H243815   0.451   6.626   0.351  0.3676  0.7887 -4.2294
 7442TIP3   OH243816   6.004   4.720  11.471  0.0290  0.0331 -0.1746
 7442TIP3    H143817   5.958   4.777  11.410 -0.8809  2.0076  2.1724
 7442TIP3    H243818   6.082   4.770  11.496  1.9479 -1.9491 -1.7360
 7443TIP3   OH243819   1.145   5.444   1.592  0.1513 -0.0005  0.0542
 7443TIP3    H143820   1.066   5.449   1.646 -0.3421  0.4118 -0.6895
 7443TIP3    H243821   1.129   5.368   1.535  0.4549 -0.1385  0.1533
 7444TIP3   OH243822   4.451   0.985  13.748 -0.8943 -0.1537  0.0031
 7444TIP3    H143823   4.541   0.998  13.780 -0.1783 -0.6673 -1.6869
 7444TIP3    H243824   4.420   0.907  13.796  0.5229 -1.5290 -1.2047
 7445TIP3   OH243825   2.619   4.905   3.702 -0.1035 -0.2370 -0.1887
 7445TIP3    H143826   2.566   4.848   3.647 -1.2192  0.0281  0.5835
 7445TIP3    H243827   2.629   4.857   3.784  0.4546 -0.0730 -0.1564
 7446TIP3   OH243828   0.284   5.253   2.794 -0.8999  0.5816 -0.0722
 7446TIP3    H143829   0.223   5.281   2.725 -0.9609  0.2342 -0.1617
 7446TIP3    H243830   0.266   5.160   2.805  1.6230 -0.2342 -2.1388
 7447TIP3   OH243831   4.467   4.358   2.100  0.0663  0.3738  0.7377
 7447TIP3    H143832   4.481   4.444   2.138 -1.2218  1.3311 -0.8018
 7447TIP3    H243833   4.376   4.337   2.120 -1.1708  1.6010 -2.8558
 7448TIP3   OH243834   5.373   0.464  12.363 -0.0768 -0.5938 -0.6730
 7448TIP3    H143835   5.305   0.497  12.305 -0.9585 -1.1079  0.0398
 7448TIP3    H243836   5.431   0.414  12.306 -0.8196 -0.9278 -1.1455
 7449TIP3   OH243837   4.776   6.530  13.902  0.6410  0.1200  0.2077
 7449TIP3    H143838   4.774   6.463  13.971 -1.1880 -0.5798 -0.4783
 7449TIP3    H243839   4.703   6.508  13.844  1.4828  1.3056 -1.3966
 7450TIP3   OH243840   2.702   4.599  14.466  0.0227  0.3151 -0.3020
 7450TIP3    H143841   2.696   4.504  14.451  0.0354  0.1106  0.8940
 7450TIP3    H243842   2.640   4.616  14.537  0.9761  0.9866  0.3917
 7451TIP3   OH243843   1.999   1.493   3.594  0.3057 -0.0403  0.2140
 7451TIP3    H143844   2.069   1.496   3.658  1.0080 -0.3817 -0.5268
 7451TIP3    H243845   2.043   1.497   3.509 -0.6208  0.8381 -0.2593
 7452TIP3   OH243846   3.709   2.018   5.621 -0.4557  0.1420  0.3841
 7452TIP3    H143847   3.648   2.091   5.633 -1.4069 -0.5663  0.0183
 7452TIP3    H243848   3.671   1.947   5.673 -0.5849 -0.6609 -0.7519
 7453TIP3   OH243849   4.819   1.708   4.941 -0.1755  0.0120  0.4237
 7453TIP3    H143850   4.859   1.656   4.871 -1.3877  0.5470 -0.7131
 7453TIP3    H243851   4.769   1.775   4.895 -3.0340 -1.0927  1.7219
 7454TIP3   OH243852   1.268   1.121   1.397 -0.5662 -1.0315  0.1821
 7454TIP3    H143853   1.216   1.147   1.321  1.3469 -1.5638 -1.3801
 7454TIP3    H243854   1.222   1.046   1.433 -1.2741 -1.0482 -0.7244
 7455TIP3   OH243855   6.167   2.411  14.664  0.3322  0.3928 -0.1698
 7455TIP3    H143856   6.204   2.364  14.739  0.5153  0.0868 -0.4507
 7455TIP3    H243857   6.200   2.500  14.673  1.2334  0.1017 -0.4658
 7456TIP3   OH243858   4.008   1.443   0.610 -0.0708  0.1671 -1.0178
 7456TIP3    H143859   4.074   1.374   0.611 -0.2044  0.0393 -0.3199
 7456TIP3    H243860   4.059   1.524   0.602  0.1496  0.0394 -0.9262
 7457TIP3   OH243861   2.801   0.835  16.850 -0.0069 -0.2119  0.2893
 7457TIP3    H143862   2.743   0.826  16.774 -1.3556 -0.2988  1.3048
 7457TIP3    H243863   2.742   0.846  16.924  1.2414  3.7269  0.9375
 7458TIP3   OH243864   4.416   3.959  16.080 -0.1297  0.3528 -0.4523
 7458TIP3    H143865   4.477   3.895  16.117  0.1016  0.3407 -0.8475
 7458TIP3    H243866   4.395   3.925  15.993 -0.5997  0.4254 -0.3720
 7459TIP3   OH243867   1.848   6.698  15.463  0.0009  0.2051  0.2179
 7459TIP3    H143868   1.860   6.661  15.551 -3.9418  0.8678  1.2275
 7459TIP3    H243869   1.911   6.769  15.459  0.0662  0.4010  2.7040
 7460TIP3   OH243870   0.867   3.215  10.831  0.0091  0.0582 -0.3764
 7460TIP3    H143871   0.894   3.149  10.767 -0.4273 -0.0306 -0.4720
 7460TIP3    H243872   0.804   3.270  10.784  0.4123  0.5863 -0.3164
 7461TIP3   OH243873   6.502   0.237   6.786 -0.3910  0.0838  0.6493
 7461TIP3    H143874   6.410   0.262   6.796  0.0105  0.8669  2.8695
 7461TIP3    H243875   6.512   0.161   6.843  0.4194  0.1975  0.6643
 7462TIP3   OH243876   4.650   4.912   5.600  0.1417 -0.4161 -0.1168
 7462TIP3    H143877   4.730   4.909   5.653 -0.9764  0.4091  1.7352
 7462TIP3    H243878   4.579   4.913   5.665 -1.4060 -1.7419 -1.7064
 7463TIP3   OH243879   5.546   6.800   0.094 -0.2112 -0.1761  0.0798
 7463TIP3    H143880   5.461   6.772   0.129  0.3436  0.1089  1.7652
 7463TIP3    H243881   5.566   6.881   0.141  0.7009  0.0977 -0.7580
 7464TIP3   OH243882   3.557   2.990  11.074  0.2137 -0.2266  0.7914
 7464TIP3    H143883   3.520   2.979  10.987 -0.7113  0.4883  1.0781
 7464TIP3    H243884   3.481   2.991  11.133  0.8128 -0.5827  1.5954
 7465TIP3   OH243885   2.244   5.889   2.930 -0.3978 -0.7753  0.5462
 7465TIP3    H143886   2.247   5.833   3.007  0.4692 -0.3475  0.8292
 7465TIP3    H243887   2.152   5.889   2.904 -0.7340 -0.7250  1.7195
 7466TIP3   OH243888   1.457   3.748   2.219  0.0122 -0.2939  0.0131
 7466TIP3    H143889   1.499   3.825   2.181 -0.2589 -0.4467 -0.6164
 7466TIP3    H243890   1.434   3.775   2.308  1.1145 -0.0964  0.2511
 7467TIP3   OH243891   3.384   3.156   3.015  0.2687 -0.3934  0.5388
 7467TIP3    H143892   3.330   3.158   2.936 -1.4364 -0.0949  1.6501
 7467TIP3    H243893   3.397   3.062   3.032  3.1443 -0.5067 -1.6330
 7468TIP3   OH243894   6.508   5.702  13.225 -0.0800 -0.2503  0.0307
 7468TIP3    H143895   6.581   5.669  13.173 -0.2243 -1.0636  0.3251
 7468TIP3    H243896   6.538   5.787  13.257  0.0259  0.2442 -1.3146
 7469TIP3   OH243897   2.024   5.354   0.963 -0.4165 -0.1451 -0.4874
 7469TIP3    H143898   1.956   5.297   0.999 -1.9434  2.5565  1.2774
 7469TIP3    H243899   2.068   5.390   1.040  0.8019  0.7058 -1.5405
 7470TIP3   OH243900   2.598   2.917  11.954 -0.6175  0.3145 -0.1460
 7470TIP3    H143901   2.631   2.827  11.960  1.2520  0.9920  0.4282
 7470TIP3    H243902   2.608   2.940  11.862 -1.4005 -0.1363 -0.3596
 7471TIP3   OH243903   0.850   5.554  16.176 -0.2926 -0.5660 -0.2098
 7471TIP3    H143904   0.819   5.625  16.231  0.6066 -0.0513 -0.3600
 7471TIP3    H243905   0.789   5.553  16.102  0.0105  0.4083 -0.4833
 7472TIP3   OH243906   0.717   2.194   4.239  0.1830  0.5835 -0.1472
 7472TIP3    H143907   0.745   2.283   4.218  0.0950  0.7965  0.6384
 7472TIP3    H243908   0.766   2.139   4.177 -0.9413  1.2705 -1.7188
 7473TIP3   OH243909   6.737   2.317   4.346 -0.4214  0.5749 -0.3078
 7473TIP3    H143910   6.758   2.283   4.259 -0.8113 -0.5560  0.0241
 7473TIP3    H243911   6.820   2.348   4.380 -0.1382  0.3867 -0.8123
 7474TIP3   OH243912   1.458   4.063  12.489 -0.5264  0.2797  0.0739
 7474TIP3    H143913   1.389   4.024  12.543 -1.2916 -0.0993 -1.1476
 7474TIP3    H243914   1.538   4.021  12.519 -0.9626 -0.0787  0.7645
 7475TIP3   OH243915   4.279   5.321  13.673 -0.0561 -0.2341  0.4848
 7475TIP3    H143916   4.238   5.376  13.740 -2.0343  0.2745 -1.0549
 7475TIP3    H243917   4.212   5.256  13.650  1.2684 -1.6063  0.3120
 7476TIP3   OH243918   4.339   1.869   0.063  0.2513  0.1476 -0.6733
 7476TIP3    H143919   4.288   1.789   0.077 -1.1305  0.9860 -0.6866
 7476TIP3    H243920   4.378   1.857  -0.024  1.2162 -1.0922 -0.0891
 7477TIP3   OH243921   5.691   5.838   0.500  0.0201  0.2121  0.2065
 7477TIP3    H143922   5.778   5.799   0.510  0.3970  0.8999 -0.2902
 7477TIP3    H243923   5.631   5.763   0.500  0.8454 -0.5527 -2.3164
 7478TIP3   OH243924   5.705   2.949   3.390  0.3704 -0.2023 -0.1640
 7478TIP3    H143925   5.744   2.962   3.304  2.0815  2.0483  0.8213
 7478TIP3    H243926   5.737   2.864   3.419 -0.0104 -0.8635 -1.6170
 7479TIP3   OH243927   4.881   1.920   0.012  0.4996 -0.5212  0.8193
 7479TIP3    H143928   4.968   1.895   0.043  1.2922 -0.3301 -1.0996
 7479TIP3    H243929   4.880   2.015   0.014  0.6171 -0.5009  0.1507
 7480TIP3   OH243930   1.436   4.537  11.855 -0.0782 -0.0958 -0.2465
 7480TIP3    H143931   1.373   4.510  11.789 -0.5772 -0.0917  0.2222
 7480TIP3    H243932   1.519   4.502  11.824 -0.3279 -0.2201 -0.7991
 7481TIP3   OH243933   2.045   3.909  14.103  0.5732 -0.0586 -0.0257
 7481TIP3    H143934   2.049   3.935  14.196  0.9533 -1.1166  0.2690
 7481TIP3    H243935   1.956   3.929  14.077 -0.3220 -2.0228  1.2874
 7482TIP3   OH243936   3.699   3.362   5.608 -0.1242  0.0952  0.3820
 7482TIP3    H143937   3.617   3.313   5.611 -0.4813  0.4866 -1.6372
 7482TIP3    H243938   3.714   3.379   5.515  1.8846  0.6666  0.7534
 7483TIP3   OH243939   1.395   3.979   4.413  0.0775  0.7074  0.6818
 7483TIP3    H143940   1.458   4.045   4.387 -0.2898  0.4405 -1.0092
 7483TIP3    H243941   1.343   4.020   4.482  1.1618  1.4325  1.0719
 7484TIP3   OH243942   5.626   1.318   3.794 -0.1868 -0.1562 -0.1633
 7484TIP3    H143943   5.692   1.253   3.772  1.4945  1.2264  0.5173
 7484TIP3    H243944   5.616   1.311   3.889  1.5030  1.7963  0.2426
 7485TIP3   OH243945   5.624   5.860  13.759 -0.2090 -0.1041 -0.0186
 7485TIP3    H143946   5.572   5.938  13.779 -1.4067 -0.7475 -0.5062
 7485TIP3    H243947   5.715   5.891  13.760 -0.4185  0.6800  2.6203
 7486TIP3   OH243948   2.552   6.595   2.473 -0.4236 -0.2407 -0.3922
 7486TIP3    H143949   2.616   6.540   2.518 -0.4371 -0.3126 -0.4602
 7486TIP3    H243950   2.574   6.684   2.498 -0.3509 -0.2715 -0.3473
 7487TIP3   OH243951   1.927   1.954   0.739 -0.2374 -0.5728 -0.1580
 7487TIP3    H143952   1.984   1.880   0.718  2.2318  1.0818  0.2643
 7487TIP3    H243953   1.965   1.991   0.819 -0.3842  2.0844 -1.2351
 7488TIP3   OH243954   5.383   5.805   4.252 -0.3665  0.1916 -0.0402
 7488TIP3    H143955   5.393   5.718   4.215 -0.4490 -1.3214  3.2279
 7488TIP3    H243956   5.452   5.857   4.209  2.1548 -2.4272  0.5394
 7489TIP3   OH243957   5.565   4.689   5.089 -0.1559 -0.1603  0.2560
 7489TIP3    H143958   5.523   4.672   5.005 -0.2966 -1.4842  0.5657
 7489TIP3    H243959   5.555   4.607   5.138  1.1865  0.0970  1.0243
 7490TIP3   OH243960   2.943   0.262   5.051  0.2635  0.0859  0.1161
 7490TIP3    H143961   2.901   0.331   4.999 -0.2032 -1.2763 -1.4157
 7490TIP3    H243962   3.001   0.218   4.989 -1.1055 -2.2990  0.3881
 7491TIP3   OH243963   2.568   3.677   4.915 -0.2011 -0.1486  0.3192
 7491TIP3    H143964   2.625   3.601   4.905 -0.5178 -0.2272 -1.0646
 7491TIP3    H243965   2.626   3.752   4.903 -0.0678 -0.1869  0.7107
 7492TIP3   OH243966   2.572   3.692  13.235 -0.1698 -0.1974  0.3696
 7492TIP3    H143967   2.656   3.663  13.271 -1.1462 -1.1051  1.9851
 7492TIP3    H243968   2.521   3.612  13.226 -1.1646  0.4529  0.1539
 7493TIP3   OH243969   1.722   1.017   3.757  0.1429  0.5901 -0.3218
 7493TIP3    H143970   1.672   0.937   3.742  0.2716 -0.0540  2.1377
 7493TIP3    H243971   1.779   1.024   3.681 -1.3161 -0.4966 -1.5882
 7494TIP3   OH243972   2.999   0.781   4.732 -0.2031  0.8275  0.4802
 7494TIP3    H143973   2.949   0.862   4.737 -0.1955  0.8618  0.0195
 7494TIP3    H243974   3.075   0.796   4.789 -0.6155  0.8415  1.0323
 7495TIP3   OH243975   4.341   6.228   1.761  0.1199 -0.0984 -0.4294
 7495TIP3    H143976   4.339   6.169   1.836 -0.7237  1.3859  0.7547
 7495TIP3    H243977   4.434   6.236   1.740  0.3453 -0.7496  0.2722
 7496TIP3   OH243978   0.765   2.094   3.032 -0.5275  0.4132  0.0598
 7496TIP3    H143979   0.787   2.063   2.944  0.0841 -0.6869  0.5843
 7496TIP3    H243980   0.847   2.133   3.064 -0.0697 -1.1956  0.9638
 7497TIP3   OH243981   5.735   3.782   3.869  0.2005  0.3100 -0.0703
 7497TIP3    H143982   5.730   3.851   3.802  1.9931  1.2175  0.6592
 7497TIP3    H243983   5.748   3.701   3.820 -2.4630  0.3548 -0.9795
 7498TIP3   OH243984   3.167   0.434  11.233  0.0504  0.6645  0.2848
 7498TIP3    H143985   3.198   0.452  11.144  0.4395  2.0176  0.6753
 7498TIP3    H243986   3.182   0.340  11.245  3.1644  1.0380  0.1125
 7499TIP3   OH243987   5.533   3.067  14.857 -0.0376  0.4055  0.3553
 7499TIP3    H143988   5.577   3.055  14.941  2.3583  0.3992 -0.8157
 7499TIP3    H243989   5.498   2.980  14.835  0.8869 -0.0193  0.5389
 7500TIP3   OH243990   0.374   5.498  13.284  0.4492 -0.4204  0.3289
 7500TIP3    H143991   0.369   5.412  13.242 -0.4121 -0.3061  0.1785
 7500TIP3    H243992   0.347   5.481  13.375 -2.1944  0.0700 -0.2884
 7501TIP3   OH243993   6.668   4.033   6.791  0.2411  0.8121  0.1666
 7501TIP3    H143994   6.668   3.948   6.746  0.4497  0.4496  0.8359
 7501TIP3    H243995   6.703   4.095   6.727 -2.3895  0.9259 -1.3058
 7502TIP3   OH243996   1.329   3.591   4.194 -0.7456 -0.3938  0.0207
 7502TIP3    H143997   1.390   3.520   4.173  1.4349  1.2909  0.3502
 7502TIP3    H243998   1.340   3.605   4.288  0.3096  1.5766 -0.3378
 7503TIP3   OH243999   4.921   0.462  11.255  0.1201  0.3101  0.4871
 7503TIP3    H144000   4.898   0.448  11.347  1.2226  1.6777  1.0073
 7503TIP3    H244001   5.013   0.437  11.249  0.3239  1.1267 -0.0061
 7504TIP3   OH244002   3.961   6.386  12.687 -0.7161  0.4748  0.0712
 7504TIP3    H144003   3.929   6.467  12.647 -1.2511 -0.2257 -0.9371
 7504TIP3    H244004   4.027   6.353  12.626 -3.4234 -2.0359 -1.8047
 7505TIP3   OH244005   4.566   1.951  16.748 -0.2773  0.1783  0.2025
 7505TIP3    H144006   4.553   1.964  16.654 -0.2273 -1.0403  0.0200
 7505TIP3    H244007   4.478   1.940  16.783 -0.2694  0.2398  0.2413
 7506TIP3   OH244008   3.028   3.553   2.966  0.1956 -0.3169  0.4285
 7506TIP3    H144009   2.984   3.623   3.014  0.9915  1.2854 -1.0540
 7506TIP3    H244010   3.098   3.524   3.025 -0.4792 -0.2651  1.2777
 7507TIP3   OH244011   0.872   3.373   4.576  0.4087 -0.3018  0.7563
 7507TIP3    H144012   0.842   3.464   4.588  0.4029 -0.2417  0.3303
 7507TIP3    H244013   0.927   3.355   4.652 -1.9475 -0.9476  2.4353
 7508TIP3   OH244014   1.032   5.158  16.257  0.0020 -0.7839 -0.7033
 7508TIP3    H144015   0.995   5.083  16.210  1.3178 -1.2024 -1.1299
 7508TIP3    H244016   1.074   5.119  16.334  1.4895 -0.6375 -1.3984
 7509TIP3   OH244017   3.870   4.859  10.776 -0.3456 -0.2724 -0.2413
 7509TIP3    H144018   3.784   4.868  10.815 -0.7594 -1.3081 -0.8921
 7509TIP3    H244019   3.886   4.765  10.771 -0.3963 -0.2215 -2.6866
 7510TIP3   OH244020   0.478   5.101   0.975  0.2667 -0.2210 -0.1637
 7510TIP3    H144021   0.505   5.189   1.000  0.7026 -0.4440  0.1621
 7510TIP3    H244022   0.559   5.050   0.976  0.1058 -0.5056 -0.8731
 7511TIP3   OH244023   6.202   3.068   3.723  0.1771 -0.1381  0.4620
 7511TIP3    H144024   6.206   3.105   3.635 -1.2320 -2.3261 -0.6239
 7511TIP3    H244025   6.281   3.014   3.729  0.3178  0.0797  0.5874
 7512TIP3   OH244026   6.784   0.500  15.166 -0.1103 -0.1498  0.4031
 7512TIP3    H144027   6.792   0.587  15.129 -0.4007 -1.2213 -2.4092
 7512TIP3    H244028   6.864   0.488  15.218  0.9030  1.0625 -0.8125
 7513TIP3   OH244029   5.303   6.663   1.614  0.3807 -0.1394  0.1398
 7513TIP3    H144030   5.297   6.568   1.607  2.2312 -0.4802  2.1212
 7513TIP3    H244031   5.374   6.679   1.676 -0.0687  2.5511  0.1234
 7514TIP3   OH244032   0.189   6.134  16.595 -0.2229 -0.6684  0.7946
 7514TIP3    H144033   0.268   6.147  16.542 -1.9785 -1.7255 -2.3648
 7514TIP3    H244034   0.212   6.064  16.656  1.3962 -0.6431  0.2633
 7515TIP3   OH244035   4.629   5.302   4.102  0.0134  0.4260 -0.6753
 7515TIP3    H144036   4.575   5.250   4.162 -0.4858  0.1818 -1.3257
 7515TIP3    H244037   4.709   5.319   4.151  0.3571 -1.2795 -0.5846
 7516TIP3   OH244038   3.453   5.465   1.013 -0.0653  0.7798  0.3570
 7516TIP3    H144039   3.439   5.468   1.108  0.3329 -1.2651  0.5180
 7516TIP3    H244040   3.533   5.414   1.002 -1.7500 -1.7388 -1.1428
 7517TIP3   OH244041   1.336   6.753   6.102  0.5001 -0.1170  0.1073
 7517TIP3    H144042   1.359   6.775   6.011  0.8304  0.9255  0.4345
 7517TIP3    H244043   1.409   6.788   6.154 -0.2111  0.2516  0.8733
 7518TIP3   OH244044   1.618   2.656  16.028 -0.5476 -0.4647 -0.1737
 7518TIP3    H144045   1.578   2.673  16.114 -1.9055  0.5885 -0.9790
 7518TIP3    H244046   1.544   2.642  15.970  0.2817  0.5956 -1.5352
 7519TIP3   OH244047   4.025   2.278  14.382 -0.6636 -0.1094 -0.4564
 7519TIP3    H144048   4.093   2.342  14.403 -0.7080 -0.4658  0.8617
 7519TIP3    H244049   4.060   2.229  14.308  0.8301 -0.7439  0.6282
 7520TIP3   OH244050   0.000   0.267   5.878 -0.2054  0.5360 -0.3928
 7520TIP3    H144051   0.050   0.317   5.943  1.0904  0.8993 -1.6098
 7520TIP3    H244052  -0.017   0.330   5.807 -0.5629 -0.1455 -0.9283
 7521TIP3   OH244053   3.596   4.021  11.233  0.4778  0.4314 -0.0165
 7521TIP3    H144054   3.575   4.103  11.279 -1.5173 -0.7928  1.4025
 7521TIP3    H244055   3.576   4.040  11.141 -1.4102  1.1203  0.4965
 7522TIP3   OH244056   4.632   5.603   1.032 -0.1980  0.9918 -0.4031
 7522TIP3    H144057   4.625   5.522   0.982 -1.2658  1.1560 -0.5348
 7522TIP3    H244058   4.574   5.665   0.987 -0.2664  1.4911  0.3511
 7523TIP3   OH244059   4.795   6.475   1.886 -0.1039  0.2781  0.4690
 7523TIP3    H144060   4.805   6.537   1.959  0.9679  2.2428 -1.2252
 7523TIP3    H244061   4.885   6.450   1.864 -0.4526 -0.8129  0.2315
 7524TIP3   OH244062   1.308   4.022   5.844 -0.2028  0.3353  0.7660
 7524TIP3    H144063   1.395   4.061   5.849  0.3931 -1.0463  1.7731
 7524TIP3    H244064   1.300   3.971   5.925 -1.9699  0.4734  0.7135
 7525TIP3   OH244065   6.388   1.697   0.638  0.1877  0.5374  0.0333
 7525TIP3    H144066   6.389   1.643   0.716 -0.3086 -1.4944 -1.3030
 7525TIP3    H244067   6.302   1.739   0.638 -0.4570 -0.7381 -0.2206
 7526TIP3   OH244068   3.514   4.288  14.822  0.4168 -0.5290  0.0135
 7526TIP3    H144069   3.549   4.338  14.749  1.7377  0.1302  1.0360
 7526TIP3    H244070   3.566   4.317  14.898 -1.6067 -0.3780  1.4222
 7527TIP3   OH244071   5.678   1.515   5.498 -0.9171  0.3854 -0.0880
 7527TIP3    H144072   5.595   1.468   5.513  0.3488 -1.8541  0.3005
 7527TIP3    H244073   5.742   1.468   5.552  0.5628  2.2877 -0.1084
 7528TIP3   OH244074   5.606   3.103   2.137 -0.2723 -0.0022 -0.1597
 7528TIP3    H144075   5.635   3.194   2.141 -0.8985  0.1841  0.3299
 7528TIP3    H244076   5.559   3.097   2.053  0.2625 -0.0284 -0.4595
 7529TIP3   OH244077   0.709   5.616   1.596  0.2691  0.3064  0.4388
 7529TIP3    H144078   0.621   5.601   1.563  1.3439 -1.7972 -1.7345
 7529TIP3    H244079   0.698   5.683   1.664 -2.8205  0.8500 -0.4559
 7530TIP3   OH244080   4.375   4.302   2.832 -0.1046 -0.0127 -0.6088
 7530TIP3    H144081   4.338   4.365   2.770  1.7804  0.7447 -1.0454
 7530TIP3    H244082   4.463   4.336   2.851  0.4203 -1.7415  0.2853
 7531TIP3   OH244083   6.655   0.944  13.592 -0.4063 -0.0431  0.0991
 7531TIP3    H144084   6.663   1.031  13.553 -1.0817 -0.1320 -0.2547
 7531TIP3    H244085   6.743   0.907  13.586 -0.2461  0.3881 -0.2976
 7532TIP3   OH244086   6.285   2.559   2.928 -0.0517  0.0368 -0.2714
 7532TIP3    H144087   6.201   2.561   2.974  0.9324 -0.9347  1.6750
 7532TIP3    H244088   6.331   2.637   2.959  0.2096 -0.0587 -0.4193
 7533TIP3   OH244089   3.791   3.049  13.818  0.7568  0.2546 -0.3064
 7533TIP3    H144090   3.787   3.087  13.906  1.6024 -0.4237  0.0332
 7533TIP3    H244091   3.845   3.111  13.768  0.4462  0.5344 -0.2997
 7534TIP3   OH244092   1.080   2.652  16.830 -0.4472 -0.1709 -0.3432
 7534TIP3    H144093   1.167   2.651  16.790 -0.5804 -0.3610 -0.6315
 7534TIP3    H244094   1.087   2.716  16.901  0.8792 -2.4966  1.8037
 7535TIP3   OH244095   5.801   2.227   5.795  0.2646 -0.7252 -0.3836
 7535TIP3    H144096   5.809   2.207   5.889 -0.2054 -1.0159 -0.4021
 7535TIP3    H244097   5.890   2.252   5.768 -0.2392  3.3330  1.0086
 7536TIP3   OH244098   1.389   5.266  12.446  0.0825  0.2334  0.1037
 7536TIP3    H144099   1.458   5.209  12.477  0.7029  0.5921 -0.5940
 7536TIP3    H244100   1.315   5.207  12.427 -1.0436  0.1304  3.9472
 7537TIP3   OH244101   3.216   2.847   5.291  0.1826 -0.3314 -0.1313
 7537TIP3    H144102   3.221   2.751   5.289  1.4517 -0.2758 -0.2934
 7537TIP3    H244103   3.273   2.876   5.220 -0.0936  0.5494 -0.0044
 7538TIP3   OH244104   1.321   1.656   5.498 -0.1426 -0.0088 -0.1944
 7538TIP3    H144105   1.369   1.737   5.516  0.3239 -0.0110 -1.3389
 7538TIP3    H244106   1.232   1.684   5.480 -0.1747  0.1653  0.2267
 7539TIP3   OH244107   6.066   3.930   1.083 -0.1493  0.5841  0.0645
 7539TIP3    H144108   6.104   4.008   1.123 -1.7979  1.2609  0.3951
 7539TIP3    H244109   6.119   3.858   1.117 -0.7091  1.2454  2.5764
 7540TIP3   OH244110   6.349   0.493   0.636  0.4380 -0.4097 -0.6205
 7540TIP3    H144111   6.398   0.456   0.563  0.1369 -3.9161  0.7517
 7540TIP3    H244112   6.263   0.513   0.599  0.3484 -1.9684 -1.3515
 7541TIP3   OH244113   1.708   3.120   3.828 -0.4449  0.5918 -0.2330
 7541TIP3    H144114   1.682   3.195   3.881 -0.1779  0.8618 -0.4778
 7541TIP3    H244115   1.753   3.159   3.753  1.4752  0.1127  0.6145
 7542TIP3   OH244116   1.521   0.513   4.923 -0.0190  0.0271  0.0056
 7542TIP3    H144117   1.520   0.536   5.016 -0.2315 -1.0702  0.2840
 7542TIP3    H244118   1.613   0.517   4.898 -0.0891  1.7108 -0.1119
 7543TIP3   OH244119   6.314   1.528   3.998 -0.0165  0.5650 -0.1036
 7543TIP3    H144120   6.374   1.453   4.007  0.3696  0.3902 -3.1144
 7543TIP3    H244121   6.366   1.604   4.023  0.0389  0.0272  1.5563
 7544TIP3   OH244122   0.632   4.563   1.113 -0.6194 -0.1041 -0.6662
 7544TIP3    H144123   0.560   4.549   1.051 -2.2700  0.8504  0.9388
 7544TIP3    H244124   0.627   4.489   1.173  0.3359 -0.5043 -1.0652
 7545TIP3   OH244125   0.986   0.030   2.213 -0.0911 -0.0245 -0.0445
 7545TIP3    H144126   0.934   0.075   2.146  0.7754  2.0130  0.5715
 7545TIP3    H244127   1.077   0.044   2.186  0.2411 -0.0326  1.0278
 7546TIP3   OH244128   2.515   5.772  13.905 -0.6017 -0.5374  0.4277
 7546TIP3    H144129   2.528   5.679  13.887 -0.8970 -0.4060 -0.5228
 7546TIP3    H244130   2.423   5.779  13.928 -0.3962 -0.5899  1.3086
 7547TIP3   OH244131   1.139   5.438  14.818  0.2990 -0.0710  0.6402
 7547TIP3    H144132   1.191   5.440  14.899  1.7350  0.0622 -0.2575
 7547TIP3    H244133   1.203   5.424  14.748 -0.8612  0.2493 -0.5301
 7548TIP3   OH244134   6.474   2.795   4.323 -0.1350 -0.0784 -0.0674
 7548TIP3    H144135   6.427   2.729   4.374 -1.0743  1.1797  0.7452
 7548TIP3    H244136   6.405   2.841   4.275 -0.1096  3.0409  2.5607
 7549TIP3   OH244137   0.223   3.958   5.800  0.0230  0.9140  0.2867
 7549TIP3    H144138   0.156   3.913   5.851 -0.4318 -0.3784 -1.3561
 7549TIP3    H244139   0.178   4.033   5.761 -0.8594 -0.5281 -1.6659
 7550TIP3   OH244140   5.979   2.470  12.985 -0.1699  0.1850 -0.0474
 7550TIP3    H144141   5.928   2.549  12.968 -0.5790 -0.4769 -2.1629
 7550TIP3    H244142   6.070   2.499  12.980 -0.3175  0.5497 -0.7162
 7551TIP3   OH244143   6.758   4.999  16.974  0.8549 -0.1723 -0.4811
 7551TIP3    H144144   6.709   5.010  17.055 -0.2309  0.6367 -1.2060
 7551TIP3    H244145   6.804   5.082  16.962  0.1516  0.1374 -1.2065
 7552TIP3   OH244146   5.468   2.973   2.945 -0.1860  0.5166  0.6407
 7552TIP3    H144147   5.376   2.951   2.931 -0.1723  0.7417  0.1585
 7552TIP3    H244148   5.466   3.063   2.977 -0.1299  0.5563  0.5333
 7553TIP3   OH244149   0.329   3.665   1.169 -0.5244 -0.0789  0.0465
 7553TIP3    H144150   0.387   3.734   1.135 -2.6293  1.4345 -0.6446
 7553TIP3    H244151   0.269   3.711   1.228 -0.7858 -1.6845  1.0961
 7554TIP3   OH244152   1.974   4.988  12.732  0.3334 -0.0533  0.2278
 7554TIP3    H144153   1.889   4.948  12.748 -0.3707  0.9168 -0.9390
 7554TIP3    H244154   2.037   4.924  12.766 -0.7721 -1.7223 -0.7494
 7555TIP3   OH244155   2.892   0.022   3.933  0.3519 -0.2187 -0.0993
 7555TIP3    H144156   2.834  -0.014   3.865 -0.5359 -0.3290  0.7031
 7555TIP3    H244157   2.884   0.117   3.924 -2.0131 -0.1817  1.6699
 7556TIP3   OH244158   6.368   1.810  14.819 -0.3020 -0.3144  0.2943
 7556TIP3    H144159   6.400   1.852  14.899 -2.3305 -2.2160  2.2325
 7556TIP3    H244160   6.386   1.717  14.831 -1.2427 -0.7309 -1.1757
 7557TIP3   OH244161   1.164   5.327   6.171  0.2942 -0.2476 -0.0597
 7557TIP3    H144162   1.073   5.347   6.193  0.4637  1.1223 -0.5000
 7557TIP3    H244163   1.215   5.397   6.213  1.2604 -1.5572  1.0519
 7558TIP3   OH244164   3.287   5.149  15.487 -0.2435  0.4399 -0.0812
 7558TIP3    H144165   3.223   5.078  15.495  0.0045  0.0021 -1.7680
 7558TIP3    H244166   3.347   5.135  15.560  0.0030 -1.2943 -0.5837
 7559TIP3   OH244167   3.468   5.249  17.046  0.3671 -0.3691  0.1830
 7559TIP3    H144168   3.489   5.176  17.105 -0.0809 -0.5283  0.1467
 7559TIP3    H244169   3.456   5.207  16.961 -0.3925 -0.3154  0.2631
 7560TIP3   OH244170   0.199   4.470   6.840 -0.3405  0.7160  0.0476
 7560TIP3    H144171   0.247   4.531   6.784 -1.4936  2.2382  0.6541
 7560TIP3    H244172   0.229   4.491   6.929  0.0232 -0.3423  0.1933
 7561TIP3   OH244173   2.555   0.094   0.883 -0.4589  0.0934  0.3920
 7561TIP3    H144174   2.597   0.164   0.833 -0.7934  0.3840  0.5192
 7561TIP3    H244175   2.601   0.014   0.855 -0.7106  0.2360 -0.4574
 7562TIP3   OH244176   6.000   4.854   5.651 -0.4437  0.3523 -0.2889
 7562TIP3    H144177   5.933   4.787   5.643 -0.4926  0.1554  1.4030
 7562TIP3    H244178   6.055   4.842   5.574  0.1897 -2.3846  0.4694
 7563TIP3   OH244179   0.293   5.513   5.883 -0.0990 -0.2882  0.5549
 7563TIP3    H144180   0.250   5.495   5.967 -1.1865 -0.1488  0.0391
 7563TIP3    H244181   0.231   5.570   5.836  0.4522 -0.4498 -0.3856
 7564TIP3   OH244182   0.120   1.588   5.431  0.2510 -0.4054 -0.3013
 7564TIP3    H144183   0.169   1.634   5.500 -0.7386 -0.2242  0.2898
 7564TIP3    H244184   0.186   1.532   5.389  1.0176 -0.0090  0.3369
 7565TIP3   OH244185   5.598   0.916  12.897 -0.1888  0.5707 -0.1309
 7565TIP3    H144186   5.537   0.922  12.824 -0.4651 -1.2123 -0.0959
 7565TIP3    H244187   5.548   0.873  12.966 -0.5827  3.9462  1.9116
 7566TIP3   OH244188   5.461   4.136   2.162 -0.0738 -0.3941  0.1565
 7566TIP3    H144189   5.549   4.099   2.167  0.6486  1.3394  1.1280
 7566TIP3    H244190   5.442   4.139   2.068  2.0196  1.5467 -0.3060
 7567TIP3   OH244191   0.419   5.047  10.865 -0.1991  0.3870 -0.3422
 7567TIP3    H144192   0.407   5.126  10.917  0.6531  0.9148 -0.9185
 7567TIP3    H244193   0.403   5.076  10.775 -3.1000 -0.8064 -0.3246
 7568TIP3   OH244194   0.124   5.946   6.746 -0.6170  0.3334  0.4868
 7568TIP3    H144195   0.109   5.856   6.774  1.1036 -0.3180 -0.4887
 7568TIP3    H244196   0.165   5.988   6.822  0.5069 -0.3285  0.2676
 7569TIP3   OH244197   2.368   4.932   6.244 -0.1068  0.0544  0.2667
 7569TIP3    H144198   2.300   4.998   6.250 -0.8963 -0.7950  1.0136
 7569TIP3    H244199   2.449   4.982   6.234 -0.5269  1.1923  2.0829
 7570TIP3   OH244200   5.466   2.717  14.126  0.3587  0.1537 -0.0172
 7570TIP3    H144201   5.449   2.624  14.112 -1.0886  0.5081 -0.7881
 7570TIP3    H244202   5.465   2.755  14.038  0.5659  0.9591  0.3212
 7571TIP3   OH244203   5.887   1.846   5.017 -0.5045 -0.6513  0.0282
 7571TIP3    H144204   5.822   1.827   4.950  0.2281  0.7379 -1.1188
 7571TIP3    H244205   5.954   1.779   5.005 -0.0405  0.0007 -1.1023
 7572TIP3   OH244206   2.019   6.533   1.991 -0.0005 -0.0151  0.3742
 7572TIP3    H144207   2.030   6.504   1.900 -1.3520 -1.1566  0.5250
 7572TIP3    H244208   2.086   6.485   2.040  0.8020  0.6834 -0.0204
 7573TIP3   OH244209   5.933   2.850  13.845 -0.0084 -0.3855 -0.0983
 7573TIP3    H144210   5.964   2.895  13.923 -0.9096  0.4198 -0.1915
 7573TIP3    H244211   5.841   2.873  13.838 -0.5276 -2.3003 -0.1213
 7574TIP3   OH244212   1.805   2.725   0.634  0.2583 -0.0012 -0.1398
 7574TIP3    H144213   1.741   2.790   0.665 -0.2791 -0.7493  0.3398
 7574TIP3    H244214   1.865   2.713   0.708  2.7377  2.7820 -1.4682
 7575TIP3   OH244215   4.092   3.802  12.669 -0.3494 -0.3494  0.3521
 7575TIP3    H144216   4.060   3.720  12.707  1.1487  0.1076  2.7736
 7575TIP3    H244217   4.013   3.852  12.650 -1.2467 -0.7126  2.7591
 7576TIP3   OH244218   5.025   3.786   5.131  0.4256  0.1026  0.0908
 7576TIP3    H144219   5.062   3.874   5.123 -0.3580  0.3948 -0.3790
 7576TIP3    H244220   5.060   3.738   5.056 -0.7185  0.5898 -0.7643
 7577TIP3   OH244221   0.944   3.372  11.470 -0.3750 -0.0402 -0.0417
 7577TIP3    H144222   1.013   3.342  11.411 -0.6208  2.5580 -1.8419
 7577TIP3    H244223   0.990   3.426  11.534 -0.4279 -0.5743  0.4473
 7578TIP3   OH244224   5.593   5.274  11.205  0.1845  0.2031 -0.0773
 7578TIP3    H144225   5.541   5.326  11.143  1.1254  1.3554  0.0681
 7578TIP3    H244226   5.588   5.324  11.287  1.7774  0.5152 -0.1470
 7579TIP3   OH244227   2.179   1.979  16.205  0.8730 -0.9541 -0.5020
 7579TIP3    H144228   2.271   2.002  16.220  0.7962 -0.5480 -0.6566
 7579TIP3    H244229   2.146   1.956  16.292  0.8943 -0.2705 -0.3080
 7580TIP3   OH244230   3.983   6.657  17.163  0.2131 -0.3504 -0.0710
 7580TIP3    H144231   4.049   6.594  17.191 -0.3243 -1.3085 -0.9110
 7580TIP3    H244232   3.924   6.666  17.238 -0.2142 -1.5382 -0.2548
 7581TIP3   OH244233   5.311   5.952  13.876  0.3274 -0.2673  0.2041
 7581TIP3    H144234   5.318   5.857  13.872  2.3670 -0.1553 -0.0175
 7581TIP3    H244235   5.394   5.984  13.841  0.0343  1.5786  1.0424
 7582TIP3   OH244236   4.086   5.371  14.558 -0.1388  0.3359 -0.2740
 7582TIP3    H144237   4.042   5.453  14.579 -0.3395  0.1645 -0.0174
 7582TIP3    H244238   4.022   5.303  14.582 -0.3045  0.1275 -1.2624
 7583TIP3   OH244239   3.668   5.421   1.443 -0.2468  0.0353  0.2331
 7583TIP3    H144240   3.763   5.405   1.445 -0.5429 -2.0088  2.0364
 7583TIP3    H244241   3.657   5.502   1.494  0.4110 -0.9430  2.0330
 7584TIP3   OH244242   6.144   3.405  16.250  0.2738 -0.4179 -0.1948
 7584TIP3    H144243   6.200   3.384  16.324 -0.3054  0.9935  0.6862
 7584TIP3    H244244   6.066   3.351  16.262  0.5647 -0.8609 -0.2853
 7585TIP3   OH244245   0.775   0.190   2.356 -0.5147 -0.1081 -0.4622
 7585TIP3    H144246   0.783   0.109   2.406  0.5294 -0.1537 -0.6829
 7585TIP3    H244247   0.688   0.185   2.315 -0.7526 -0.7643  0.1135
 7586TIP3   OH244248   1.693   5.683  13.723 -0.5577  0.4336  0.0795
 7586TIP3    H144249   1.720   5.769  13.756 -1.2365  0.7019 -0.0502
 7586TIP3    H244250   1.680   5.697  13.629  0.4280 -0.0949 -0.1526
 7587TIP3   OH244251   6.490   5.022   6.519 -0.4381 -0.5247 -0.6651
 7587TIP3    H144252   6.446   5.064   6.592  0.4911  0.9825 -0.9268
 7587TIP3    H244253   6.423   5.016   6.451 -0.4364  1.2866 -0.8836
 7588TIP3   OH244254   0.295   1.865  11.747  0.1344 -0.0677 -0.0674
 7588TIP3    H144255   0.244   1.839  11.670  0.1467 -1.4576  0.3711
 7588TIP3    H244256   0.239   1.929  11.791 -0.1732  0.2262 -0.8515
 7589TIP3   OH244257   6.186   6.738  12.285  0.3414 -0.6742 -0.6015
 7589TIP3    H144258   6.197   6.754  12.191  0.2433  1.3783 -0.3078
 7589TIP3    H244259   6.202   6.823  12.326 -2.0570 -0.9231  1.0537
 7590TIP3   OH244260   5.931   1.816  13.551  0.5494 -0.0095  0.0812
 7590TIP3    H144261   5.838   1.810  13.572  0.5345 -0.8114 -0.2055
 7590TIP3    H244262   5.965   1.729  13.569  1.0926  0.0629 -0.5808
 7591TIP3   OH244263   4.360   6.621   6.124 -0.1580  0.3677  0.3221
 7591TIP3    H144264   4.389   6.691   6.066  0.6603 -1.6811 -1.8895
 7591TIP3    H244265   4.416   6.629   6.201  0.9991  1.1875 -0.5744
 7592TIP3   OH244266   4.188   3.159  16.274 -0.3180  0.2109  0.2569
 7592TIP3    H144267   4.169   3.221  16.204  0.4165  0.6844  0.4686
 7592TIP3    H244268   4.276   3.181  16.303 -1.0019  0.7251  2.0638
 7593TIP3   OH244269   3.629   2.237  15.301  0.1853  0.2403 -0.0120
 7593TIP3    H144270   3.639   2.211  15.393  2.8423 -1.7388 -0.7181
 7593TIP3    H244271   3.551   2.191  15.271  0.0325 -0.1473  0.9479
 7594TIP3   OH244272   2.984   6.533   3.768 -0.2839 -0.2921  0.3919
 7594TIP3    H144273   2.987   6.452   3.717 -0.6653 -0.9358  1.3560
 7594TIP3    H244274   3.076   6.553   3.786 -0.0111  0.8354 -1.8331
 7595TIP3   OH244275   5.027   6.157   2.114  0.0230 -0.1998 -0.3328
 7595TIP3    H144276   5.093   6.217   2.149  1.2245 -2.2675  1.1543
 7595TIP3    H244277   5.067   6.121   2.035  0.6463 -1.3030  0.4596
 7596TIP3   OH244278   6.080   1.954  15.797 -0.0227  0.1462  0.2298
 7596TIP3    H144279   6.151   1.936  15.858  0.7720  0.1453 -0.6828
 7596TIP3    H244280   6.001   1.949  15.851  0.7262  1.2781  1.4957
 7597TIP3   OH244281   0.469   6.125  12.782 -0.3480  0.3874 -0.1180
 7597TIP3    H144282   0.379   6.117  12.752 -0.2176  0.8432 -0.6567
 7597TIP3    H244283   0.462   6.146  12.875 -0.8471  1.8018 -0.4544
 7598TIP3   OH244284   3.362   1.522   4.497  0.0565 -0.3932  0.1616
 7598TIP3    H144285   3.324   1.497   4.413 -1.1897 -0.1608  0.6421
 7598TIP3    H244286   3.442   1.570   4.474 -0.2606 -0.3460 -0.8837
 7599TIP3   OH244287   6.568   5.933   1.222 -0.0863 -0.2230  0.3603
 7599TIP3    H144288   6.522   5.849   1.230 -0.7476 -0.1313 -1.7087
 7599TIP3    H244289   6.501   5.999   1.238 -0.0404 -0.0995  0.0566
 7600TIP3   OH244290   1.088   5.029   3.663 -0.1273  0.2358  0.9221
 7600TIP3    H144291   1.048   5.056   3.746 -1.4552 -2.1901  1.1433
 7600TIP3    H244292   1.158   5.093   3.649 -2.5557  3.2912  1.7013
 7601TIP3   OH244293   0.783   1.248   1.324 -0.2996 -0.1185  0.0916
 7601TIP3    H144294   0.819   1.214   1.242 -1.6936  1.7503 -1.3712
 7601TIP3    H244295   0.690   1.229   1.319 -0.7286  1.7420  0.2949
 7602TIP3   OH244296   6.688   2.522   0.837 -0.3035  0.2368 -0.7260
 7602TIP3    H144297   6.656   2.490   0.922  0.4526 -0.0913 -0.5565
 7602TIP3    H244298   6.780   2.543   0.852  0.3553 -1.5735 -1.9066
 7603TIP3   OH244299   6.298   2.821   2.000 -0.2579 -0.3461  0.2204
 7603TIP3    H144300   6.225   2.793   1.946  0.0817  0.9977 -0.9973
 7603TIP3    H244301   6.369   2.761   1.977 -0.1303  0.1794 -0.8410
 7604TIP3   OH244302   1.985   5.826   3.431  0.2063 -0.0290  0.0248
 7604TIP3    H144303   2.011   5.905   3.383 -0.3081  0.4025  0.4549
 7604TIP3    H244304   1.948   5.769   3.364 -0.4624  0.5490 -0.1063
 7605TIP3   OH244305   5.537   2.646   1.447  0.4440 -0.0885 -0.5807
 7605TIP3    H144306   5.539   2.622   1.355 -1.5321  1.4006 -1.0673
 7605TIP3    H244307   5.445   2.639   1.472  0.6261  1.4428  0.7166
 7606TIP3   OH244308   0.658   2.575  10.853 -0.0709 -0.3365 -0.8277
 7606TIP3    H144309   0.685   2.662  10.881  1.1301 -0.9708  0.0422
 7606TIP3    H244310   0.591   2.591  10.786 -0.5680  1.2333  0.0003
 7607TIP3   OH244311   5.606   6.672  16.687  0.2689 -0.0713 -0.1500
 7607TIP3    H144312   5.541   6.605  16.667  0.7940 -0.1880 -1.5628
 7607TIP3    H244313   5.598   6.735  16.615 -0.2559  1.4334  1.1776
 7608TIP3   OH244314   0.282   0.360  12.248  0.0210 -0.2863  0.0215
 7608TIP3    H144315   0.374   0.388  12.245  0.0486 -0.4210 -0.3975
 7608TIP3    H244316   0.286   0.266  12.229  0.1198 -1.0175  3.0896
 7609TIP3   OH244317   2.428   1.876  15.379  0.3917 -0.4466 -0.4279
 7609TIP3    H144318   2.334   1.892  15.383  0.1072 -1.8855 -0.9473
 7609TIP3    H244319   2.437   1.795  15.328  1.6797 -2.0642  2.1384
 7610TIP3   OH244320   0.480   4.003  14.609 -0.3157  0.6630  0.0176
 7610TIP3    H144321   0.490   3.908  14.601 -2.0291  0.0614  3.5181
 7610TIP3    H244322   0.570   4.037  14.603  0.3270 -1.1264 -1.2468
 7611TIP3   OH244323   6.377   4.863   2.716 -0.4891  0.1177  0.8399
 7611TIP3    H144324   6.383   4.767   2.720  0.3659  0.1206 -0.0243
 7611TIP3    H244325   6.351   4.889   2.805  2.6709 -0.6988  2.1355
 7612TIP3   OH244326   0.360   2.892  11.970  0.5881 -0.0321 -0.1666
 7612TIP3    H144327   0.306   2.913  11.894 -0.0809  0.9534  0.5526
 7612TIP3    H244328   0.314   2.818  12.012  0.3005  0.1991 -0.0692
 7613TIP3   OH244329   3.463   3.577   1.918 -0.0212 -0.0013  0.3375
 7613TIP3    H144330   3.512   3.569   2.000 -1.1784 -0.3329  1.0187
 7613TIP3    H244331   3.401   3.504   1.920 -0.4726  0.3404 -0.5663
 7614TIP3   OH244332   4.325   4.062  15.019 -0.5496  0.0461 -0.3528
 7614TIP3    H144333   4.237   4.066  15.055 -1.7430  0.6414 -3.0554
 7614TIP3    H244334   4.324   3.984  14.963  0.1452  0.8315 -1.5003
 7615TIP3   OH244335   0.916   0.770  16.080 -0.2070 -0.3357  0.2515
 7615TIP3    H144336   0.824   0.788  16.060 -0.0600 -0.4254 -0.5424
 7615TIP3    H244337   0.913   0.706  16.151 -0.7424  0.4720  0.9742
 7616TIP3   OH244338   1.576   0.554   5.185  0.7545  0.2289 -0.6296
 7616TIP3    H144339   1.620   0.639   5.181  3.0215 -0.7573  1.2707
 7616TIP3    H244340   1.540   0.551   5.274 -1.5675  0.1724 -1.4978
 7617TIP3   OH244341   5.327   0.905  15.474 -0.1263  1.0487 -0.6272
 7617TIP3    H144342   5.339   0.846  15.400  3.0664 -0.7596  1.1006
 7617TIP3    H244343   5.413   0.945  15.487 -0.7723  1.8821  1.6101
 7618TIP3   OH244344   5.197   4.654  15.450  0.1599 -0.0015  0.1066
 7618TIP3    H144345   5.102   4.653  15.451  0.1174  0.9064  1.9240
 7618TIP3    H244346   5.220   4.668  15.358 -1.4981  0.9281 -0.2136
 7619TIP3   OH244347   3.631   0.417  13.828  0.5398  0.0230 -0.0009
 7619TIP3    H144348   3.600   0.446  13.742  1.6360  2.1224  0.2393
 7619TIP3    H244349   3.567   0.453  13.890  0.9409  0.3902  0.1993
 7620TIP3   OH244350   4.147   0.836   2.371 -0.2088  0.7244  0.3353
 7620TIP3    H144351   4.173   0.770   2.307  0.1391  0.5858  0.6187
 7620TIP3    H244352   4.202   0.819   2.447  0.4683  1.8453  0.1189
 7621TIP3   OH244353   3.072   4.896  12.197 -0.5046  0.0065  0.7360
 7621TIP3    H144354   3.121   4.978  12.198  0.4276 -0.4267 -1.6630
 7621TIP3    H244355   3.110   4.845  12.269  1.4186  0.3678  0.0517
 7622TIP3   OH244356   6.247   0.491  15.358  0.1753  0.2832  0.2792
 7622TIP3    H144357   6.317   0.463  15.300  2.6251  2.9284  1.7009
 7622TIP3    H244358   6.194   0.550  15.304  1.0392  0.8518  0.0221
 7623TIP3   OH244359   6.374   1.870   3.736  0.1544  0.3445 -0.6947
 7623TIP3    H144360   6.309   1.800   3.739 -1.5136  1.8310 -0.3377
 7623TIP3    H244361   6.454   1.831   3.771 -0.8318 -1.2493 -0.1266
 7624TIP3   OH244362   0.259   5.101   2.052 -0.7136 -0.1579  0.1378
 7624TIP3    H144363   0.312   5.073   1.977 -1.4123  1.3692 -0.9863
 7624TIP3    H244364   0.180   5.048   2.048 -1.5880  1.1516 -1.3835
 7625TIP3   OH244365   2.259   4.000   3.075 -0.1501  0.1257 -0.1811
 7625TIP3    H144366   2.331   4.023   3.133  0.6196 -0.5625 -0.8475
 7625TIP3    H244367   2.201   3.946   3.128 -2.1821  3.6609  1.5473
 7626TIP3   OH244368   3.501   6.388   2.659  0.0654  0.3588 -0.0848
 7626TIP3    H144369   3.518   6.298   2.632  2.0703  0.8487 -0.6618
 7626TIP3    H244370   3.491   6.436   2.576 -0.9097  0.6855  0.2146
 7627TIP3   OH244371   5.045   0.421   2.112  0.4219 -0.2207  0.7108
 7627TIP3    H144372   4.989   0.438   2.187  0.9554 -0.6372  1.2139
 7627TIP3    H244373   4.992   0.365   2.055  0.1494 -0.2047  0.9474
 7628TIP3   OH244374   2.098   4.248  14.198 -0.1558 -0.0647 -0.2344
 7628TIP3    H144375   2.115   4.316  14.133 -0.5804  1.0371  0.7718
 7628TIP3    H244376   2.025   4.197  14.162 -0.3257  0.4728 -0.6595
 7629TIP3   OH244377   0.612   5.451  15.633  0.0940 -0.9084  0.4049
 7629TIP3    H144378   0.699   5.488  15.641 -0.1836 -0.2998  0.6939
 7629TIP3    H244379   0.621   5.382  15.567  0.2329  0.9535 -1.6484
 7630TIP3   OH244380   4.523   3.280  13.283  0.1970  0.3158 -0.0045
 7630TIP3    H144381   4.500   3.370  13.306  0.0455  0.4544 -0.6812
 7630TIP3    H244382   4.533   3.281  13.188 -0.3075 -0.4923 -0.0779
 7631TIP3   OH244383   0.530   3.052   1.632 -0.2207  0.1362  0.2302
 7631TIP3    H144384   0.485   3.023   1.552  1.6635  0.9921 -1.2264
 7631TIP3    H244385   0.562   2.971   1.672 -1.1786 -0.3006  0.1456
 7632TIP3   OH244386   4.401   4.097  17.003 -0.2572  0.1077 -0.1599
 7632TIP3    H144387   4.420   4.024  17.062 -2.5257 -0.7416 -0.3889
 7632TIP3    H244388   4.449   4.078  16.923  0.8676 -0.0105  0.5340
 7633TIP3   OH244389   5.960   5.841  11.229  0.2496 -0.0733  0.6664
 7633TIP3    H144390   5.994   5.787  11.158 -1.5713  0.7735 -0.9404
 7633TIP3    H244391   6.021   5.915  11.235  0.0553  0.1985 -0.5148
 7634TIP3   OH244392   4.060   3.104   3.482 -0.3385  0.1719 -0.3943
 7634TIP3    H144393   3.977   3.089   3.437 -1.1159  1.6718  0.4483
 7634TIP3    H244394   4.057   3.045   3.557 -0.8857  0.5461 -0.1065
 7635TIP3   OH244395   2.127   2.116  14.789  0.1098  0.1123  0.5380
 7635TIP3    H144396   2.040   2.133  14.752 -0.2414 -0.4779  1.0835
 7635TIP3    H244397   2.178   2.194  14.766 -0.3515  0.1539 -0.4149
 7636TIP3   OH244398   3.148   6.760   3.948 -0.1146  0.1324  0.2450
 7636TIP3    H144399   3.147   6.665   3.935 -0.4781  0.1227  0.3340
 7636TIP3    H244400   3.056   6.783   3.959  0.0688  0.3119  1.5589
 7637TIP3   OH244401   0.565   6.549   4.501 -0.1610  0.0795  0.6280
 7637TIP3    H144402   0.622   6.578   4.430 -1.0739 -1.0815 -0.6357
 7637TIP3    H244403   0.585   6.456   4.512 -3.1825 -0.9716 -1.3643
 7638TIP3   OH244404   4.264   6.797   2.852  0.0427 -0.2581 -0.2425
 7638TIP3    H144405   4.181   6.835   2.882  0.1445 -0.3112  0.1090
 7638TIP3    H244406   4.327   6.869   2.856  0.6581 -0.8547  2.1300
 7639TIP3   OH244407   5.955   6.502   4.204 -0.5300 -0.1350 -0.1088
 7639TIP3    H144408   6.037   6.551   4.203 -1.3661  1.3327  0.4091
 7639TIP3    H244409   5.951   6.464   4.292 -1.1945  1.2247  0.4695
 7640TIP3   OH244410   1.294   4.278  15.983 -0.1989 -0.5001  0.1816
 7640TIP3    H144411   1.226   4.335  16.020  0.5313 -0.3850  1.3934
 7640TIP3    H244412   1.286   4.196  16.032 -0.6771 -1.1586 -0.9682
 7641TIP3   OH244413   4.746   2.332  13.575 -0.1918 -0.0503 -0.6949
 7641TIP3    H144414   4.746   2.340  13.670 -1.7181  0.3391 -0.7033
 7641TIP3    H244415   4.744   2.238  13.559  3.3347 -0.3047 -0.4327
 7642TIP3   OH244416   5.553   1.146   4.779 -0.1755  0.0040  0.3871
 7642TIP3    H144417   5.489   1.216   4.791  0.0734  0.2636  0.2032
 7642TIP3    H244418   5.638   1.190   4.785 -0.0198 -0.2743  0.2220
 7643TIP3   OH244419   4.328   2.932  11.878 -0.4763 -0.5492 -0.3838
 7643TIP3    H144420   4.354   2.840  11.891  0.7630 -0.2668 -0.7112
 7643TIP3    H244421   4.293   2.935  11.789 -1.4507 -0.8912 -0.0226
 7644TIP3   OH244422   6.533   3.086  16.499 -0.2681  0.3181  0.4073
 7644TIP3    H144423   6.583   3.056  16.423 -1.2783  0.2883 -0.2528
 7644TIP3    H244424   6.447   3.046  16.489 -1.4571  2.7840 -0.1279
 7645TIP3   OH244425   3.099   0.465   4.032 -0.5198 -0.2559 -0.3317
 7645TIP3    H144426   3.158   0.461   3.957  0.8407 -0.8871  0.7296
 7645TIP3    H244427   3.065   0.555   4.031 -0.6126 -0.2876 -1.7405
 7646TIP3   OH244428   3.056   5.627   0.003  0.3341  0.3224  0.0412
 7646TIP3    H144429   3.000   5.622   0.081 -0.2542 -1.4692 -0.4628
 7646TIP3    H244430   3.014   5.695  -0.051 -1.4607 -1.0211 -0.3639
 7647TIP3   OH244431   1.153   4.028  15.157  0.5269  0.7083 -0.4471
 7647TIP3    H144432   1.128   3.945  15.116  1.8602  0.5937 -1.1075
 7647TIP3    H244433   1.167   4.006  15.249 -2.1604  0.8974  0.0932
 7648TIP3   OH244434   2.156   2.665   6.239  0.3406  0.0522  0.0477
 7648TIP3    H144435   2.249   2.689   6.248 -0.2436  2.1280  1.1244
 7648TIP3    H244436   2.109   2.748   6.246 -1.6762 -1.0623  0.4406
 7649TIP3   OH244437   1.491   3.277   5.270 -0.3215 -0.3370  0.0682
 7649TIP3    H144438   1.417   3.338   5.278 -0.8587 -1.0357  0.5544
 7649TIP3    H244439   1.457   3.194   5.303  1.1007 -0.3549  1.5672
 7650TIP3   OH244440   6.540   5.897   0.798 -0.2140 -0.1466 -0.0113
 7650TIP3    H144441   6.605   5.930   0.860 -1.7619 -0.7804  2.0537
 7650TIP3    H244442   6.592   5.865   0.724  1.6148  2.2945  0.0629
 7651TIP3   OH244443   3.189   0.143  11.240  0.4097  0.2384 -0.1689
 7651TIP3    H144444   3.119   0.133  11.304  0.2018  0.0586 -0.4190
 7651TIP3    H244445   3.144   0.176  11.161  0.1866 -2.1574 -1.1149
 7652TIP3   OH244446   6.605   3.332  13.380 -0.6283 -0.0937 -0.0510
 7652TIP3    H144447   6.535   3.302  13.322 -1.7751 -0.9831  1.6932
 7652TIP3    H244448   6.647   3.252  13.411  0.3001  0.3851 -0.0403
 7653TIP3   OH244449   1.037   4.206   3.655 -0.1755 -0.6839  0.3905
 7653TIP3    H144450   0.964   4.250   3.698 -2.1789 -2.4217 -1.0549
 7653TIP3    H244451   1.073   4.271   3.594  0.5462  0.6805  2.1924
 7654TIP3   OH244452   1.619   2.873  14.133  0.5811 -0.1068 -0.8260
 7654TIP3    H144453   1.683   2.831  14.077  0.4635 -0.3294 -0.7946
 7654TIP3    H244454   1.535   2.835  14.107  0.6545 -1.1406  0.3313
 7655TIP3   OH244455   1.751   6.117   5.066 -0.2249  0.2476  0.0121
 7655TIP3    H144456   1.807   6.048   5.030  0.3587  1.1340 -0.8458
 7655TIP3    H244457   1.813   6.179   5.105 -0.6787  0.6818  0.0540
 7656TIP3   OH244458   5.581   6.381  14.897 -0.1492 -0.1313 -0.4783
 7656TIP3    H144459   5.671   6.361  14.925  0.8282  2.5286 -1.4142
 7656TIP3    H244460   5.544   6.431  14.970 -0.7223 -0.7781 -0.3138
 7657TIP3   OH244461   3.619   6.137  15.481  0.0591  0.1737 -0.2626
 7657TIP3    H144462   3.600   6.197  15.553  2.4499 -1.3660  1.8188
 7657TIP3    H244463   3.678   6.186  15.423 -1.0918  1.0890 -0.6868
 7658TIP3   OH244464   3.469   5.269  11.678  0.4121  0.5636  0.4125
 7658TIP3    H144465   3.479   5.331  11.605 -1.1839 -0.3246 -0.6097
 7658TIP3    H244466   3.552   5.222  11.681  0.4667  0.5303 -0.9410
 7659TIP3   OH244467   5.521   0.528  13.388  0.0728  0.0152 -0.5397
 7659TIP3    H144468   5.487   0.439  13.385  0.1654 -0.1645  1.7497
 7659TIP3    H244469   5.443   0.583  13.385 -0.0282 -0.1625 -1.2829
 7660TIP3   OH244470   4.549   2.980  10.934  0.3330 -0.1385  0.3142
 7660TIP3    H144471   4.484   2.909  10.939 -1.4739  1.5146  1.9837
 7660TIP3    H244472   4.505   3.049  10.885  1.2254  0.6368  0.5857
 7661TIP3   OH244473   1.372   1.123   4.031 -0.1815 -0.3728 -0.1473
 7661TIP3    H144474   1.377   1.057   4.100 -0.5914  0.5546  0.8107
 7661TIP3    H244475   1.463   1.144   4.011 -0.0608 -0.5807  0.1765
 7662TIP3   OH244476   0.612   2.014  13.958 -0.5403 -0.4015 -0.1659
 7662TIP3    H144477   0.593   2.085  14.019  0.5121 -0.8901  0.7540
 7662TIP3    H244478   0.659   2.057  13.886  0.5579 -0.2177  0.6307
 7663TIP3   OH244479   5.966   1.550  15.476 -0.4812  0.3391 -0.0735
 7663TIP3    H144480   6.028   1.623  15.484  0.8975 -0.8656  0.6475
 7663TIP3    H244481   5.894   1.574  15.534 -1.0673  2.0770 -1.4216
 7664TIP3   OH244482   3.382   6.319   1.216  0.2724 -0.4876  0.2468
 7664TIP3    H144483   3.439   6.293   1.144 -1.2459 -2.9805 -0.2087
 7664TIP3    H244484   3.419   6.275   1.293 -0.3840 -1.2570  0.1436
 7665TIP3   OH244485   4.182   1.519  11.404 -0.9585  0.8727 -0.3145
 7665TIP3    H144486   4.156   1.597  11.453 -2.6513  0.8620 -1.1350
 7665TIP3    H244487   4.248   1.551  11.343 -0.7328  1.4019  0.1900
 7666TIP3   OH244488   0.640   4.989  15.286  0.0261 -0.0464  0.1068
 7666TIP3    H144489   0.566   5.013  15.230 -0.2809 -2.3496 -0.5972
 7666TIP3    H244490   0.605   4.990  15.375 -1.2924 -2.2531 -0.3002
 7667TIP3   OH244491   6.219   1.159  16.424 -0.3148  0.0022 -0.4196
 7667TIP3    H144492   6.254   1.087  16.371  0.1435 -0.6091  0.6671
 7667TIP3    H244493   6.132   1.176  16.388  0.2998  0.1774 -1.8906
 7668TIP3   OH244494   3.331   0.317   2.183  0.1757  0.4455  1.0374
 7668TIP3    H144495   3.409   0.365   2.210  0.9766 -0.5548  0.5877
 7668TIP3    H244496   3.262   0.384   2.175  0.8957  1.2928  1.7509
 7669TIP3   OH244497   1.956   2.396  17.275  0.6253  0.0001 -0.5397
 7669TIP3    H144498   1.896   2.349  17.218  0.2324 -0.7966  0.4820
 7669TIP3    H244499   1.903   2.423  17.350  1.4050 -0.3133  0.1620
 7670TIP3   OH244500   2.483   6.510  14.266  0.2895 -0.3631  0.1392
 7670TIP3    H144501   2.578   6.519  14.260  0.2572 -0.7517 -1.5254
 7670TIP3    H244502   2.465   6.426  14.225 -0.7037 -0.8056  1.4135
 7671TIP3   OH244503   5.656   6.428   5.319  0.7006 -0.0679 -0.4872
 7671TIP3    H144504   5.596   6.470   5.381  1.1499  0.4079 -0.3723
 7671TIP3    H244505   5.737   6.477   5.326  1.6544 -1.7226  0.5579
 7672TIP3   OH244506   3.505   4.033  14.466 -0.1042  0.2899  0.1097
 7672TIP3    H144507   3.472   3.948  14.438 -0.8419  0.7644 -0.5096
 7672TIP3    H244508   3.428   4.090  14.466  0.8625  1.7860 -2.6802
 7673TIP3   OH244509   0.862   4.067  12.389  0.3670 -0.4264  0.0719
 7673TIP3    H144510   0.857   4.041  12.297  0.7188  0.1638 -0.1215
 7673TIP3    H244511   0.826   4.156  12.391 -1.0262 -0.9686  0.7551
 7674TIP3   OH244512   2.695   3.760  13.912 -0.0324  0.5577  0.3517
 7674TIP3    H144513   2.775   3.771  13.860  0.9077 -0.2510  1.5724
 7674TIP3    H244514   2.625   3.784  13.852  1.0559  0.3970 -1.0580
 7675TIP3   OH244515   6.237   0.200  10.956 -0.1287 -0.4350 -0.2899
 7675TIP3    H144516   6.196   0.232  11.036 -2.3606 -1.7475 -0.8152
 7675TIP3    H244517   6.222   0.269  10.891  0.8912  0.2350  0.1563
 7676TIP3   OH244518   2.232   2.553  12.507 -0.6929  0.2362  0.3410
 7676TIP3    H144519   2.256   2.634  12.553  1.8453 -0.1810 -0.1230
 7676TIP3    H244520   2.237   2.577  12.414 -1.0360 -0.1905  0.2105
 7677TIP3   OH244521   0.629   0.921   4.529  0.1306  0.3852 -0.0067
 7677TIP3    H144522   0.684   0.908   4.606  1.5041 -0.2346 -1.0762
 7677TIP3    H244523   0.584   0.837   4.517 -0.4401  0.6256  0.3572
 7678TIP3   OH244524   3.896   3.344   4.166 -0.0761  0.2577 -0.0001
 7678TIP3    H144525   3.928   3.427   4.132  0.3202  0.8095  1.6311
 7678TIP3    H244526   3.880   3.360   4.259 -2.3723 -0.8145 -0.1298
 7679TIP3   OH244527   2.333   0.834  14.424  0.3400 -0.4493 -0.3070
 7679TIP3    H144528   2.319   0.919  14.464 -0.8320 -0.9270  0.3622
 7679TIP3    H244529   2.355   0.853  14.333 -1.4473  0.5530 -0.5853
 7680TIP3   OH244530   0.060   2.249   4.622  0.1719  0.0183 -0.0641
 7680TIP3    H144531   0.075   2.343   4.630  0.8112  0.0914 -1.8541
 7680TIP3    H244532   0.086   2.227   4.533 -0.0810 -1.8478  0.2753
 7681TIP3   OH244533   4.876   6.789  16.757  0.3321 -0.3116  0.3710
 7681TIP3    H144534   4.876   6.853  16.685  1.4070 -0.4072  0.2803
 7681TIP3    H244535   4.889   6.842  16.836  1.9264 -0.4678  0.2340
 7682TIP3   OH244536   1.586   5.349  16.206 -0.2361  0.2434 -0.2651
 7682TIP3    H144537   1.591   5.443  16.187 -0.3831 -0.0828 -2.0648
 7682TIP3    H244538   1.499   5.337  16.243 -0.4881  0.7194 -0.6915
 7683TIP3   OH244539   3.651   1.629   4.835  0.2960  0.7900 -0.0382
 7683TIP3    H144540   3.728   1.687   4.833  1.4671 -0.7007 -1.7185
 7683TIP3    H244541   3.656   1.587   4.921  2.3421 -0.4229 -0.6637
 7684TIP3   OH244542   1.364   2.296   5.758  0.9595 -0.0785  0.2971
 7684TIP3    H144543   1.391   2.387   5.770 -0.3841  0.4761 -0.6039
 7684TIP3    H244544   1.442   2.252   5.724  1.2499  1.0674 -0.5877
 7685TIP3   OH244545   1.202   2.677  12.678 -0.0048 -0.2620  0.5121
 7685TIP3    H144546   1.145   2.678  12.600  0.2161 -2.2841  0.2810
 7685TIP3    H244547   1.271   2.614  12.656  1.2211  0.6669  1.5779
 7686TIP3   OH244548   0.921   4.783  15.736 -0.4080 -0.0810 -0.0024
 7686TIP3    H144549   1.011   4.786  15.705  0.0611 -1.7775  1.0450
 7686TIP3    H244550   0.927   4.748  15.825 -2.1609 -1.2040 -0.2742
 7687TIP3   OH244551   5.946   3.537  10.972 -0.5360  0.3032 -0.0350
 7687TIP3    H144552   6.009   3.589  10.922 -0.2367  0.6101  0.6508
 7687TIP3    H244553   5.989   3.452  10.981 -0.9018  0.0091 -0.9074
 7688TIP3   OH244554   2.043   1.016  14.334 -0.0716 -0.3659 -0.3025
 7688TIP3    H144555   2.069   1.083  14.271 -0.9952 -0.5347 -0.8711
 7688TIP3    H244556   1.965   1.052  14.377  0.1157 -0.5775  0.2255
 7689TIP3   OH244557   3.034   6.418  10.962  0.1158 -0.1418  0.4417
 7689TIP3    H144558   3.011   6.384  10.875  0.0382  0.3536  0.2666
 7689TIP3    H244559   3.090   6.493  10.944  0.7742 -0.5298  0.8413
 7690TIP3   OH244560   5.227   4.491   5.001 -0.6942 -0.0830 -0.1787
 7690TIP3    H144561   5.294   4.545   4.958 -2.0476  1.0808 -0.8889
 7690TIP3    H244562   5.226   4.410   4.949  0.5958 -0.3937  0.2377
 7691TIP3   OH244563   5.739   0.247  13.006 -0.2201 -0.1538  0.6554
 7691TIP3    H144564   5.819   0.243  13.059  1.0680  0.1481 -1.1852
 7691TIP3    H244565   5.721   0.340  12.996 -0.8090 -0.2206  1.0579
 7692TIP3   OH244566   2.430   1.640  15.269  0.2567 -0.0933  0.9081
 7692TIP3    H144567   2.457   1.588  15.194 -4.5564 -0.7931 -0.6849
 7692TIP3    H244568   2.439   1.581  15.344  2.9631 -0.1509  0.6192
 7693TIP3   OH244569   6.071   3.846  13.790 -0.1597  0.1599  0.0698
 7693TIP3    H144570   6.121   3.910  13.739  0.2996 -0.5877 -0.4409
 7693TIP3    H244571   6.133   3.773  13.804  0.0082  0.6519  2.3663
 7694TIP3   OH244572   1.489   4.176   2.669  0.5457  0.1289  0.2705
 7694TIP3    H144573   1.544   4.235   2.721  1.9073 -1.2193  0.4117
 7694TIP3    H244574   1.496   4.091   2.713 -1.9985 -0.0267  0.5267
 7695TIP3   OH244575   4.162   0.541  11.368  0.1467  0.2798 -0.3658
 7695TIP3    H144576   4.219   0.475  11.329  0.6519  0.5168 -0.0378
 7695TIP3    H244577   4.080   0.534  11.319  0.2231 -0.5305 -0.3885
 7696TIP3   OH244578   3.282   1.729  10.646  0.3204  0.3161  0.0824
 7696TIP3    H144579   3.377   1.719  10.650  0.3619  0.6567 -0.0075
 7696TIP3    H244580   3.263   1.800  10.708  0.0318 -0.3267  0.7519
 7697TIP3   OH244581   3.058   0.215  11.010  0.4410  0.7147 -0.5719
 7697TIP3    H144582   3.015   0.253  10.933 -1.1923 -0.0684 -0.0942
 7697TIP3    H244583   3.004   0.140  11.032  2.7355 -1.0344 -0.5966
 7698TIP3   OH244584   6.441   0.745  15.276  0.4268 -0.1800 -0.6919
 7698TIP3    H144585   6.474   0.721  15.190 -0.0771 -1.4025 -0.5615
 7698TIP3    H244586   6.358   0.789  15.258  0.6341  0.1563 -0.8502
 7699TIP3   OH244587   4.406   6.315   2.248  0.0604  0.6710  0.4598
 7699TIP3    H144588   4.486   6.314   2.300 -0.4049  1.8121  1.2435
 7699TIP3    H244589   4.430   6.359   2.167  0.1643  1.2797  0.8165
 7700TIP3   OH244590   1.038   1.528   5.079 -0.0110  0.2844  0.6546
 7700TIP3    H144591   1.011   1.615   5.048 -0.8268 -0.5993 -1.2624
 7700TIP3    H244592   0.972   1.503   5.143 -1.4605 -0.1096 -0.9375
 7701TIP3   OH244593   1.434   4.950   0.385  0.4176 -0.4298 -0.1738
 7701TIP3    H144594   1.431   5.027   0.327  0.5871 -0.3858 -0.1254
 7701TIP3    H244595   1.526   4.944   0.411  0.1721  0.1042  0.8338
 7702TIP3   OH244596   4.399   6.619  13.593  0.0538 -0.1980  0.0583
 7702TIP3    H144597   4.310   6.594  13.616  0.0995 -2.8617 -2.0830
 7702TIP3    H244598   4.445   6.536  13.582  1.6768  0.9235 -2.7809
 7703TIP3   OH244599   4.957   2.719  14.729 -0.0178 -0.2753 -0.2618
 7703TIP3    H144600   4.938   2.645  14.672  0.9678 -0.0458 -0.9109
 7703TIP3    H244601   4.874   2.766  14.735  0.1577  0.4627 -2.6595
 7704TIP3   OH244602   2.154   1.130  16.018 -0.5041  0.2996  0.6117
 7704TIP3    H144603   2.061   1.147  16.003 -0.7438 -0.7334  0.8472
 7704TIP3    H244604   2.179   1.190  16.088 -0.8930  0.8374  0.3028
 7705TIP3   OH244605   0.089   1.076   3.237  0.0477 -0.4589  0.3335
 7705TIP3    H144606   0.122   0.993   3.271  2.3812  0.7198  1.1378
 7705TIP3    H244607   0.014   1.096   3.293  0.5883 -1.1408  1.3472
 7706TIP3   OH244608   1.342   3.263   6.214 -0.5595  0.3603  0.2151
 7706TIP3    H144609   1.268   3.295   6.266 -0.2106  0.9129  0.3726
 7706TIP3    H244610   1.320   3.171   6.196 -0.4716  0.0209  1.7403
 7707TIP3   OH244611   1.157   0.439   4.911  0.1383 -0.0651 -0.5498
 7707TIP3    H144612   1.215   0.387   4.854  0.7214 -0.1474  0.1094
 7707TIP3    H244613   1.132   0.379   4.981 -0.3205  0.1334 -0.5410
 7708TIP3   OH244614   3.582   4.528  16.532 -0.1221  0.4327  0.9327
 7708TIP3    H144615   3.565   4.611  16.487 -0.2503  0.3024  0.7392
 7708TIP3    H244616   3.630   4.475  16.468  0.6549  0.6490  1.3351
 7709TIP3   OH244617   2.720   3.755   6.129  0.6757  0.1547  0.0278
 7709TIP3    H144618   2.634   3.715   6.140  0.5912  0.6207  1.2203
 7709TIP3    H244619   2.774   3.685   6.094 -0.2192 -0.1020 -0.8693
 7710TIP3   OH244620   5.338   3.770  10.754 -0.1910  0.3249  0.2943
 7710TIP3    H144621   5.331   3.706  10.824  0.2903 -1.2754 -1.0670
 7710TIP3    H244622   5.330   3.855  10.798  1.8242 -0.5372  2.5059
 7711TIP3   OH244623   5.324   2.985   1.526 -1.0448 -0.7672  0.4442
 7711TIP3    H144624   5.298   3.058   1.583  2.2520  0.0421  1.1316
 7711TIP3    H244625   5.267   2.913   1.552 -0.2671 -0.2065  4.3225
 7712TIP3   OH244626   5.243   3.414   4.375 -0.2357  0.4590  0.2044
 7712TIP3    H144627   5.172   3.420   4.312 -0.6273  0.8625  0.6724
 7712TIP3    H244628   5.203   3.441   4.458 -1.0505 -4.3306  1.6931
 7713TIP3   OH244629   5.515   3.101  12.321 -0.0795 -0.1860  0.2763
 7713TIP3    H144630   5.435   3.056  12.347  0.1029 -1.2560 -0.8965
 7713TIP3    H244631   5.572   3.095  12.398 -1.3397  1.2095  1.3789
 7714TIP3   OH244632   2.878   5.101  10.896 -0.2619 -0.6068 -0.0562
 7714TIP3    H144633   2.828   5.030  10.855  2.4674 -1.8444 -1.4781
 7714TIP3    H244634   2.882   5.169  10.829  1.0611 -1.1038 -0.5188
 7715TIP3   OH244635   3.419   6.450   2.384  0.3044  0.3017 -0.0430
 7715TIP3    H144636   3.390   6.500   2.307  0.5628  1.5657  0.6497
 7715TIP3    H244637   3.514   6.446   2.374  0.4832  1.6770  0.8865
 7716TIP3   OH244638   1.560   0.132  15.988 -0.3272  0.7185 -0.0814
 7716TIP3    H144639   1.614   0.120  15.910 -1.0396  1.2331 -0.6755
 7716TIP3    H244640   1.552   0.044  16.025 -0.0217  0.4549 -0.6213
 7717TIP3   OH244641   3.723   2.755  11.764  0.1995 -0.5765  0.2396
 7717TIP3    H144642   3.790   2.775  11.698  0.1499 -0.8578  0.1049
 7717TIP3    H244643   3.710   2.838  11.810  0.0478 -0.3155 -0.2728
 7718TIP3   OH244644   5.683   2.948  13.757  0.5580  0.7344  0.5250
 7718TIP3    H144645   5.616   3.011  13.784 -0.9667  0.2627 -1.8487
 7718TIP3    H244646   5.706   2.973  13.668  0.7748 -1.3290 -0.0608
 7719TIP3   OH244647   1.608   3.926   2.071  0.0587  0.7907  0.1948
 7719TIP3    H144648   1.682   3.877   2.036 -0.1538  1.1036 -0.6972
 7719TIP3    H244649   1.648   4.005   2.110  0.3229  0.2842  0.9762
 7720TIP3   OH244650   0.394   4.078   5.484 -0.1343  0.0728  0.9209
 7720TIP3    H144651   0.358   3.992   5.504 -0.6271  0.1850  0.5433
 7720TIP3    H244652   0.489   4.068   5.497 -0.3630  0.0399  2.9120
 7721TIP3   OH244653   5.400   4.906   4.026  0.0753 -0.5607 -0.3291
 7721TIP3    H144654   5.345   4.975   3.989  1.8133  0.5055 -1.0497
 7721TIP3    H244655   5.447   4.948   4.097 -0.4730 -1.6371  0.7178
 7722TIP3   OH244656   1.061   0.443  14.287 -0.0199  0.3028 -0.3453
 7722TIP3    H144657   0.975   0.406  14.305  0.6092 -1.7247 -1.2483
 7722TIP3    H244658   1.111   0.371  14.250  1.4362  1.9951 -1.8435
 7723TIP3   OH244659   6.414   2.994   0.843 -0.7535  0.1415  0.1795
 7723TIP3    H144660   6.420   3.048   0.764 -0.6808  1.4452  1.0398
 7723TIP3    H244661   6.441   2.907   0.815  2.6863  1.2836 -0.5573
 7724TIP3   OH244662   1.216   5.641  16.283 -0.0340 -0.1970 -0.2839
 7724TIP3    H144663   1.253   5.712  16.336 -0.4761  1.0215 -1.5499
 7724TIP3    H244664   1.145   5.607  16.337  0.7805 -0.3344  0.7463
 7725TIP3   OH244665   6.075   4.463  11.584 -0.3380 -0.5318 -0.5033
 7725TIP3    H144666   6.048   4.554  11.593  1.0823 -0.2779  2.4442
 7725TIP3    H244667   6.129   4.461  11.505  2.5923  2.1033  1.2098
 7726TIP3   OH244668   3.437   6.653   5.572  0.2861  0.5575 -0.4294
 7726TIP3    H144669   3.452   6.559   5.581  0.0598  0.6431  1.2448
 7726TIP3    H244670   3.444   6.670   5.478 -0.8326 -1.3093 -0.8885
 7727TIP3   OH244671   6.240   1.717   4.477  0.2633  0.0762  0.9597
 7727TIP3    H144672   6.314   1.681   4.428 -0.2865 -0.5348  0.5798
 7727TIP3    H244673   6.261   1.811   4.485  0.3099  0.2209 -0.5507
 7728TIP3   OH244674   2.791   2.470   5.955  0.3466 -0.2075 -0.2037
 7728TIP3    H144675   2.844   2.541   5.917  1.4050 -0.5005  0.6493
 7728TIP3    H244676   2.819   2.467   6.047  0.5915 -1.9532 -0.3063
 7729TIP3   OH244677   3.685   6.130  15.781  0.6004 -0.1163  0.1624
 7729TIP3    H144678   3.751   6.129  15.851  1.8408  2.9088 -0.7798
 7729TIP3    H244679   3.660   6.222  15.774 -0.7629 -0.5969 -2.2187
 7730TIP3   OH244680   2.121   5.304   6.433 -0.8595 -0.2712 -0.6245
 7730TIP3    H144681   2.110   5.373   6.499  1.2597 -0.3522 -0.1196
 7730TIP3    H244682   2.082   5.226   6.474 -2.1081  0.2910 -0.6765
 7731TIP3   OH244683   4.869   5.951  16.536 -0.2125 -0.1021  0.0226
 7731TIP3    H144684   4.959   5.978  16.518 -0.5898 -0.1577 -2.3010
 7731TIP3    H244685   4.821   6.033  16.544  0.1541 -0.0551  2.1979
 7732TIP3   OH244686   0.449   6.335   0.226  0.0105 -0.0287 -0.6995
 7732TIP3    H144687   0.417   6.418   0.263  0.7221 -0.4035  0.8311
 7732TIP3    H244688   0.420   6.269   0.289  1.5952 -0.6523 -0.5914
 7733TIP3   OH244689   0.232   4.053   2.737 -0.3061  0.4555  0.0854
 7733TIP3    H144690   0.279   4.092   2.663 -0.9226 -0.2735 -0.7097
 7733TIP3    H244691   0.146   4.031   2.702 -1.1149  1.3488  1.3983
 7734TIP3   OH244692   5.905   0.068   0.703 -0.7246  0.1865  0.4519
 7734TIP3    H144693   5.971   0.007   0.671  0.0241  1.7799 -1.2617
 7734TIP3    H244694   5.931   0.087   0.793 -0.9967 -1.9682  1.0407
 7735TIP3   OH244695   2.644   3.157  14.388 -0.0453 -0.2961 -0.7026
 7735TIP3    H144696   2.553   3.178  14.367 -0.0467 -1.6611 -2.2846
 7735TIP3    H244697   2.644   3.138  14.481 -1.2040  0.5482 -0.5134
 7736TIP3   OH244698   1.083   4.236  14.259 -0.3755 -0.1345  0.0939
 7736TIP3    H144699   1.107   4.318  14.301  1.5474 -0.3537 -0.4917
 7736TIP3    H244700   1.163   4.184  14.260 -0.6175 -0.6913 -2.5147
 7737TIP3   OH244701   5.762   6.102  12.245  0.1763  0.5233  0.1086
 7737TIP3    H144702   5.842   6.119  12.195 -1.4911 -0.7163 -3.2511
 7737TIP3    H244703   5.768   6.010  12.269 -0.6084  0.1425 -1.0468
 7738TIP3   OH244704   5.555   4.296   5.600  0.2912 -0.6362  0.0476
 7738TIP3    H144705   5.648   4.296   5.621  0.3880  0.0982 -0.3526
 7738TIP3    H244706   5.514   4.338   5.676  0.1771 -1.7393  0.6197
 7739TIP3   OH244707   4.021   6.147  13.764 -0.0365 -0.3012 -0.3744
 7739TIP3    H144708   4.027   6.165  13.670 -0.8116  2.7685  0.0421
 7739TIP3    H244709   4.111   6.153  13.796  0.0536  0.2258 -0.7167
 7740TIP3   OH244710   1.510   5.037   2.810 -0.4007 -0.1709 -0.0600
 7740TIP3    H144711   1.548   4.984   2.740 -1.4010  3.3377 -3.5309
 7740TIP3    H244712   1.585   5.083   2.848  0.0953 -1.8215  1.0823
 7741TIP3   OH244713   4.116   5.513  11.132  0.0740 -0.0171  0.3491
 7741TIP3    H144714   4.184   5.447  11.146 -0.5711 -0.7877 -0.1096
 7741TIP3    H244715   4.158   5.580  11.078  0.7584  0.0113  0.8978
 7742TIP3   OH244716   5.322   1.642   3.355  0.2579 -0.2296  1.0325
 7742TIP3    H144717   5.364   1.564   3.391 -0.2000  0.0304  2.1752
 7742TIP3    H244718   5.231   1.635   3.384  0.0080  0.2950  0.3974
 7743TIP3   OH244719   2.280   4.608   1.653 -0.2261  0.6522  0.0587
 7743TIP3    H144720   2.332   4.575   1.726 -0.9925 -1.7074 -0.3884
 7743TIP3    H244721   2.304   4.553   1.579 -2.6002  0.1037 -0.3890
 7744TIP3   OH244722   6.007   4.548   5.824 -0.3757 -0.2254 -0.7717
 7744TIP3    H144723   5.968   4.535   5.737 -1.0828 -0.8364 -0.3768
 7744TIP3    H244724   6.099   4.566   5.807 -0.0087 -2.5453 -1.5623
 7745TIP3   OH244725   1.838   3.068  14.224  0.5699  0.8198 -0.4609
 7745TIP3    H144726   1.814   2.985  14.265  0.4938  0.5985 -0.9449
 7745TIP3    H244727   1.754   3.109  14.203  0.5158  2.2547  2.1499
 7746TIP3   OH244728   6.356   4.658   4.917 -0.7645  0.3787 -0.0411
 7746TIP3    H144729   6.361   4.563   4.919 -3.8712  0.1145  1.0080
 7746TIP3    H244730   6.440   4.686   4.881  0.5296 -2.6890  0.2871
 7747TIP3   OH244731   4.693   0.544  16.580 -0.4861  0.1597  0.1566
 7747TIP3    H144732   4.775   0.539  16.531  0.3986 -0.6152  1.6454
 7747TIP3    H244733   4.641   0.609  16.533  0.2469 -0.6336 -1.8608
 7748TIP3   OH244734   0.354   2.592   5.817 -0.2956  0.7314 -0.5485
 7748TIP3    H144735   0.368   2.519   5.757 -1.5837  0.5067 -0.6016
 7748TIP3    H244736   0.274   2.569   5.865  1.0073  0.5981  1.7138
 7749TIP3   OH244737   0.174   2.177  11.051 -0.0928  0.1132  0.0090
 7749TIP3    H144738   0.156   2.256  11.000  0.0186  0.0859 -0.0717
 7749TIP3    H244739   0.208   2.114  10.988  1.0820  0.4346  0.3093
 7750TIP3   OH244740   5.399   6.108   4.860  0.0045  0.6830 -0.3940
 7750TIP3    H144741   5.419   6.040   4.924 -0.2621  1.3190  0.3785
 7750TIP3    H244742   5.338   6.167   4.905 -2.6604 -0.4718 -2.2053
 7751TIP3   OH244743   4.226   3.055  10.987 -0.1954  0.4931 -0.1201
 7751TIP3    H144744   4.281   3.075  11.063  0.7966 -0.0003 -0.6893
 7751TIP3    H244745   4.156   3.000  11.022 -1.0345  2.1003  0.8339
 7752TIP3   OH244746   3.162   5.977  14.357  0.3733 -0.5260  0.0840
 7752TIP3    H144747   3.163   6.066  14.390 -2.0688 -0.6651  0.7500
 7752TIP3    H244748   3.153   5.986  14.263  2.1190 -0.1251 -0.0844
 7753TIP3   OH244749   6.605   6.573   1.916 -0.0436 -0.0964  0.0976
 7753TIP3    H144750   6.684   6.623   1.896  1.3921 -2.1092  0.3722
 7753TIP3    H244751   6.613   6.550   2.008 -0.4865 -1.0739 -0.0912
 7754TIP3   OH244752   4.653   0.500   4.482 -0.1573 -0.0699  0.4673
 7754TIP3    H144753   4.565   0.509   4.444 -0.4898  0.8110  1.3860
 7754TIP3    H244754   4.700   0.578   4.451  0.2554 -0.4516  0.1205
 7755TIP3   OH244755   2.306   2.716  13.389 -0.2478  0.1314  0.3394
 7755TIP3    H144756   2.238   2.655  13.416 -2.2348  2.0061 -0.0882
 7755TIP3    H244757   2.311   2.780  13.460  1.4655 -0.2413  0.5882
 7756TIP3   OH244758   5.641   0.410   2.937 -0.2071 -0.1714  0.0662
 7756TIP3    H144759   5.690   0.329   2.929 -0.7610 -0.6725  1.4333
 7756TIP3    H244760   5.631   0.442   2.847  0.8053 -1.1256 -0.4028
 7757TIP3   OH244761   3.695   5.304   1.019  0.3667 -0.0160  0.3968
 7757TIP3    H144762   3.762   5.355   1.063  0.5048  0.6730 -0.5841
 7757TIP3    H244763   3.708   5.321   0.926 -0.9159 -0.1741  0.1640
 7758TIP3   OH244764   6.750   1.402   2.077 -0.2632  0.0176  0.3029
 7758TIP3    H144765   6.659   1.387   2.100  0.1288 -0.4793  1.6878
 7758TIP3    H244766   6.747   1.452   1.996 -1.7919  1.1388  0.9922
 7759TIP3   OH244767   0.093   2.518   5.872  0.4290  0.1359 -0.1926
 7759TIP3    H144768   0.078   2.424   5.859 -0.3028  0.2268 -0.0346
 7759TIP3    H244769   0.013   2.549   5.913  1.0930  0.6205  0.7759
 7760TIP3   OH244770   3.605   1.634  12.666 -0.2375 -0.5281  0.0862
 7760TIP3    H144771   3.590   1.711  12.721  1.8562 -0.1542  0.1987
 7760TIP3    H244772   3.535   1.638  12.601 -0.0913  1.5616 -0.0224
 7761TIP3   OH244773   4.986   1.016  11.513 -0.1755  0.4921  0.3514
 7761TIP3    H144774   5.007   0.975  11.597  0.7289 -1.1006 -0.5997
 7761TIP3    H244775   5.005   1.109  11.526  0.7476  0.1489  1.6590
 7762TIP3   OH244776   5.353   6.356  12.761 -0.2558 -0.6698  0.0083
 7762TIP3    H144777   5.301   6.311  12.694 -2.1235 -0.1091  1.0268
 7762TIP3    H244778   5.345   6.448  12.738  0.6621 -0.6019 -0.0571
 7763TIP3   OH244779   4.636   4.205  11.232 -0.1062  0.0620 -0.1015
 7763TIP3    H144780   4.697   4.266  11.274 -0.5787  0.4522  0.0132
 7763TIP3    H244781   4.678   4.183  11.149 -0.3566  1.2403 -0.5486
 7764TIP3   OH244782   2.581   6.106   4.962 -0.3994 -0.3631  0.2059
 7764TIP3    H144783   2.609   6.197   4.972  0.8482 -0.6013 -0.8645
 7764TIP3    H244784   2.488   6.112   4.943 -0.8524  0.5497  2.4148
 7765TIP3   OH244785   3.682   2.653   5.496 -0.6200  0.1965 -0.8426
 7765TIP3    H144786   3.613   2.586   5.499 -1.3424  0.9324 -0.4855
 7765TIP3    H244787   3.760   2.609   5.530 -1.4739 -0.0306  0.9551
 7766TIP3   OH244788   2.978   1.307  16.389 -0.2630 -0.2820  0.3342
 7766TIP3    H144789   2.929   1.317  16.308  0.6996  3.9799  0.0532
 7766TIP3    H244790   3.070   1.308  16.362  0.1222  2.8533  1.4362
 7767TIP3   OH244791   3.408   2.510  15.233  0.2735  0.3420  0.3535
 7767TIP3    H144792   3.447   2.528  15.148 -0.8935 -1.1204 -0.5475
 7767TIP3    H244793   3.462   2.560  15.295  1.7121  0.7243 -1.1170
 7768TIP3   OH244794   2.930   3.455   3.910  0.7863 -0.2419  0.3767
 7768TIP3    H144795   2.852   3.508   3.929  0.2198 -0.1907 -1.7436
 7768TIP3    H244796   2.896   3.366   3.899  1.2772 -0.5041  0.9270
 7769TIP3   OH244797   1.612   2.699  12.467  1.0343 -0.2923  0.1051
 7769TIP3    H144798   1.686   2.641  12.452  2.0083  0.9165  0.1275
 7769TIP3    H244799   1.650   2.786  12.475 -0.5582  0.7220 -2.2068
 7770TIP3   OH244800   5.025   3.689  14.313 -0.0911  0.4034  0.1102
 7770TIP3    H144801   5.104   3.739  14.293  1.0498 -1.0025  0.8544
 7770TIP3    H244802   5.057   3.616  14.366 -1.8565 -0.4116  0.1027
 7771TIP3   OH244803   0.333   3.326   2.059 -0.2776  0.5055 -0.0579
 7771TIP3    H144804   0.407   3.279   2.022 -0.2511  0.7688 -0.3474
 7771TIP3    H244805   0.310   3.278   2.139 -0.7542 -0.4547 -0.7550
 7772TIP3   OH244806   0.102   4.457  15.221 -0.2844 -0.8709 -0.6403
 7772TIP3    H144807   0.076   4.428  15.308 -0.5691  1.2353  0.0170
 7772TIP3    H244808   0.175   4.400  15.197  2.7553  1.2191  2.8141
 7773TIP3   OH244809   1.690   6.054  13.447 -0.5846 -0.3550 -0.0382
 7773TIP3    H144810   1.755   6.078  13.513 -0.3524 -1.0534 -0.0039
 7773TIP3    H244811   1.619   6.116  13.459  0.1332  0.5099 -0.1546
 7774TIP3   OH244812   4.235   2.271   1.357  0.1513  0.6057  0.0740
 7774TIP3    H144813   4.202   2.190   1.394 -0.8462  0.6050 -0.7662
 7774TIP3    H244814   4.202   2.340   1.415  0.3485  0.4651  0.3520
 7775TIP3   OH244815   1.309   5.597   0.700  0.2931  0.2453  0.1987
 7775TIP3    H144816   1.355   5.526   0.655  2.1048  0.1562  2.0365
 7775TIP3    H244817   1.329   5.675   0.649  0.6275 -0.1436 -0.2780
 7776TIP3   OH244818   0.089   0.490  14.825 -0.0505  0.3155  0.5497
 7776TIP3    H144819   0.068   0.462  14.914  0.0581  0.1628  0.5282
 7776TIP3    H244820   0.123   0.579  14.835  0.9306 -0.0780  0.7748
 7777TIP3   OH244821   0.790   6.331  17.095  0.8299  0.2348 -0.2561
 7777TIP3    H144822   0.737   6.306  17.171  0.2161  0.0332 -0.7409
 7777TIP3    H244823   0.726   6.363  17.031  1.2074 -0.6928 -1.1234
 7778TIP3   OH244824   5.958   2.240   3.728 -0.2195  0.3530  0.0186
 7778TIP3    H144825   5.939   2.149   3.706 -0.1472 -0.3218  2.4885
 7778TIP3    H244826   6.032   2.236   3.789  0.9627  2.2201 -1.1784
 7779TIP3   OH244827   5.424   1.239  16.554  0.1318  0.4914  0.2100
 7779TIP3    H144828   5.505   1.188  16.545  0.0083  0.5375 -1.3854
 7779TIP3    H244829   5.357   1.187  16.510  0.0084  1.9671 -1.4694
 7780TIP3   OH244830   0.312   1.977  16.419 -0.2914  0.5187  0.1920
 7780TIP3    H144831   0.242   1.927  16.460 -0.0883 -0.8173 -1.0187
 7780TIP3    H244832   0.357   2.019  16.492  0.0464 -1.7532  1.3687
 7781TIP3   OH244833   2.661   2.718   4.358  0.6198 -0.2488 -0.3603
 7781TIP3    H144834   2.579   2.712   4.406  0.4674 -0.0734 -0.5946
 7781TIP3    H244835   2.717   2.651   4.397  0.0658 -0.9716 -0.7710
 7782TIP3   OH244836   3.157   5.688   6.211  0.0036 -0.4640 -0.1020
 7782TIP3    H144837   3.138   5.770   6.257  0.6024  0.2840 -1.1453
 7782TIP3    H244838   3.071   5.648   6.197 -0.1649 -1.0930  2.2691
 7783TIP3   OH244839   5.423   4.260  16.965 -0.1469 -0.4995 -0.0070
 7783TIP3    H144840   5.509   4.276  16.926 -0.1728  0.2900  0.2403
 7783TIP3    H244841   5.410   4.334  17.024 -1.6727  0.2577 -1.2141
 7784TIP3   OH244842   3.849   6.214  10.821 -0.5985  0.0665  0.4964
 7784TIP3    H144843   3.881   6.125  10.837  0.4067  0.5039  0.9788
 7784TIP3    H244844   3.767   6.201  10.774  0.3955 -1.0950 -1.0243
 7785TIP3   OH244845   1.035   2.265   6.138  0.3592  0.5410  0.3567
 7785TIP3    H144846   1.043   2.229   6.050 -0.0978 -2.1878  1.3185
 7785TIP3    H244847   1.044   2.359   6.127 -0.0854  0.3258 -2.6463
 7786TIP3   OH244848   6.237   6.055   4.868 -0.0112  0.3506 -0.1367
 7786TIP3    H144849   6.264   6.147   4.862 -0.5820  0.6365  1.3291
 7786TIP3    H244850   6.141   6.058   4.858 -0.0719 -0.0416  0.2935
 7787TIP3   OH244851   4.077   1.751   5.080  0.9133 -0.2180  0.5114
 7787TIP3    H144852   4.123   1.822   5.124  2.7782 -0.8551 -0.3244
 7787TIP3    H244853   4.050   1.692   5.151  3.3014 -0.9047  0.9347
 7788TIP3   OH244854   2.001   2.092  12.759  0.2160  0.2286 -0.1371
 7788TIP3    H144855   2.079   2.089  12.815  1.0208 -1.9140 -1.2533
 7788TIP3    H244856   2.019   2.163  12.697  1.0004  0.1699  0.0090
 7789TIP3   OH244857   2.706   1.921  10.860 -0.0105  0.3695 -0.1678
 7789TIP3    H144858   2.711   1.935  10.765 -0.7223  1.7183 -0.0227
 7789TIP3    H244859   2.789   1.877  10.882 -0.4023 -1.1850 -1.5956
 7790TIP3   OH244860   6.674   6.627  16.306  0.1235  0.1865 -0.0669
 7790TIP3    H144861   6.593   6.612  16.258 -0.9598  1.3330  1.3068
 7790TIP3    H244862   6.650   6.617  16.398  1.7651 -0.3840  0.3371
 7791TIP3   OH244863   5.710   0.405   3.236 -0.3867  0.4168  0.2785
 7791TIP3    H144864   5.638   0.364   3.187 -0.5000 -0.6063  1.2616
 7791TIP3    H244865   5.684   0.397   3.327 -0.7269  3.3298  0.5103
 7792TIP3   OH244866   5.871   3.790   5.842 -0.2795  0.1818 -0.1445
 7792TIP3    H144867   5.911   3.864   5.796 -1.1728  0.8645  0.1449
 7792TIP3    H244868   5.901   3.799   5.933 -1.1023  0.7264  0.0847
 7793TIP3   OH244869   2.809   2.005   4.228 -0.2979 -0.1414 -0.4412
 7793TIP3    H144870   2.769   1.988   4.143  0.0636 -0.3909 -0.5653
 7793TIP3    H244871   2.764   2.082   4.262 -0.7443 -0.3063 -0.6632
 7794TIP3   OH244872   1.818   6.422   0.908 -0.1139 -0.1211 -0.0853
 7794TIP3    H144873   1.894   6.431   0.852 -0.2623 -0.9321 -0.4344
 7794TIP3    H244874   1.770   6.504   0.897  0.0424 -0.1296 -0.8683
 7795TIP3   OH244875   1.003   2.146  11.423  0.4236  0.3628 -0.8199
 7795TIP3    H144876   0.993   2.055  11.395  0.0877  0.4171 -0.8811
 7795TIP3    H244877   0.922   2.189  11.395  0.0463  0.4091  0.2803
 7796TIP3   OH244878   0.861   1.779  10.701  0.2089  0.0019 -0.3336
 7796TIP3    H144879   0.828   1.858  10.658 -1.8897  0.8701  2.5795
 7796TIP3    H244880   0.895   1.810  10.785 -0.9608 -2.2022  1.0408
 7797TIP3   OH244881   3.489   3.685  16.151 -0.2174  0.1196  0.3515
 7797TIP3    H144882   3.459   3.609  16.202 -0.0505 -0.5045 -0.4537
 7797TIP3    H244883   3.470   3.760  16.207 -0.7321 -0.4834  1.0142
 7798TIP3   OH244884   3.311   5.560   3.678 -0.5959 -0.1690 -0.5751
 7798TIP3    H144885   3.323   5.632   3.616 -0.6276 -0.4492 -0.9068
 7798TIP3    H244886   3.256   5.597   3.747 -1.4014 -0.1448 -1.2121
 7799TIP3   OH244887   0.876   5.677  12.313 -0.1648 -0.2343 -0.3146
 7799TIP3    H144888   0.846   5.679  12.223 -3.2894 -0.1027  0.6286
 7799TIP3    H244889   0.860   5.766  12.346  1.1701 -0.2060  0.3419
 7800TIP3   OH244890   4.533   3.879   5.338  0.5830 -0.4063  0.0657
 7800TIP3    H144891   4.570   3.874   5.426  0.5030 -1.3890  0.0530
 7800TIP3    H244892   4.607   3.901   5.282  0.4481  1.2707  0.4842
 7801TIP3   OH244893   2.280   5.319  16.919  0.4413 -0.5887 -1.1599
 7801TIP3    H144894   2.185   5.307  16.911  0.2842  0.2520 -0.6012
 7801TIP3    H244895   2.294   5.351  17.008  1.2046 -0.2640 -1.3822
 7802TIP3   OH244896   1.811   3.398   4.958 -0.1861  0.3486  0.3837
 7802TIP3    H144897   1.816   3.430   4.868 -2.4888  0.3748  0.1843
 7802TIP3    H244898   1.766   3.313   4.950  2.0500 -1.0219  1.2964
 7803TIP3   OH244899   3.607   0.350  12.859 -0.7917  0.0094 -0.5983
 7803TIP3    H144900   3.631   0.443  12.853  2.4294 -0.6300  0.4363
 7803TIP3    H244901   3.645   0.321  12.942 -1.6817 -2.2610 -0.9241
 7804TIP3   OH244902   2.154   0.628   2.790 -0.1395 -0.0495 -0.0201
 7804TIP3    H144903   2.141   0.534   2.797 -0.1522 -0.0638 -0.2161
 7804TIP3    H244904   2.219   0.649   2.857 -0.2839 -0.1658  0.1572
 7805TIP3   OH244905   0.247   5.019   3.325  0.6307 -0.1264 -0.3590
 7805TIP3    H144906   0.274   5.083   3.391  0.2834 -0.6908  0.3407
 7805TIP3    H244907   0.250   4.935   3.370  0.8072 -0.5801 -1.1893
 7806TIP3   OH244908   1.292   3.809   4.777 -0.1383 -0.0522  0.2815
 7806TIP3    H144909   1.277   3.718   4.751 -0.5978 -0.1793  0.9665
 7806TIP3    H244910   1.325   3.803   4.866 -0.6647  0.4788  0.5145
 7807TIP3   OH244911   2.633   3.781  12.971  0.1782  0.3552 -0.3567
 7807TIP3    H144912   2.627   3.807  13.063  0.8963 -1.6486  0.3203
 7807TIP3    H244913   2.627   3.685  12.973 -2.3177  0.3452 -2.6407
 7808TIP3   OH244914   3.652   4.494   0.359  0.0816 -0.2234  0.2943
 7808TIP3    H144915   3.624   4.494   0.450 -0.3256 -1.2546  0.1810
 7808TIP3    H244916   3.601   4.563   0.317 -3.4735 -2.8817 -0.2204
 7809TIP3   OH244917   0.537   6.626  12.032  0.2939 -0.2518  0.9304
 7809TIP3    H144918   0.574   6.559  11.974  1.7279  1.6365 -0.4776
 7809TIP3    H244919   0.609   6.689  12.044 -0.4858  0.2480  3.5016
 7810TIP3   OH244920   2.577   2.385   6.744 -0.0732  0.6815 -0.5058
 7810TIP3    H144921   2.510   2.386   6.812 -1.2654 -1.6110 -1.5303
 7810TIP3    H244922   2.553   2.457   6.685  0.0206  1.6259  0.5730
 7811TIP3   OH244923   4.815   2.855   1.297 -0.2125 -0.2863 -0.4818
 7811TIP3    H144924   4.746   2.911   1.335 -0.6627  0.3020 -2.0743
 7811TIP3    H244925   4.768   2.793   1.242  0.4480 -0.7931 -0.4851
 7812TIP3   OH244926   4.591   0.754  16.469 -0.1507  0.3079 -0.5361
 7812TIP3    H144927   4.550   0.768  16.554 -2.0975  0.0734 -1.3889
 7812TIP3    H244928   4.605   0.842  16.434  0.1187  0.3884 -0.2346
 7813TIP3   OH244929   2.388   3.133  11.792  0.2102  0.6615 -0.0249
 7813TIP3    H144930   2.309   3.185  11.781  0.4847  1.3537  1.0203
 7813TIP3    H244931   2.388   3.072  11.719 -2.6417 -1.1441  1.3024
 7814TIP3   OH244932   3.926   3.925  11.197  0.1890 -0.3831  0.6636
 7814TIP3    H144933   3.988   3.970  11.140  0.6404  1.1408  2.2680
 7814TIP3    H244934   3.840   3.945  11.160  0.3544  2.0785  1.4410
 7815TIP3   OH244935   4.845   4.227   0.576  0.4312 -0.5701  0.3501
 7815TIP3    H144936   4.842   4.178   0.494  1.8355  1.1113 -0.7624
 7815TIP3    H244937   4.835   4.318   0.550 -0.3514 -0.0876  2.2007
 7816TIP3   OH244938   1.851   3.416   3.868 -0.4626  0.2619 -0.2093
 7816TIP3    H144939   1.756   3.429   3.878 -0.3760  0.9035 -0.1707
 7816TIP3    H244940   1.875   3.364   3.944 -0.9890 -1.0234 -0.8890
 7817TIP3   OH244941   4.362   2.407  15.521 -0.0699  0.5390  0.2151
 7817TIP3    H144942   4.438   2.387  15.467  0.2739 -1.9980  1.4921
 7817TIP3    H244943   4.386   2.486  15.569  1.5794  0.0401  0.2572
 7818TIP3   OH244944   2.073   3.339  16.748 -0.5794 -0.1239 -0.1181
 7818TIP3    H144945   2.139   3.274  16.723 -0.6413  0.1109 -0.9019
 7818TIP3    H244946   2.123   3.419  16.764 -0.4226 -0.4986  1.4882
 7819TIP3   OH244947   2.261   5.907  12.587 -0.3968  0.0897 -0.4879
 7819TIP3    H144948   2.296   5.819  12.576 -0.4960  0.1821 -1.6473
 7819TIP3    H244949   2.323   5.963  12.541  0.4665  0.8329  1.4556
 7820TIP3   OH244950   2.551   3.111   4.902 -0.3865 -0.5882  0.1184
 7820TIP3    H144951   2.518   3.029   4.939  0.4224 -0.4388  1.2194
 7820TIP3    H244952   2.616   3.084   4.837  3.5841 -0.9466  3.8524
 7821TIP3   OH244953   2.972   3.122  16.670  0.0435  0.0350  0.1018
 7821TIP3    H144954   2.930   3.208  16.669 -2.1968 -0.8833  2.3768
 7821TIP3    H244955   2.970   3.094  16.579  1.7601  2.7189 -0.8898
 7822TIP3   OH244956   4.488   3.583  15.065  0.3640 -0.4168  0.1877
 7822TIP3    H144957   4.569   3.540  15.093  2.4822  2.7798 -0.4531
 7822TIP3    H244958   4.460   3.632  15.142  0.5998  0.6006 -0.3609
 7823TIP3   OH244959   3.597   6.122  14.225  0.0886  0.7241 -0.1996
 7823TIP3    H144960   3.585   6.091  14.315 -0.2300 -0.8441 -0.7514
 7823TIP3    H244961   3.509   6.126  14.189  0.1067  2.4009 -0.1514
 7824TIP3   OH244962   2.170   5.860   0.771 -0.3128 -0.1602 -0.0822
 7824TIP3    H144963   2.086   5.901   0.750 -1.5657 -1.5457  1.8624
 7824TIP3    H244964   2.153   5.766   0.769  1.5801 -0.5402 -0.9968
 7825TIP3   OH244965   4.768   1.144  15.916 -0.1750  0.3346 -0.1554
 7825TIP3    H144966   4.750   1.050  15.921  1.0994  0.0507 -0.4664
 7825TIP3    H244967   4.828   1.160  15.989 -0.4861  0.9455 -0.0241
 7826TIP3   OH244968   3.013   0.561   6.035 -0.6207  0.2885  0.7929
 7826TIP3    H144969   3.082   0.497   6.052 -1.7526 -1.5227 -0.9191
 7826TIP3    H244970   3.055   0.629   5.982  0.1269 -0.1633  0.7936
 7827TIP3   OH244971   5.287   3.033   4.848  0.0749 -0.1432 -0.4186
 7827TIP3    H144972   5.294   3.043   4.943  1.0624 -0.4364 -0.4501
 7827TIP3    H244973   5.294   3.122   4.814 -0.8103  0.0219 -0.2013
 7828TIP3   OH244974   0.735   4.634   5.963 -0.4806 -0.2962  0.4562
 7828TIP3    H144975   0.756   4.726   5.972 -1.6136  0.3217 -2.1761
 7828TIP3    H244976   0.819   4.589   5.966  0.4561  1.2043 -1.4875
 7829TIP3   OH244977   6.651   6.562   3.496 -0.1054  0.2813  0.5978
 7829TIP3    H144978   6.608   6.491   3.448 -0.2898 -0.0104  1.1873
 7829TIP3    H244979   6.629   6.641   3.446  0.4984 -0.1155 -0.3387
 7830TIP3   OH244980   4.656   4.105  14.072  0.0761  0.2064  0.2363
 7830TIP3    H144981   4.569   4.072  14.094  0.7642 -0.8671  1.5277
 7830TIP3    H244982   4.714   4.030  14.088  1.2270  0.8583 -0.7327
 7831TIP3   OH244983   6.510   0.539   3.241  0.2724  0.1011  0.3760
 7831TIP3    H144984   6.603   0.538   3.217 -0.1247  0.9913 -1.4210
 7831TIP3    H244985   6.499   0.620   3.289  0.6393 -0.6024  1.6883
 7832TIP3   OH244986   5.652   0.616   0.156 -0.3353  0.0685  0.8612
 7832TIP3    H144987   5.601   0.651   0.083  1.1249  1.1491  0.3141
 7832TIP3    H244988   5.735   0.590   0.118  0.1483 -0.1106  1.9953
 7833TIP3   OH244989   1.769   5.377  14.155  0.0635  0.4071 -0.1201
 7833TIP3    H144990   1.706   5.439  14.192  0.4337  1.3532 -1.0087
 7833TIP3    H244991   1.761   5.390  14.060  1.4649  0.4138 -0.2464
 7834TIP3   OH244992   4.754   4.230   0.270 -0.2377 -0.0351 -0.6575
 7834TIP3    H144993   4.722   4.247   0.182  1.3393  0.3027 -1.1964
 7834TIP3    H244994   4.808   4.152   0.261 -0.5145 -0.3264  0.1354
 7835TIP3   OH244995   2.373   5.509   6.374 -0.4392  0.8408 -0.4585
 7835TIP3    H144996   2.300   5.507   6.436  0.4776 -2.3142  0.7193
 7835TIP3    H244997   2.337   5.471   6.294 -0.1818 -0.4786  0.0398
 7836TIP3   OH244998   5.631   2.720   2.501 -0.0847  0.0157 -0.3938
 7836TIP3    H144999   5.678   2.637   2.495  1.5703  0.9027 -0.2664
 7836TIP3    H245000   5.672   2.776   2.436 -0.9778  0.8489 -0.2692
 7837TIP3   OH245001   5.564   5.105   2.068  0.2298  0.0425 -0.4124
 7837TIP3    H145002   5.469   5.094   2.063  0.1077  1.5602 -3.2212
 7837TIP3    H245003   5.579   5.142   2.155 -1.5611 -1.4342  0.5876
 7838TIP3   OH245004   1.702   4.328  15.188  0.4343  0.5967 -0.1689
 7838TIP3    H145005   1.640   4.349  15.259 -0.5576  0.6286 -1.0133
 7838TIP3    H245006   1.673   4.382  15.115  0.9486 -0.0316 -0.8452
 7839TIP3   OH245007   5.831   0.835   0.323  0.3088  0.3048 -0.6834
 7839TIP3    H145008   5.915   0.846   0.277  1.0432  1.9372  0.9108
 7839TIP3    H245009   5.766   0.875   0.265  1.4014  3.5407  0.1296
 7840TIP3   OH245010   3.052   4.709  15.901 -0.1883 -0.1557  0.3710
 7840TIP3    H145011   2.990   4.758  15.847 -0.4730 -1.6311 -0.6953
 7840TIP3    H245012   2.997   4.656  15.959  0.0813  2.2816  3.0974
 7841TIP3   OH245013   1.335   3.150  11.194  0.1984 -0.1501  0.0736
 7841TIP3    H145014   1.356   3.166  11.102 -0.2984 -1.6832 -0.3418
 7841TIP3    H245015   1.300   3.061  11.195 -1.4271  0.4611  1.5048
 7842TIP3   OH245016   0.080   4.892  11.311 -0.3499  0.4145 -0.1782
 7842TIP3    H145017   0.091   4.891  11.216 -0.9274 -1.4446 -0.2684
 7842TIP3    H245018   0.155   4.844  11.345 -0.2669  0.8703  0.3000
 7843TIP3   OH245019   5.969   0.458   6.832 -0.1310  0.2253 -0.1582
 7843TIP3    H145020   5.937   0.369   6.816 -1.3549  0.9883 -2.2243
 7843TIP3    H245021   6.037   0.446   6.899 -1.0499 -2.1015  0.4803
 7844TIP3   OH245022   6.697   0.712  11.788 -0.3575  0.0703  0.2488
 7844TIP3    H145023   6.657   0.783  11.737  1.9798  0.0374 -1.7916
 7844TIP3    H245024   6.780   0.747  11.818 -0.5674 -0.7943  1.9943
 7845TIP3   OH245025   6.681   4.257  12.865 -0.2090 -0.0927 -0.8631
 7845TIP3    H145026   6.666   4.351  12.861  0.7759  0.1454  0.5477
 7845TIP3    H245027   6.776   4.247  12.851 -0.1039 -0.7575  0.2093
 7846TIP3   OH245028   0.281   1.994  12.303  0.0247  0.2532 -0.0213
 7846TIP3    H145029   0.253   2.063  12.364  0.2727  0.0089  0.3734
 7846TIP3    H245030   0.243   1.914  12.338  1.0053 -0.0429  0.3884
 7847TIP3   OH245031   6.372   1.836   5.105  0.4293 -0.3200 -0.2082
 7847TIP3    H145032   6.309   1.778   5.147  2.0547 -2.0785 -0.0743
 7847TIP3    H245033   6.458   1.798   5.126  1.6620  2.6290  0.6303
 7848TIP3   OH245034   0.562   1.644  12.842 -0.4162 -0.0553  0.7153
 7848TIP3    H145035   0.608   1.584  12.900 -0.9819 -0.0799  1.1492
 7848TIP3    H245036   0.479   1.600  12.821 -0.4786  0.2150  0.3834
 7849TIP3   OH245037   3.007   4.090  12.130 -0.3109 -0.2964 -0.3615
 7849TIP3    H145038   2.976   4.106  12.041  0.1486 -1.9390 -0.8410
 7849TIP3    H245039   3.047   4.173  12.157 -2.6947  1.0767 -0.6855
 7850TIP3   OH245040   6.215   5.865   1.300 -0.4676  0.3561 -0.0864
 7850TIP3    H145041   6.159   5.917   1.242 -0.4935  1.6128  1.0263
 7850TIP3    H245042   6.176   5.777   1.298 -1.4512  0.7894 -0.6761
 7851TIP3   OH245043   3.382   0.199   2.604  0.1106  0.5724 -0.5178
 7851TIP3    H145044   3.418   0.110   2.597  2.3341  1.3477  0.1328
 7851TIP3    H245045   3.398   0.238   2.518 -2.6276 -0.1848 -1.4655
 7852TIP3   OH245046   5.258   1.910  13.757 -0.2769  0.5800  0.4962
 7852TIP3    H145047   5.172   1.918  13.799 -1.4190 -0.0246 -1.5837
 7852TIP3    H245048   5.260   1.980  13.693  1.0962  0.9965  0.9510
 7853TIP3   OH245049   4.113   4.989  14.312  0.0127 -0.6148 -0.3952
 7853TIP3    H145050   4.071   5.058  14.261 -1.3445 -0.7449  0.5032
 7853TIP3    H245051   4.186   5.032  14.355  2.2237 -0.8150 -3.5942
 7854TIP3   OH245052   4.664   2.423  15.519  0.3691 -0.0200  0.0190
 7854TIP3    H145053   4.687   2.513  15.500 -1.8127  0.2258 -1.8410
 7854TIP3    H245054   4.743   2.386  15.560  1.9968  2.1653 -0.9456
 7855TIP3   OH245055   1.797   4.953  11.292 -0.1476  0.1778  0.3454
 7855TIP3    H145056   1.788   4.862  11.263 -0.5912  0.1810  0.4542
 7855TIP3    H245057   1.772   5.005  11.216  0.4565  0.2161  0.1707
 7856TIP3   OH245058   6.672   0.491  15.639 -0.2401 -0.0613 -0.0341
 7856TIP3    H145059   6.652   0.479  15.546 -0.1654  2.7036 -0.4676
 7856TIP3    H245060   6.739   0.559  15.641  0.6637 -0.9236  2.0190
 7857TIP3   OH245061   2.117   1.863   6.947  0.3720  0.4877  0.4090
 7857TIP3    H145062   2.115   1.768   6.951 -0.6838  0.4498 -0.6197
 7857TIP3    H245063   2.122   1.883   6.853  1.1722  1.4431  0.6388
 7858TIP3   OH245064   4.650   2.346  13.111  0.3528 -0.1849  0.5626
 7858TIP3    H145065   4.578   2.338  13.174 -1.7223  0.3000 -1.6302
 7858TIP3    H245066   4.676   2.256  13.094  0.6570 -0.3447  1.7231
 7859TIP3   OH245067   3.200   0.776   0.810  0.5550 -0.1248 -0.9732
 7859TIP3    H145068   3.219   0.763   0.903 -0.0987 -1.0794 -0.9587
 7859TIP3    H245069   3.167   0.865   0.804  1.0344  0.0979 -0.3568
 7860TIP3   OH245070   6.702   2.615   1.420  0.2964  0.5251 -0.4941
 7860TIP3    H145071   6.617   2.571   1.421  0.2420  0.5121 -2.1262
 7860TIP3    H245072   6.687   2.695   1.370  1.1663  0.6902 -0.5130
 7861TIP3   OH245073   5.558   3.823  16.703 -0.2182 -0.3396  0.1629
 7861TIP3    H145074   5.577   3.908  16.663 -0.2465 -0.0599  0.7434
 7861TIP3    H245075   5.470   3.833  16.739  0.8147  0.3365  2.7285
 7862TIP3   OH245076   0.611   3.145   3.494  0.1711  0.1360  0.3280
 7862TIP3    H145077   0.683   3.208   3.487  1.0995 -0.8741  0.6438
 7862TIP3    H245078   0.653   3.060   3.500 -1.0715 -0.5453 -0.1891
 7863TIP3   OH245079   4.855   4.221   2.863 -0.2941 -0.0339 -0.4263
 7863TIP3    H145080   4.949   4.236   2.874 -0.4428  1.6397 -1.1461
 7863TIP3    H245081   4.845   4.126   2.869  1.7843 -0.5021 -2.6163
 7864TIP3   OH245082   6.023   3.895  15.159 -0.3094 -0.0929  0.1450
 7864TIP3    H145083   5.940   3.913  15.116 -0.1195 -1.3228 -0.8206
 7864TIP3    H245084   6.066   3.831  15.101  1.2307  0.3962  0.6976
 7865TIP3   OH245085   3.407   1.872   4.449  0.2201  0.2728 -0.2391
 7865TIP3    H145086   3.446   1.952   4.414 -0.4884  1.3028  1.2566
 7865TIP3    H245087   3.347   1.901   4.517 -1.2985 -1.4258 -0.7528
 7866TIP3   OH245088   0.221   0.328  12.604 -0.2293 -0.3371  0.2894
 7866TIP3    H145089   0.170   0.355  12.528  1.4025  0.8748 -0.4394
 7866TIP3    H245090   0.256   0.242  12.580  2.8326  1.3083 -1.8013
 7867TIP3   OH245091   4.366   1.509   6.116 -0.1273 -0.2627 -0.4597
 7867TIP3    H145092   4.368   1.585   6.057  1.2264  0.5529  0.5968
 7867TIP3    H245093   4.275   1.504   6.145 -0.0296  1.6569  0.3174
 7868TIP3   OH245094   5.082   6.010   5.646 -0.1932 -0.0566 -0.0414
 7868TIP3    H145095   5.044   5.982   5.729  2.0982  0.2120  1.1823
 7868TIP3    H245096   5.060   6.103   5.640 -1.8862 -0.4648 -0.6697
 7869TIP3   OH245097   6.702   4.006  13.624  0.0153  0.1010 -0.3322
 7869TIP3    H145098   6.693   3.918  13.587 -1.1472 -0.1250  0.4115
 7869TIP3    H245099   6.795   4.025  13.621  0.0861 -0.3897 -2.2439
 7870TIP3   OH245100   0.422   6.254   5.307 -0.0379 -0.4302 -0.0354
 7870TIP3    H145101   0.366   6.257   5.384 -0.9908  1.3150 -0.7328
 7870TIP3    H245102   0.451   6.163   5.301 -2.1158 -1.2051  0.8339
 7871TIP3   OH245103   1.654   4.969  14.953 -0.2574  0.2346 -0.0870
 7871TIP3    H145104   1.617   4.900  14.898  0.9427 -0.6684  0.1886
 7871TIP3    H245105   1.703   5.025  14.892 -2.0228  1.4642 -0.4600
 7872TIP3   OH245106   4.989   6.280   3.712 -0.0809 -0.3240 -0.0480
 7872TIP3    H145107   4.987   6.374   3.729 -1.2575 -0.0211 -1.6964
 7872TIP3    H245108   4.909   6.246   3.752  0.8640 -0.8549  1.5072
 7873TIP3   OH245109   4.266   3.550   1.793 -0.1292 -0.4162  0.6939
 7873TIP3    H145110   4.260   3.541   1.698 -2.3629 -0.3086  0.7731
 7873TIP3    H245111   4.310   3.634   1.807 -0.1356 -0.2467 -0.2431
 7874TIP3   OH245112   3.317   5.912   4.141  0.2185  0.1810 -0.3997
 7874TIP3    H145113   3.316   6.004   4.168 -0.6507  0.1711 -0.3717
 7874TIP3    H245114   3.370   5.911   4.061 -2.3113  1.2859 -2.2511
 7875TIP3   OH245115   2.373   1.657  16.274 -0.2252 -0.5081  0.0318
 7875TIP3    H145116   2.401   1.698  16.192 -0.3088 -1.1774 -0.3399
 7875TIP3    H245117   2.293   1.704  16.298 -0.0498 -0.1259 -0.1197
 7876TIP3   OH245118   2.954   2.984  12.030 -0.6920  0.5215 -0.1642
 7876TIP3    H145119   2.904   3.043  11.974  0.5954  0.0553 -1.8706
 7876TIP3    H245120   3.038   3.028  12.042 -0.7279  0.3186  0.9185
 7877TIP3   OH245121   4.967   0.825  14.226  0.3953 -0.0067  0.0041
 7877TIP3    H145122   4.972   0.884  14.302  0.5809  1.7478 -1.3085
 7877TIP3    H245123   4.959   0.737  14.264  2.8246  0.5604  2.0781
 7878TIP3   OH245124   1.025   0.875  11.762 -1.1666 -0.2095  0.0496
 7878TIP3    H145125   1.081   0.939  11.805  0.3601 -0.2362 -1.8010
 7878TIP3    H245126   0.985   0.826  11.834  1.3576 -0.3473  1.4396
 7879TIP3   OH245127   4.976   5.989   4.687  0.0740 -0.1221 -0.3930
 7879TIP3    H145128   4.947   6.073   4.651 -0.0886  0.4103  0.9348
 7879TIP3    H245129   4.895   5.938   4.695 -0.1242  0.3455  0.6973
 7880TIP3   OH245130   3.682   5.978   3.139  0.5936  0.4004 -0.7462
 7880TIP3    H145131   3.716   5.986   3.228 -0.1754 -0.1785 -0.3924
 7880TIP3    H245132   3.640   5.892   3.137  0.6668  0.3756 -1.6915
 7881TIP3   OH245133   1.762   3.023   4.637  0.2820 -0.3332 -0.0745
 7881TIP3    H145134   1.686   3.011   4.579  0.7653  1.0644 -1.0606
 7881TIP3    H245135   1.808   2.939   4.634 -0.3440 -0.6627 -0.7823
 7882TIP3   OH245136   1.029   2.559  14.032 -0.0427 -0.2470 -0.1709
 7882TIP3    H145137   1.073   2.531  14.112 -1.3968 -1.8707  0.0725
 7882TIP3    H245138   0.958   2.616  14.063 -0.6598 -0.9973 -0.1868
 7883TIP3   OH245139   0.964   5.983  14.609 -0.3301 -0.1689  0.0113
 7883TIP3    H145140   0.914   5.916  14.563  1.3241  0.0924 -2.3645
 7883TIP3    H245141   0.909   6.061  14.604 -0.4145 -0.2852 -1.1168
 7884TIP3   OH245142   3.693   6.464  16.660  0.0824  0.1617 -0.3300
 7884TIP3    H145143   3.750   6.530  16.622 -1.1102  0.7951 -1.0847
 7884TIP3    H245144   3.694   6.483  16.754  1.0911  0.1564 -0.3278
 7885TIP3   OH245145   6.606   2.898   0.542  0.6696  0.1496  1.1522
 7885TIP3    H145146   6.553   2.977   0.552  2.0878  1.2427  0.4195
 7885TIP3    H245147   6.583   2.865   0.455  0.5939  0.1559  1.1694
 7886TIP3   OH245148   6.803   1.118   5.962  0.6383  0.1904 -0.1291
 7886TIP3    H145149   6.803   1.022   5.955  1.1986  0.1988 -0.3117
 7886TIP3    H245150   6.715   1.144   5.933  0.4449 -0.2754  0.0327
 7887TIP3   OH245151   0.163   4.502  17.272  0.3307  0.2772  0.6980
 7887TIP3    H145152   0.255   4.480  17.253  0.4330  0.5308  0.8880
 7887TIP3    H245153   0.156   4.595  17.248  0.2463  0.3806  1.1191
 7888TIP3   OH245154   5.525   3.131   2.717  0.0487 -0.3093  0.6102
 7888TIP3    H145155   5.444   3.080   2.723 -0.1751 -0.2683 -1.3346
 7888TIP3    H245156   5.550   3.148   2.808 -0.7196 -2.5322  1.3154
 7889TIP3   OH245157   0.272   2.508   6.228 -0.1635  0.3874  0.2661
 7889TIP3    H145158   0.254   2.445   6.159  0.4190  0.3900  0.1070
 7889TIP3    H245159   0.190   2.557   6.237  0.2695  1.5742 -1.6670
 7890TIP3   OH245160   3.351   1.493   2.825  0.0676 -0.7612  0.0614
 7890TIP3    H145161   3.435   1.537   2.831 -0.0721 -0.2297 -1.2961
 7890TIP3    H245162   3.340   1.448   2.908  1.0137  0.3653  0.8211
 7891TIP3   OH245163   3.744   2.504   0.586  0.4115  0.3282  0.2000
 7891TIP3    H145164   3.806   2.512   0.659  1.1601 -1.2101 -0.2181
 7891TIP3    H245165   3.685   2.434   0.613 -1.1010  1.6886  0.5308
 7892TIP3   OH245166   6.554   0.287   5.394 -0.0335  0.0684  0.2403
 7892TIP3    H145167   6.494   0.360   5.379 -1.7745 -1.5703 -1.4195
 7892TIP3    H245168   6.531   0.224   5.326  3.1557 -0.9631 -0.0345
 7893TIP3   OH245169   0.258   5.327  16.206 -0.2333 -0.2014 -0.2384
 7893TIP3    H145170   0.288   5.318  16.115  0.0863  2.1476 -0.4300
 7893TIP3    H245171   0.174   5.280  16.208  1.0273 -2.6238 -0.9809
 7894TIP3   OH245172   1.775   1.530   0.381  0.1123  0.1736  0.1600
 7894TIP3    H145173   1.800   1.442   0.353 -1.7557 -0.6745  1.0121
 7894TIP3    H245174   1.810   1.587   0.312  0.3172 -1.3439 -1.0528
 7895TIP3   OH245175   5.086   4.575   2.913 -0.3658  0.2394  0.0366
 7895TIP3    H145176   5.005   4.620   2.890 -0.3371  0.1084 -0.3318
 7895TIP3    H245177   5.125   4.629   2.982 -1.1530 -0.1273  0.7686
 7896TIP3   OH245178   5.375   6.720  12.081  0.2685 -0.1391 -0.6312
 7896TIP3    H145179   5.323   6.639  12.073 -1.0302  0.5068  0.7551
 7896TIP3    H245180   5.352   6.771  12.004 -1.2276  0.1324 -0.0416
 7897TIP3   OH245181   0.514   6.813  16.957  0.2297  0.0776  0.2134
 7897TIP3    H145182   0.486   6.832  17.046  2.4100  0.8865  0.7981
 7897TIP3    H245183   0.434   6.819  16.904 -1.1335 -0.5935  2.1034
 7898TIP3   OH245184   6.793   2.359   3.345 -0.1579  0.4685 -0.3153
 7898TIP3    H145185   6.872   2.395   3.386  0.5921 -1.5568  0.1253
 7898TIP3    H245186   6.785   2.406   3.262  1.3346  0.9377 -0.2189
 7899TIP3   OH245187   5.595   1.499  16.456  0.0878 -0.5587  0.2144
 7899TIP3    H145188   5.686   1.503  16.428 -0.1871 -3.3238 -1.4730
 7899TIP3    H245189   5.599   1.489  16.551  1.4235  1.0647  0.3678
 7900TIP3   OH245190   5.877   0.483   1.779  0.4469  0.3934  0.7154
 7900TIP3    H145191   5.782   0.479   1.791  0.6748 -0.2578  2.7074
 7900TIP3    H245192   5.913   0.452   1.863  2.4112 -0.3405 -0.3304
 7901TIP3   OH245193   1.398   3.560   1.166  0.6994  0.2819 -0.8433
 7901TIP3    H145194   1.482   3.601   1.143  0.5192  0.7564 -0.6815
 7901TIP3    H245195   1.336   3.633   1.168  0.7054  0.3141  1.1780
 7902TIP3   OH245196   1.898   2.558   0.431  0.0963 -0.1713 -0.1844
 7902TIP3    H145197   1.966   2.616   0.396 -1.0991  2.6564  1.8071
 7902TIP3    H245198   1.881   2.591   0.519 -1.4009 -3.0192  0.7095
 7903TIP3   OH245199   3.493   0.664   3.543 -0.0666 -0.3234 -0.0352
 7903TIP3    H145200   3.425   0.707   3.596 -0.2337 -0.4258 -0.1639
 7903TIP3    H245201   3.444   0.614   3.478  0.1422  0.0708 -0.5010
 7904TIP3   OH245202   6.668   0.744   1.507  0.2482  0.1113  0.1435
 7904TIP3    H145203   6.581   0.706   1.502  0.1020  0.6478 -1.6916
 7904TIP3    H245204   6.722   0.673   1.543 -0.8964 -0.2155  1.3259
 7905TIP3   OH245205   5.140   1.608  15.427 -0.1665 -0.0995  0.1836
 7905TIP3    H145206   5.146   1.545  15.499 -1.0634  0.5292  0.8279
 7905TIP3    H245207   5.220   1.594  15.376 -0.5500 -2.0784  0.0447
 7906TIP3   OH245208   1.337   6.025   2.964  0.4923 -0.2309 -0.6010
 7906TIP3    H145209   1.252   6.002   2.926 -0.0240  1.5058 -0.5765
 7906TIP3    H245210   1.342   6.120   2.955  1.9982 -0.1944  0.3323
 7907TIP3   OH245211   2.793   5.784   0.949  0.5439  0.3641  0.2555
 7907TIP3    H145212   2.706   5.798   0.986 -0.4783  2.7376 -2.6582
 7907TIP3    H245213   2.839   5.866   0.966  0.2844  1.2559 -2.7075
 7908TIP3   OH245214   3.375   2.712   1.207  0.4216  0.3030 -0.0750
 7908TIP3    H145215   3.310   2.657   1.163  0.5007 -0.7038  1.0172
 7908TIP3    H245216   3.456   2.696   1.159  0.0842  0.8331 -0.8483
 7909TIP3   OH245217   4.762   1.329   1.374 -0.3668  0.8440  0.4445
 7909TIP3    H145218   4.668   1.315   1.388 -0.9568  1.4940 -2.2596
 7909TIP3    H245219   4.773   1.424   1.382  0.0238  0.7873  0.5661
 7910TIP3   OH245220   6.157   1.495   6.145 -0.0326 -0.2162 -0.0054
 7910TIP3    H145221   6.235   1.484   6.199  0.2470  2.7339  0.3603
 7910TIP3    H245222   6.084   1.479   6.205  0.1919 -2.9840 -0.3480
 7911TIP3   OH245223   1.515   1.912   4.051  0.1233 -0.5962 -0.5619
 7911TIP3    H145224   1.494   1.934   4.142 -2.1256 -2.2191 -0.6094
 7911TIP3    H245225   1.588   1.850   4.057  0.4860 -0.1266  0.0502
 7912TIP3   OH245226   1.215   2.170  16.128 -0.8083  0.1685 -0.0166
 7912TIP3    H145227   1.265   2.195  16.050  0.5897  1.0041  1.1165
 7912TIP3    H245228   1.245   2.229  16.197 -1.6152 -0.8986  1.3069
 7913TIP3   OH245229   2.337   5.753  12.295  0.2246  0.2658 -0.4798
 7913TIP3    H145230   2.321   5.661  12.273 -1.4121  0.8626 -2.0979
 7913TIP3    H245231   2.402   5.782  12.231  2.2588 -0.2049  1.2738
 7914TIP3   OH245232   4.541   3.195   4.855  0.0580  0.5560  0.5910
 7914TIP3    H145233   4.485   3.155   4.788  1.6717 -0.2187 -0.3585
 7914TIP3    H245234   4.567   3.122   4.911 -2.2433  1.3615  2.9267
 7915TIP3   OH245235   5.669   4.638  12.152 -0.0145 -0.6575 -0.1274
 7915TIP3    H145236   5.694   4.594  12.233  0.7951  2.3710  1.4393
 7915TIP3    H245237   5.752   4.662  12.110 -0.3579  0.5177 -0.1935
 7916TIP3   OH245238   2.167   6.486   3.695  0.1757  0.3828 -0.2140
 7916TIP3    H145239   2.164   6.391   3.709 -2.8175  0.3014 -0.7772
 7916TIP3    H245240   2.245   6.500   3.641  0.5820 -1.7519 -0.2605
 7917TIP3   OH245241   2.230   0.167   6.956  0.2300  0.1792 -0.8058
 7917TIP3    H145242   2.169   0.190   6.885  0.5045  1.8941 -0.5316
 7917TIP3    H245243   2.173   0.148   7.031 -0.0066  1.0030 -0.7663
 7918TIP3   OH245244   4.686   0.905  11.445  0.3538  0.0010 -0.4877
 7918TIP3    H145245   4.724   0.819  11.462  1.2652  0.1624 -1.5732
 7918TIP3    H245246   4.756   0.967  11.468  0.0597  0.4047 -0.6689
 7919TIP3   OH245247   2.394   4.172  14.618  0.1223  0.7876 -0.0698
 7919TIP3    H145248   2.328   4.112  14.652  1.7312  0.0818  1.9720
 7919TIP3    H245249   2.406   4.144  14.527 -1.2974 -0.0283 -0.0412
 7920TIP3   OH245250   6.596   1.096   2.769  0.5237 -0.3178 -0.2385
 7920TIP3    H145251   6.568   1.158   2.701  2.0170  1.0010  0.2899
 7920TIP3    H245252   6.649   1.031   2.722  0.5973 -0.0693 -0.4989
 7921TIP3   OH245253   1.798   2.628  13.148  0.7312  1.0826 -0.9858
 7921TIP3    H145254   1.856   2.645  13.222  0.4809 -1.4744 -0.0746
 7921TIP3    H245255   1.710   2.645  13.181  0.4633 -1.6277 -0.0110
 7922TIP3   OH245256   6.520   2.159  14.199  0.3304 -0.0410  0.0123
 7922TIP3    H145257   6.546   2.192  14.113  0.7188  2.3123  0.9568
 7922TIP3    H245258   6.435   2.198  14.215  0.4997 -0.0179  0.9082
 7923TIP3   OH245259   5.284   2.824  16.283 -0.1899 -0.7395 -0.3820
 7923TIP3    H145260   5.295   2.825  16.378  1.1295 -1.8268 -0.4948
 7923TIP3    H245261   5.298   2.732  16.258  0.8203 -0.2507 -1.7667
 7924TIP3   OH245262   0.268   1.979  13.919  0.1915  0.3342 -0.2995
 7924TIP3    H145263   0.360   1.997  13.899 -0.0404  0.3535 -1.4318
 7924TIP3    H245264   0.270   1.896  13.967  0.9060  1.0886  1.0286
 7925TIP3   OH245265   4.931   5.770  12.919 -0.3160  0.1482  0.1960
 7925TIP3    H145266   4.878   5.849  12.909 -0.4062  0.0919  0.2301
 7925TIP3    H245267   5.021   5.801  12.915 -0.3356  0.0554 -1.4251
 7926TIP3   OH245268   4.401   2.788   0.959 -0.6240  0.2319  0.0447
 7926TIP3    H145269   4.455   2.720   0.999 -0.1196  0.4307 -0.2858
 7926TIP3    H245270   4.406   2.769   0.865 -1.2683  0.1526  0.0220
 7927TIP3   OH245271   6.058   0.551   5.421  0.3393  0.4766 -0.1595
 7927TIP3    H145272   6.066   0.568   5.327  0.4403 -0.1940 -0.2762
 7927TIP3    H245273   5.964   0.546   5.437  0.3349 -0.0129 -0.3362
 7928TIP3   OH245274   2.365   6.123   0.661 -0.3316  0.3553 -0.3347
 7928TIP3    H145275   2.380   6.069   0.583  1.3907 -0.0244  0.2092
 7928TIP3    H245276   2.326   6.063   0.725  2.4629 -0.6381  0.6035
 7929TIP3   OH245277   5.080   2.897   1.335  0.0102  0.7365  0.3290
 7929TIP3    H145278   5.087   2.972   1.276  0.5988  0.9059  0.6126
 7929TIP3    H245279   4.987   2.874   1.334 -0.1541  1.4042  0.1663
 7930TIP3   OH245280   0.640   0.101  15.621  0.1939  0.0013  0.2058
 7930TIP3    H145281   0.733   0.115  15.638 -0.4983  2.3707  2.8985
 7930TIP3    H245282   0.620   0.019  15.666  1.0292 -0.7795 -0.8029
 7931TIP3   OH245283   1.230   4.695  16.618 -0.3654 -0.0492  0.0401
 7931TIP3    H145284   1.174   4.669  16.690 -2.7155 -0.0563 -1.6547
 7931TIP3    H245285   1.172   4.746  16.560  1.1765 -0.6465 -2.1770
 7932TIP3   OH245286   2.822   0.200   1.342  0.1046  0.8974  0.2118
 7932TIP3    H145287   2.893   0.183   1.280 -0.1165  0.9161 -0.0511
 7932TIP3    H245288   2.864   0.200   1.428  0.2498 -0.2149  0.1564
 7933TIP3   OH245289   2.821   2.366   6.658 -0.3603 -0.1065  0.7781
 7933TIP3    H145290   2.805   2.306   6.586 -1.2262 -0.1015  0.9451
 7933TIP3    H245291   2.742   2.360   6.712 -0.6148  1.3978  0.6328
 7934TIP3   OH245292   5.184   2.920  12.874 -0.7900  0.1370  0.1654
 7934TIP3    H145293   5.118   2.883  12.815  0.8526  1.5768 -2.7873
 7934TIP3    H245294   5.250   2.852  12.881  0.4560  0.9894 -2.2593
 7935TIP3   OH245295   1.799   2.281   3.936  0.5503 -0.0955 -0.1274
 7935TIP3    H145296   1.704   2.290   3.948  0.5903  0.5121 -0.2451
 7935TIP3    H245297   1.836   2.352   3.988  1.0576 -1.5876  1.6804
 7936TIP3   OH245298   2.232   2.352   1.594  0.6097  0.1321  0.3321
 7936TIP3    H145299   2.322   2.360   1.564  0.1400  0.7230 -1.0046
 7936TIP3    H245300   2.232   2.277   1.654  2.1916  0.8209  1.2403
 7937TIP3   OH245301   5.425   5.540  11.627  0.1586 -0.3041 -0.3034
 7937TIP3    H145302   5.351   5.478  11.625  2.5225 -3.5734  2.1891
 7937TIP3    H245303   5.398   5.607  11.689 -1.0181 -0.9574 -0.0616
 7938TIP3   OH245304   2.708   5.210  16.526 -0.3264 -0.4910  0.6521
 7938TIP3    H145305   2.656   5.270  16.474  0.0788 -1.7911 -1.3425
 7938TIP3    H245306   2.756   5.267  16.587 -1.7991  0.9520  0.5364
 7939TIP3   OH245307   0.756   0.696  15.383 -0.1300  0.1404  0.6908
 7939TIP3    H145308   0.748   0.616  15.331  0.5604  1.0683 -0.9248
 7939TIP3    H245309   0.666   0.725  15.397 -0.3378 -0.0784 -0.1168
 7940TIP3   OH245310   5.165   6.109  13.053  0.5340 -0.0428  0.6607
 7940TIP3    H145311   5.140   6.053  12.980  0.6778  2.2481 -1.2491
 7940TIP3    H245312   5.088   6.165  13.067  0.4450 -0.5471  2.4270
 7941TIP3   OH245313   4.405   3.664  15.798 -0.4700 -0.4132  0.3079
 7941TIP3    H145314   4.354   3.734  15.839  0.7954  1.1848 -0.7243
 7941TIP3    H245315   4.427   3.698  15.711 -0.0893 -2.2544 -0.3686
 7942TIP3   OH245316   3.614   2.274   3.365 -0.1779  1.0794  0.4523
 7942TIP3    H145317   3.592   2.357   3.408 -0.8865  0.8133  0.6277
 7942TIP3    H245318   3.582   2.284   3.276  1.3206  1.6425 -0.0490
 7943TIP3   OH245319   1.354   5.770  11.694 -0.1388 -0.1852 -0.4159
 7943TIP3    H145320   1.278   5.713  11.683  0.1386 -0.9087  1.1617
 7943TIP3    H245321   1.426   5.710  11.714  0.0776  0.6929  1.6721
 7944TIP3   OH245322   6.338   2.699   3.581  0.0776  0.2148  0.5754
 7944TIP3    H145323   6.373   2.771   3.634  0.3354  0.3516  0.2247
 7944TIP3    H245324   6.412   2.640   3.570  0.2149  0.5181 -0.1955
 7945TIP3   OH245325   5.471   6.402   4.696  0.1328 -0.2851 -0.7572
 7945TIP3    H145326   5.519   6.480   4.722  1.1132 -0.3542 -2.2943
 7945TIP3    H245327   5.417   6.381   4.773  1.7189  0.4239  0.6003
 7946TIP3   OH245328   6.241   0.519  14.453 -0.3603 -0.2486 -0.3425
 7946TIP3    H145329   6.228   0.467  14.373  0.8303  0.9320 -1.3395
 7946TIP3    H245330   6.329   0.555  14.444 -1.2276  2.1799  0.1447
 7947TIP3   OH245331   0.407   0.968   0.536  0.1794 -0.3096  0.7666
 7947TIP3    H145332   0.386   0.893   0.481 -2.1718 -1.7003  3.3136
 7947TIP3    H245333   0.502   0.981   0.524  0.3587 -2.6258 -0.9665
 7948TIP3   OH245334   3.048   0.946  16.855  0.0623 -0.6689  0.4582
 7948TIP3    H145335   2.963   0.902  16.850  0.7960 -2.3154  1.4721
 7948TIP3    H245336   3.043   1.000  16.934 -0.6956  0.8225 -0.5640
 7949TIP3   OH245337   1.741   2.894  15.583 -0.5846 -0.4769 -0.4937
 7949TIP3    H145338   1.829   2.911  15.615 -0.9882  0.7214  0.0352
 7949TIP3    H245339   1.718   2.808  15.619 -0.4152  0.1322  1.1119
 7950TIP3   OH245340   0.618   4.972  16.122  0.0994  0.2022 -0.3984
 7950TIP3    H145341   0.582   5.031  16.056 -1.1809 -0.4606 -0.3383
 7950TIP3    H245342   0.563   4.987  16.199  0.0766 -0.6879 -0.2278
 7951TIP3   OH245343   4.667   5.961   2.484  0.1385 -0.6204  0.0545
 7951TIP3    H145344   4.700   5.919   2.563 -1.2868 -5.2557 -1.4662
 7951TIP3    H245345   4.574   5.975   2.502  0.3172  0.6449  0.0304
 7952TIP3   OH245346   6.756   0.421  11.882 -0.6984  0.2609 -0.0417
 7952TIP3    H145347   6.758   0.501  11.831  2.0005 -0.7487 -1.7666
 7952TIP3    H245348   6.819   0.437  11.953  0.5360 -0.5378 -0.9035
 7953TIP3   OH245349   4.301   3.931   5.779  0.0028  0.3020 -0.3702
 7953TIP3    H145350   4.208   3.941   5.756  0.1801  0.3210 -1.1183
 7953TIP3    H245351   4.326   4.016   5.815 -0.6751 -0.2015  1.3694
 7954TIP3   OH245352   4.406   2.230   1.145 -0.2742  0.5635 -0.4703
 7954TIP3    H145353   4.362   2.267   1.221  0.5595 -0.4046  0.5255
 7954TIP3    H245354   4.352   2.155   1.120 -0.6145  0.9538 -0.9227
 7955TIP3   OH245355   2.015   6.508   5.976  0.3988 -0.3141  0.5389
 7955TIP3    H145356   2.059   6.497   5.891 -0.0426  1.9679 -0.0474
 7955TIP3    H245357   1.977   6.595   5.972 -3.2010 -1.6764  1.4919
 7956TIP3   OH245358   1.861   3.129   2.176 -0.4494 -0.0120 -0.0971
 7956TIP3    H145359   1.775   3.117   2.136  0.2758 -1.2969 -1.3756
 7956TIP3    H245360   1.891   3.214   2.145  0.2734 -1.1541 -2.8028
 7957TIP3   OH245361   4.775   1.942   2.007 -0.1545 -0.0765  0.2508
 7957TIP3    H145362   4.694   1.945   2.058  0.3303 -0.3394  1.0502
 7957TIP3    H245363   4.790   1.849   1.991  0.7839 -0.1398  1.4099
 7958TIP3   OH245364   5.031   1.808  12.983  0.0456  0.0665  0.0419
 7958TIP3    H145365   5.107   1.750  12.988 -0.5021 -0.5558  2.0228
 7958TIP3    H245366   4.968   1.760  12.929  0.2008 -0.4766  0.3349
 7959TIP3   OH245367   6.317   4.406   5.445 -0.4796 -0.1444 -0.3020
 7959TIP3    H145368   6.264   4.477   5.479  2.1266  1.5707  0.5131
 7959TIP3    H245369   6.272   4.326   5.472 -2.7925  1.1603 -0.0786
 7960TIP3   OH245370   3.863   5.878   0.405 -0.4267 -0.2879  0.3084
 7960TIP3    H145371   3.801   5.950   0.407  0.8466  0.8578 -0.1329
 7960TIP3    H245372   3.852   5.838   0.319 -0.1483  0.2895  0.0018
 7961TIP3   OH245373   4.402   1.080   5.678 -0.0769  0.5157  0.1039
 7961TIP3    H145374   4.385   1.104   5.770  1.9409  1.4333  0.2825
 7961TIP3    H245375   4.405   1.163   5.632  0.2891  0.1494 -0.5405
 7962TIP3   OH245376   0.998   4.850  14.910  0.4950 -0.1855  0.1692
 7962TIP3    H145377   1.010   4.892  14.995 -2.8467  1.7028 -0.0895
 7962TIP3    H245378   1.021   4.918  14.846 -2.1114  0.4091 -0.2736
 7963TIP3   OH245379   1.779   6.183  12.070  0.4808 -0.0580 -0.1827
 7963TIP3    H145380   1.731   6.100  12.069  0.7957 -0.2430  0.0742
 7963TIP3    H245381   1.760   6.223  11.984  0.8649 -0.7078 -0.5790
 7964TIP3   OH245382   3.016   5.374  14.576 -0.8470  0.8155 -0.0454
 7964TIP3    H145383   3.068   5.316  14.632  0.6254  1.2210 -0.9552
 7964TIP3    H245384   2.946   5.405  14.633 -0.2674  0.0309  1.1389
 7965TIP3   OH245385   2.119   0.985  13.829 -0.6461 -0.5274  0.0855
 7965TIP3    H145386   2.029   0.986  13.861 -0.7196  0.2147 -0.1225
 7965TIP3    H245387   2.123   0.907  13.773 -1.2218 -0.4464 -0.0819
 7966TIP3   OH245388   3.148   4.403   2.882 -0.1039 -0.1339  0.2474
 7966TIP3    H145389   3.210   4.375   2.815  0.5908  1.0270  0.3830
 7966TIP3    H245390   3.114   4.321   2.918  2.1349 -0.8626  0.8879
 7967TIP3   OH245391   1.697   5.631  14.966  0.3637 -0.4666  0.0876
 7967TIP3    H145392   1.763   5.586  14.913  0.8316 -0.8113  0.9309
 7967TIP3    H245393   1.618   5.577  14.957  0.5804 -0.7955  0.1359
 7968TIP3   OH245394   3.377   6.527   4.464  0.2460 -0.3797 -0.3779
 7968TIP3    H145395   3.397   6.549   4.555 -1.9234 -0.7029  0.2402
 7968TIP3    H245396   3.461   6.503   4.426  1.4068  1.0170  1.1707
 7969TIP3   OH245397   1.107   4.180   4.391 -0.3439  0.2464 -0.5559
 7969TIP3    H145398   1.067   4.225   4.465  0.8909  1.6708 -0.6990
 7969TIP3    H245399   1.078   4.090   4.399 -0.0034  0.2827  1.8346
 7970TIP3   OH245400   1.240   2.687   4.036 -0.7067 -0.2571 -0.5741
 7970TIP3    H145401   1.222   2.624   3.966  1.8678  0.1279 -1.6727
 7970TIP3    H245402   1.216   2.772   3.999  0.3111 -0.0955 -0.8988
 7971TIP3   OH245403   5.301   3.739   2.841  0.5699 -0.7532 -0.7505
 7971TIP3    H145404   5.380   3.792   2.832 -0.1623  0.3351 -0.9872
 7971TIP3    H245405   5.328   3.665   2.895  1.3097  0.5800  0.7927
 7972TIP3   OH245406   1.641   4.883   2.613 -0.5047 -0.1598  0.2192
 7972TIP3    H145407   1.733   4.902   2.599 -0.4893 -0.2805  0.1535
 7972TIP3    H245408   1.604   4.879   2.525  0.1708 -3.8942 -0.0299
 7973TIP3   OH245409   0.181   3.277  13.840 -0.0256  0.4427  0.2926
 7973TIP3    H145410   0.211   3.268  13.750  0.1852 -1.1306  0.4964
 7973TIP3    H245411   0.257   3.311  13.887  0.2871  0.0189  0.1076
 7974TIP3   OH245412   0.063   1.425  13.585 -0.0379  0.3592  0.1013
 7974TIP3    H145413   0.122   1.497  13.565 -0.7738  0.2192 -3.1914
 7974TIP3    H245414   0.118   1.361  13.631  0.9747  2.3145  1.8164
 7975TIP3   OH245415   1.545   2.098  16.214  0.3620 -0.1377  0.0728
 7975TIP3    H145416   1.516   2.173  16.162 -0.3357 -0.3976  0.0829
 7975TIP3    H245417   1.606   2.051  16.156  1.4330  0.8529  0.3515
 7976TIP3   OH245418   0.644   1.891   4.883  0.2885  0.1603 -0.2297
 7976TIP3    H145419   0.678   1.812   4.841 -0.1498  0.7096 -1.6960
 7976TIP3    H245420   0.557   1.867   4.913 -0.6227  0.5561 -2.3708
 7977TIP3   OH245421   3.015   0.771  12.110 -0.3702  0.3812  0.2802
 7977TIP3    H145422   3.106   0.765  12.139 -0.7084  0.7269  1.4861
 7977TIP3    H245423   2.991   0.681  12.086  0.8989  0.6217 -2.1027
 7978TIP3   OH245424   1.774   6.737   6.155  0.1366 -0.3893 -0.2132
 7978TIP3    H145425   1.773   6.724   6.061  0.1352 -1.0113 -0.1315
 7978TIP3    H245426   1.741   6.655   6.191 -2.4682  0.7515  0.2371
 7979TIP3   OH245427   1.220   5.173  17.275 -0.1287 -0.3740 -0.2955
 7979TIP3    H145428   1.288   5.129  17.224 -0.2375 -4.5246  2.6196
 7979TIP3    H245429   1.140   5.160  17.225  0.2542 -1.4955 -0.6550
 7980TIP3   OH245430   5.820   1.683   2.246  0.7121  0.1359 -0.0263
 7980TIP3    H145431   5.914   1.665   2.243  0.8868  0.8575  0.7154
 7980TIP3    H245432   5.801   1.696   2.339  0.3328  2.2040 -0.3393
 7981TIP3   OH245433   0.547   1.327  15.615  0.1235  0.2267  0.1012
 7981TIP3    H145434   0.529   1.284  15.699 -1.6588 -1.2781 -0.9600
 7981TIP3    H245435   0.639   1.351  15.619  1.0436 -3.0250  1.1329
 7982TIP3   OH245436   0.771   6.115   1.595 -1.1809 -0.5629 -0.1792
 7982TIP3    H145437   0.819   6.033   1.604  1.5031  0.8248 -0.8762
 7982TIP3    H245438   0.760   6.126   1.500 -1.2091  0.0218 -0.1142
 7983TIP3   OH245439   1.373   6.432  12.312  0.4831 -0.0912  0.4117
 7983TIP3    H145440   1.399   6.356  12.260 -1.4620 -1.8232  1.7483
 7983TIP3    H245441   1.303   6.473  12.261  1.7531  1.0521 -0.4620
 7984TIP3   OH245442   0.288   4.747  16.526 -0.2123  0.3389 -0.1629
 7984TIP3    H145443   0.292   4.730  16.432  2.4793 -0.6840  0.0290
 7984TIP3    H245444   0.350   4.818  16.540  0.7217 -0.6471  0.9743
 7985TIP3   OH245445   6.011   0.426  11.487  0.1360  0.3134  0.0106
 7985TIP3    H145446   5.970   0.450  11.405 -0.8200  1.8839  0.9118
 7985TIP3    H245447   6.055   0.343  11.468 -2.4952 -0.8950 -1.2993
 7986TIP3   OH245448   1.362   4.386  14.891  0.5354  0.6634  0.1786
 7986TIP3    H145449   1.360   4.300  14.931  0.0323 -0.5357 -2.2573
 7986TIP3    H245450   1.343   4.446  14.964 -1.9680 -1.4588  1.4701
 7987TIP3   OH245451   6.223   3.550   5.145 -0.2448  1.2530  0.0178
 7987TIP3    H145452   6.198   3.486   5.212  0.6561  0.4539 -0.3903
 7987TIP3    H245453   6.169   3.627   5.164 -0.8096  0.6382  0.9715
 7988TIP3   OH245454   6.374   5.688  12.749  0.0697 -0.0223 -0.0052
 7988TIP3    H145455   6.391   5.768  12.800  0.7143  1.1464 -1.9221
 7988TIP3    H245456   6.406   5.617  12.804  1.7120  1.2733  0.8141
 7989TIP3   OH245457   0.599   5.808  15.803 -0.4835 -0.2411  0.1636
 7989TIP3    H145458   0.550   5.756  15.866 -2.4382  0.5551 -0.6148
 7989TIP3    H245459   0.536   5.874  15.772 -0.0714 -1.3188 -3.5289
 7990TIP3   OH245460   2.541   3.130   4.304  0.4008  0.2491 -0.1003
 7990TIP3    H145461   2.465   3.072   4.299  0.7728 -0.1994 -0.8363
 7990TIP3    H245462   2.562   3.149   4.213  2.8498 -1.9095 -0.0950
 7991TIP3   OH245463   6.244   5.686  11.885 -0.2371 -0.1309 -0.0385
 7991TIP3    H145464   6.266   5.732  11.966 -0.8070 -1.0083  0.6297
 7991TIP3    H245465   6.287   5.737  11.817  0.9237  0.1755  0.8833
 7992TIP3   OH245466   4.677   3.680   1.111 -0.3815  0.6054 -0.2244
 7992TIP3    H145467   4.749   3.632   1.070  0.3213  0.2638  1.3233
 7992TIP3    H245468   4.699   3.772   1.098  1.2591  0.5393  1.6396
 7993TIP3   OH245469   6.710   1.860   5.658 -0.4310 -0.0058 -0.3704
 7993TIP3    H145470   6.682   1.768   5.660 -0.1762 -0.0836  2.1322
 7993TIP3    H245471   6.629   1.909   5.643 -0.8344 -0.5600 -0.0287
 7994TIP3   OH245472   5.990   3.097   6.455 -0.0037  0.3512 -0.5392
 7994TIP3    H145473   6.029   3.099   6.367  0.8425 -0.2900 -0.1951
 7994TIP3    H245474   5.958   3.186   6.468  0.2605  0.5772 -1.3280
 7995TIP3   OH245475   0.781   1.263  12.895 -0.1476  0.2419  0.0480
 7995TIP3    H145476   0.700   1.309  12.873  0.6272  0.9776 -1.3907
 7995TIP3    H245477   0.760   1.216  12.976 -1.1547  2.7034  1.3543
 7996TIP3   OH245478   2.259   4.166   1.197  0.1505  0.7703  0.0131
 7996TIP3    H145479   2.258   4.260   1.218 -1.7770  0.3929  1.9088
 7996TIP3    H245480   2.252   4.123   1.282 -1.5261 -1.0456 -0.9951
 7997TIP3   OH245481   0.884   6.052   0.446 -0.3040 -0.0090 -0.4152
 7997TIP3    H145482   0.796   6.063   0.412  0.0186  1.2922 -0.8545
 7997TIP3    H245483   0.914   6.140   0.467  0.5534 -0.5160  0.6093
 7998TIP3   OH245484   3.229   2.395  16.499 -0.0034  0.2934 -0.7032
 7998TIP3    H145485   3.279   2.476  16.508 -0.8510  0.6954  0.6358
 7998TIP3    H245486   3.210   2.388  16.405  0.0221  1.6756 -0.8237
 7999TIP3   OH245487   1.777   3.944  13.769 -1.3138  0.3195 -0.8028
 7999TIP3    H145488   1.728   3.919  13.848 -0.3927 -0.0025 -0.3174
 7999TIP3    H245489   1.722   4.010  13.727 -1.6855  0.7265  0.2746
 8000TIP3   OH245490   6.518   3.909  14.188 -0.4446  0.8260  0.5223
 8000TIP3    H145491   6.442   3.896  14.244  0.1512  1.9424  1.6220
 8000TIP3    H245492   6.514   4.000  14.161  0.5992  0.9511  0.7447
 8001TIP3   OH245493   4.239   3.443   4.143  0.0034 -0.4060 -0.0379
 8001TIP3    H145494   4.220   3.536   4.158 -2.1764 -0.8945  0.6045
 8001TIP3    H245495   4.210   3.426   4.054  1.5649 -0.2261 -0.6047
 8002TIP3   OH245496   4.884   1.683  11.074  0.1099 -0.4598  0.4657
 8002TIP3    H145497   4.878   1.759  11.131  0.7600 -0.7209  0.8883
 8002TIP3    H245498   4.794   1.649  11.070 -0.2215  0.4353  0.1091
 8003TIP3   OH245499   1.234   3.872  12.666 -0.1173 -0.0752  0.0804
 8003TIP3    H145500   1.200   3.857  12.754 -0.1997  1.7849  0.4119
 8003TIP3    H245501   1.225   3.967  12.653 -1.6191 -0.4869 -2.5673
 8004TIP3   OH245502   4.048   0.039   0.881 -0.0159 -0.0349  0.8496
 8004TIP3    H145503   4.081   0.128   0.877  1.0460 -0.4316  0.3047
 8004TIP3    H245504   3.974   0.037   0.819 -0.7873  0.7469  1.7316
 8005TIP3   OH245505   4.670   3.120  17.059 -0.3551 -0.2282 -0.7772
 8005TIP3    H145506   4.750   3.068  17.070  0.0760  0.2797 -1.4299
 8005TIP3    H245507   4.599   3.062  17.087  0.0709 -1.3541 -1.9427
 8006TIP3   OH245508   1.623   3.995   4.079  0.2961 -0.0950 -0.0465
 8006TIP3    H145509   1.590   3.911   4.111  0.5904  0.1336  0.8910
 8006TIP3    H245510   1.545   4.048   4.065  0.1526 -0.2525  0.1538
 8007TIP3   OH245511   3.439   0.700   1.063  0.7125 -0.3455 -0.1384
 8007TIP3    H145512   3.518   0.669   1.017  1.6864 -0.3719  1.4842
 8007TIP3    H245513   3.418   0.629   1.124  1.8510  1.2841  2.2957
 8008TIP3   OH245514   4.468   3.103  13.484 -0.3965 -0.1788 -0.2918
 8008TIP3    H145515   4.496   3.159  13.412 -0.7184 -1.9430 -1.8625
 8008TIP3    H245516   4.547   3.056  13.511 -0.4773 -0.2394 -0.1556
 8009TIP3   OH245517   1.004   4.411  15.807  0.4020 -0.1010 -0.5409
 8009TIP3    H145518   0.952   4.476  15.854  0.0771 -2.0793  2.0932
 8009TIP3    H245519   1.081   4.458  15.776 -0.8340  1.9430 -0.6898
 8010TIP3   OH245520   2.658   2.702   2.863  0.0631  0.4847  0.5251
 8010TIP3    H145521   2.651   2.625   2.919  0.4876  0.6246  0.7768
 8010TIP3    H245522   2.570   2.740   2.864  0.0634  0.4835  1.0987
 8011TIP3   OH245523   6.448   2.263   4.840  0.0688 -0.1373  0.4983
 8011TIP3    H145524   6.538   2.278   4.869 -0.1692  1.0532  0.7061
 8011TIP3    H245525   6.414   2.199   4.902  0.9591 -1.1041  0.0148
 8012TIP3   OH245526   4.968   1.031   4.669  0.4712  0.6723  0.0570
 8012TIP3    H145527   4.921   0.966   4.616  0.3994  1.2056 -0.5534
 8012TIP3    H245528   5.044   0.984   4.703 -1.0327 -0.5399  1.9907
 8013TIP3   OH245529   6.408   1.015  11.288 -0.7287 -0.2780 -0.2759
 8013TIP3    H145530   6.470   1.087  11.283 -0.9813  0.3813  3.1553
 8013TIP3    H245531   6.326   1.050  11.253  0.2178 -0.5190 -2.9574
 8014TIP3   OH245532   6.121   6.787  13.209  0.2148 -0.2899  0.7885
 8014TIP3    H145533   6.030   6.813  13.195  0.7054  0.3159 -1.9100
 8014TIP3    H245534   6.121   6.691  13.199 -0.1306 -0.2951  0.8447
 8015TIP3   OH245535   2.138   0.721  13.361 -0.7101 -0.1652 -0.6360
 8015TIP3    H145536   2.192   0.708  13.439 -1.0062 -0.0249 -0.4069
 8015TIP3    H245537   2.153   0.813  13.338 -0.5822 -0.2205 -0.7767
 8016TIP3   OH245538   3.399   4.464   1.420 -0.1684  0.0512 -0.0991
 8016TIP3    H145539   3.324   4.413   1.449  0.1849  0.2752  1.2905
 8016TIP3    H245540   3.461   4.400   1.386 -0.3364 -0.3008  0.2577
 8017TIP3   OH245541   2.798   6.686  15.601  0.0635 -0.0848 -0.1425
 8017TIP3    H145542   2.735   6.724  15.664  1.1843  1.6280  0.0174
 8017TIP3    H245543   2.877   6.670  15.653  1.1487  1.7225 -1.1140
 8018TIP3   OH245544   6.072   1.614   4.104  0.0346 -0.1214 -0.1738
 8018TIP3    H145545   6.163   1.601   4.079  0.2051 -0.3764  0.5645
 8018TIP3    H245546   6.034   1.526   4.104  0.2896 -0.2486  1.3956
 8019TIP3   OH245547   1.796   4.535  16.900  0.0955 -0.0776 -0.4339
 8019TIP3    H145548   1.755   4.508  16.818 -2.7962 -2.2188  1.5398
 8019TIP3    H245549   1.740   4.500  16.969  2.2780  1.7253  2.5443
 8020TIP3   OH245550   2.808   2.048  16.140  0.2219 -0.9786  0.4369
 8020TIP3    H145551   2.785   2.101  16.216 -0.9096  0.1832 -0.6669
 8020TIP3    H245552   2.850   2.109  16.080 -0.3718 -1.5032 -0.5405
 8021TIP3   OH245553   0.089   0.827  13.590 -0.6971 -0.4866  0.2958
 8021TIP3    H145554   0.148   0.862  13.524 -0.7418 -0.4897  0.2545
 8021TIP3    H245555   0.125   0.741  13.612  0.9045  0.5961  2.2650
 8022TIP3   OH245556   3.037   2.053  14.680  0.0040  0.1384 -0.0881
 8022TIP3    H145557   2.995   2.060  14.594 -0.0663 -0.1371 -0.0757
 8022TIP3    H245558   3.085   1.970  14.677  1.1343  0.7813 -0.3638
 8023TIP3   OH245559   1.987   1.694   2.071 -0.3480  0.0285 -0.1762
 8023TIP3    H145560   2.056   1.744   2.026  1.4214  0.4408  2.7296
 8023TIP3    H245561   2.033   1.621   2.111 -1.6755  0.0407  1.4651
 8024TIP3   OH245562   5.594   2.044   1.390  0.2690  0.2635 -0.3554
 8024TIP3    H145563   5.673   2.062   1.440 -0.4630 -0.1655  1.0249
 8024TIP3    H245564   5.623   1.994   1.314  1.3985  0.7720 -0.2667
 8025TIP3   OH245565   5.831   2.802  16.853 -0.1656  0.4101 -0.3398
 8025TIP3    H145566   5.829   2.897  16.837  0.9857  0.3607 -0.8909
 8025TIP3    H245567   5.919   2.786  16.888 -0.4199 -0.4350 -0.0705
 8026TIP3   OH245568   4.978   4.130  13.301  0.3549  0.5235  0.0246
 8026TIP3    H145569   4.965   4.047  13.348  1.0960 -0.6151 -1.6946
 8026TIP3    H245570   4.890   4.159  13.278  0.1519 -0.9152 -1.1762
 8027TIP3   OH245571   4.844   4.025  14.435  0.1285 -0.3456  0.1948
 8027TIP3    H145572   4.877   4.021  14.345  1.2320 -0.0242  0.5745
 8027TIP3    H245573   4.793   3.945  14.446  0.2316 -0.5283 -0.6169
 8028TIP3   OH245574   1.643   5.629  16.216 -0.1522 -0.3595 -0.3742
 8028TIP3    H145575   1.587   5.703  16.240 -2.4892 -1.9591 -0.6653
 8028TIP3    H245576   1.677   5.652  16.129 -0.9650  0.3006 -0.5302
 8029TIP3   OH245577   4.126   1.770   1.655 -0.3196 -0.3855  0.2191
 8029TIP3    H145578   4.197   1.782   1.591  0.9775  0.2531  1.7168
 8029TIP3    H245579   4.099   1.679   1.644  0.5997 -0.5898 -0.5325
 8030TIP3   OH245580   3.081   2.590  17.239  0.0554 -0.5363 -0.0947
 8030TIP3    H145581   3.163   2.541  17.243 -0.4996 -1.4879 -0.2170
 8030TIP3    H245582   3.046   2.572  17.152  0.1431  0.5929 -0.3836
 8031TIP3   OH245583   0.329   1.847  17.113  0.0353 -0.0614 -0.2060
 8031TIP3    H145584   0.240   1.846  17.149  0.1107  0.3258 -0.0073
 8031TIP3    H245585   0.336   1.765  17.064 -0.5269  0.0333 -0.4510
 8032TIP3   OH245586   2.244   5.587  13.689  0.1658  0.1899  0.3270
 8032TIP3    H145587   2.210   5.519  13.747 -0.4915  1.0120  0.9359
 8032TIP3    H245588   2.309   5.634  13.742 -1.8226  2.1822  1.1260
 8033TIP3   OH245589   3.898   2.467   5.233  0.0326  0.1457  0.2672
 8033TIP3    H145590   3.951   2.546   5.224 -0.2758  0.1901 -1.3933
 8033TIP3    H245591   3.951   2.398   5.193 -0.4599 -0.1400  0.1063
 8034TIP3   OH245592   2.757   2.932  17.134  0.3323 -0.1024  0.1955
 8034TIP3    H145593   2.799   2.904  17.053  0.2053 -0.6594  0.3153
 8034TIP3    H245594   2.664   2.914  17.120  0.3468 -0.5054  0.5825
 8035TIP3   OH245595   4.186   3.819  10.961 -0.2967  0.5222 -0.3601
 8035TIP3    H145596   4.142   3.780  10.885  2.3904  2.3643 -3.0675
 8035TIP3    H245597   4.131   3.893  10.985 -1.5640 -0.5079  0.1025
 8036TIP3   OH245598   5.673   1.032   1.544  0.2813  0.6183 -0.4838
 8036TIP3    H145599   5.590   1.069   1.513 -0.2502 -0.4755 -0.4111
 8036TIP3    H245600   5.699   1.089   1.616 -0.3554  1.0332 -0.5707
 8037TIP3   OH245601   0.900   6.136   0.170  0.2325  0.1938  0.2546
 8037TIP3    H145602   0.872   6.147   0.261  1.0291 -0.0486  0.5381
 8037TIP3    H245603   0.966   6.203   0.156  1.4968 -0.9485  0.4666
 8038TIP3   OH245604   1.639   3.941   1.705 -0.1159  0.4239  0.4319
 8038TIP3    H145605   1.562   3.912   1.754 -0.8852  3.1126  0.9906
 8038TIP3    H245606   1.638   4.037   1.714  0.7927  0.9411 -3.2041
 8039TIP3   OH245607   0.616   0.398  15.819 -0.2931 -0.2583 -0.7927
 8039TIP3    H145608   0.541   0.350  15.784 -0.0068  0.0832 -1.8987
 8039TIP3    H245609   0.689   0.371  15.764 -0.0242  1.0212 -1.0710
 8040TIP3   OH245610   5.081   5.611   1.640 -0.5595 -0.6848 -0.0317
 8040TIP3    H145611   5.027   5.539   1.672 -1.5002  0.9003  2.2223
 8040TIP3    H245612   5.018   5.674   1.604 -0.1224  0.4922  1.1703
 8041TIP3   OH245613   3.053   3.368  12.398 -0.1440 -0.0152 -0.0110
 8041TIP3    H145614   2.967   3.370  12.440 -0.4876 -0.5825 -0.6486
 8041TIP3    H245615   3.060   3.452  12.352 -0.5021 -0.0934 -0.2154
 8042TIP3   OH245616   1.343   4.591   3.653  0.2149 -0.0700  1.1937
 8042TIP3    H145617   1.263   4.636   3.681  0.0488  1.8020 -1.8617
 8042TIP3    H245618   1.411   4.659   3.655  1.0161 -0.8374  0.7757
 8043TIP3   OH245619   1.475   6.505   4.805  0.0851  0.7317 -0.5446
 8043TIP3    H145620   1.541   6.464   4.862  1.7445 -0.1972 -2.9737
 8043TIP3    H245621   1.391   6.474   4.839  0.8046  1.6900  2.4730
 8044TIP3   OH245622   4.067   2.093  16.395 -0.3836  0.1630  0.5544
 8044TIP3    H145623   4.073   2.012  16.345  1.0131 -0.1389  1.1512
 8044TIP3    H245624   3.988   2.136  16.363 -1.0479 -1.3492  0.1099
 8045TIP3   OH245625   5.202   5.250  13.039 -0.1815  0.3851  0.5875
 8045TIP3    H145626   5.233   5.248  13.129  1.6671 -1.4740 -0.0070
 8045TIP3    H245627   5.276   5.284  12.989 -1.1158  1.2115 -0.2864
 8046TIP3   OH245628   2.984   2.044  12.456 -0.0252  0.2540 -0.1961
 8046TIP3    H145629   3.060   2.089  12.418 -0.7599  1.0916 -0.7253
 8046TIP3    H245630   2.909   2.095  12.425 -0.7927 -0.4596  0.4574
 8047TIP3   OH245631   4.786   6.733   0.742 -0.3248 -0.7085 -0.0768
 8047TIP3    H145632   4.830   6.790   0.678 -1.4324  0.8841  0.5261
 8047TIP3    H245633   4.792   6.781   0.824 -0.9337 -1.6704  0.5395
 8048TIP3   OH245634   0.607   2.608  14.445 -0.7610 -0.4911  0.1075
 8048TIP3    H145635   0.515   2.581  14.436 -1.7019  1.9649  1.4135
 8048TIP3    H245636   0.610   2.697  14.411  0.8337 -0.0491  1.2569
 8049TIP3   OH245637   0.189   2.465   1.055  0.2368  0.2188  0.2159
 8049TIP3    H145638   0.177   2.425   0.969 -2.0377  1.2102 -0.0050
 8049TIP3    H245639   0.222   2.395   1.110  0.4677 -0.7846 -1.1434
 8050TIP3   OH245640   0.567   4.460  12.592  0.2965  0.6025 -0.3637
 8050TIP3    H145641   0.537   4.505  12.513  2.1524 -1.7662 -2.5524
 8050TIP3    H245642   0.655   4.429  12.571  1.7362  1.5588  3.3984
 8051TIP3   OH245643   0.435   5.767   1.360 -0.0939 -0.2414  0.0390
 8051TIP3    H145644   0.400   5.749   1.447  2.0382 -0.2678  0.9356
 8051TIP3    H245645   0.453   5.861   1.361 -0.4507 -0.1609 -0.5433
 8052TIP3   OH245646   2.058   6.086  16.706 -0.0175  0.0587  0.4725
 8052TIP3    H145647   2.101   6.054  16.627  0.7144 -1.2113  1.3522
 8052TIP3    H245648   1.985   6.025  16.720 -1.4888  1.5233 -0.3705
 8053TIP3   OH245649   5.245   2.749  16.566  0.3896  0.4801 -0.1174
 8053TIP3    H145650   5.210   2.661  16.579  2.9061 -0.9491 -2.0088
 8053TIP3    H245651   5.168   2.806  16.561 -1.2946 -1.4840  1.6827
 8054TIP3   OH245652   0.579   3.892   2.673 -0.1597 -0.2912  0.1261
 8054TIP3    H145653   0.600   3.802   2.700 -0.2178  0.1342  1.7129
 8054TIP3    H245654   0.661   3.927   2.641  0.3489 -0.3185  1.3319
 8055TIP3   OH245655   6.792   2.749   5.413 -0.1015 -0.3212  0.2664
 8055TIP3    H145656   6.731   2.766   5.484 -1.4985 -2.1492 -0.4282
 8055TIP3    H245657   6.746   2.776   5.334  0.3866 -0.7516 -0.1787
 8056TIP3   OH245658   0.048   0.933  11.172 -0.5507 -0.4901 -0.5364
 8056TIP3    H145659   0.141   0.933  11.196 -0.5204  0.9389 -0.5359
 8056TIP3    H245660   0.043   0.881  11.092  0.9849  2.6257 -2.8968
 8057TIP3   OH245661   2.815   6.113  13.194  0.1276 -0.0362  0.2729
 8057TIP3    H145662   2.826   6.177  13.123  0.3084  0.8747  1.1120
 8057TIP3    H245663   2.722   6.115  13.215  0.0809 -0.2784  0.0981
 8058TIP3   OH245664   6.338   4.549   1.460  0.0175 -0.5891 -0.1038
 8058TIP3    H145665   6.271   4.616   1.468  1.1069  0.6191 -0.7643
 8058TIP3    H245666   6.330   4.498   1.541 -2.1037 -0.9025 -0.4650
 8059TIP3   OH245667   6.553   1.279   5.346  0.9470  0.3350  0.1047
 8059TIP3    H145668   6.492   1.209   5.367  0.6003  0.7697  0.5823
 8059TIP3    H245669   6.611   1.284   5.422 -0.0416  1.6253  0.8167
 8060TIP3   OH245670   1.267   3.131   2.964 -0.0411  0.6520  0.1112
 8060TIP3    H145671   1.252   3.118   3.058 -0.2689 -0.7415 -0.0954
 8060TIP3    H245672   1.251   3.224   2.950  0.0886  0.9047  1.4711
 8061TIP3   OH245673   2.416   1.808   3.579 -0.2758  0.0705 -0.2149
 8061TIP3    H145674   2.496   1.807   3.632 -0.9745 -0.6207  0.8766
 8061TIP3    H245675   2.433   1.747   3.507  0.2417  0.0634 -0.0878
 8062TIP3   OH245676   0.927   5.045   2.195 -0.1074  0.5477 -0.1013
 8062TIP3    H145677   0.934   5.004   2.109 -0.0877 -0.6013  0.4414
 8062TIP3    H245678   0.838   5.027   2.224  0.0790  0.3819  0.3911
 8063TIP3   OH245679   5.565   5.321  14.457 -0.4564 -0.4310  0.0028
 8063TIP3    H145680   5.476   5.356  14.452 -0.9989 -1.5984  1.0386
 8063TIP3    H245681   5.561   5.238  14.409  0.9489  1.0221 -2.9289
 8064TIP3   OH245682   1.682   5.668  16.781  0.4016 -0.1542 -1.0384
 8064TIP3    H145683   1.649   5.592  16.829  1.3619  0.1705  0.2122
 8064TIP3    H245684   1.615   5.735  16.793  1.4498  0.5560  1.6119
 8065TIP3   OH245685   6.048   2.104   4.230  0.3040 -0.0941  0.0983
 8065TIP3    H145686   6.052   2.021   4.276  0.0657  0.3237  0.8987
 8065TIP3    H245687   5.957   2.132   4.240 -0.6783 -1.5298 -3.4420
 8066TIP3   OH245688   0.042   0.261   0.655 -0.0708 -0.3822  0.3053
 8066TIP3    H145689   0.066   0.222   0.571 -1.3610  0.8866 -0.6831
 8066TIP3    H245690  -0.021   0.199   0.692 -1.7129  0.4270 -1.0166
 8067TIP3   OH245691   0.514   2.894  15.254  0.1321 -0.1642 -0.0101
 8067TIP3    H145692   0.466   2.846  15.187  0.4744 -0.8696  0.2402
 8067TIP3    H245693   0.602   2.858  15.252  0.6226  1.0074 -0.3493
 8068TIP3   OH245694   5.542   1.281  12.751 -0.2772  0.2118  0.2757
 8068TIP3    H145695   5.596   1.215  12.708 -0.7123  0.8160 -1.2910
 8068TIP3    H245696   5.584   1.296  12.836  2.7584  1.5106 -1.2954
 8069TIP3   OH245697   1.353   5.165  15.311 -0.0533  0.5761 -0.0285
 8069TIP3    H145698   1.447   5.151  15.313  0.1895  2.1029  1.3179
 8069TIP3    H245699   1.332   5.173  15.218  1.2128  0.7017 -0.3210
 8070TIP3   OH245700   6.360   6.313   0.289 -0.0348  0.9805  0.0536
 8070TIP3    H145701   6.310   6.246   0.242 -0.0734  0.5216  0.7390
 8070TIP3    H245702   6.416   6.353   0.222  2.0503 -1.6216  0.0825
 8071TIP3   OH245703   1.140   1.837  12.332 -0.3106  0.4558  0.0797
 8071TIP3    H145704   1.046   1.822  12.320 -0.3120 -0.6005  1.1980
 8071TIP3    H245705   1.146   1.889  12.412  0.0644  0.4973  0.0256
 8072TIP3   OH245706   1.639   3.569  12.967 -0.6557 -0.3350 -0.3278
 8072TIP3    H145707   1.713   3.519  13.002 -0.1297  0.4653 -0.2605
 8072TIP3    H245708   1.605   3.515  12.896  1.4619  0.2760 -1.9293
 8073TIP3   OH245709   5.389   4.123  12.516  0.3250  0.3174  0.1942
 8073TIP3    H145710   5.322   4.087  12.574  1.7280  0.4217  1.9500
 8073TIP3    H245711   5.453   4.053  12.506  0.2972  0.4364 -0.9504
 8074TIP3   OH245712   2.982   5.976   0.984 -0.3600 -0.4289  0.0911
 8074TIP3    H145713   3.062   5.994   0.933 -0.3367 -0.7887  0.0012
 8074TIP3    H245714   3.014   5.954   1.072 -0.4608  1.8315  0.7601
 8075TIP3   OH245715   1.295   2.168   6.217  0.0094 -0.4934  0.2279
 8075TIP3    H145716   1.230   2.234   6.191  1.1711  0.0875 -1.2783
 8075TIP3    H245717   1.257   2.129   6.296 -1.3945  0.9662  0.3409
 8076TIP3   OH245718   6.698   1.437   2.758 -0.2034 -0.8087 -0.6429
 8076TIP3    H145719   6.793   1.425   2.758 -0.1711 -0.7644 -2.2433
 8076TIP3    H245720   6.684   1.514   2.813  0.8147 -0.1060 -1.3249
 8077TIP3   OH245721   3.822   1.159  11.230  0.1905 -0.0198  0.1717
 8077TIP3    H145722   3.898   1.202  11.269 -0.0658  0.0842  0.5620
 8077TIP3    H245723   3.777   1.117  11.304  0.5638 -1.1681 -0.2274
 8078TIP3   OH245724   4.928   4.818  13.430  0.0746  0.2016  0.1861
 8078TIP3    H145725   4.835   4.804  13.411  0.3407  0.5354 -1.5506
 8078TIP3    H245726   4.950   4.750  13.494 -1.9592  1.8085  2.7980
 8079TIP3   OH245727   6.096   4.265   4.533 -0.0154 -0.1020  0.0861
 8079TIP3    H145728   6.048   4.332   4.581  0.8558 -0.0383  0.8978
 8079TIP3    H245729   6.034   4.192   4.527 -0.3529  0.1130  0.7780
 8080TIP3   OH245730   4.828   2.568   2.910  0.5564  0.5235  0.1802
 8080TIP3    H145731   4.845   2.544   2.819 -0.6979 -0.5303  0.1954
 8080TIP3    H245732   4.893   2.519   2.960  0.4693  0.1599 -0.0624
 8081TIP3   OH245733   2.702   0.332   4.555 -0.5200  0.3224  0.3869
 8081TIP3    H145734   2.746   0.281   4.487 -2.8359 -1.0182 -0.2279
 8081TIP3    H245735   2.751   0.414   4.559  0.4520 -0.0441 -2.0389
 8082TIP3   OH245736   0.535   1.561  16.496  0.1689 -0.0161 -0.1498
 8082TIP3    H145737   0.500   1.623  16.559 -1.2075 -0.4643 -0.4395
 8082TIP3    H245738   0.521   1.475  16.535 -0.5506 -0.2913 -0.9737
 8083TIP3   OH245739   6.133   5.465  16.441 -0.0579  0.0454 -0.3833
 8083TIP3    H145740   6.121   5.371  16.448  2.2452 -0.5789 -3.0428
 8083TIP3    H245741   6.182   5.490  16.519 -0.3953 -1.0043  0.1736
 8084TIP3   OH245742   6.362   2.225  11.590 -0.1323  0.2902  0.1119
 8084TIP3    H145743   6.356   2.315  11.621 -0.4912  0.4967 -0.5381
 8084TIP3    H245744   6.318   2.226  11.505 -0.7461 -0.6438  0.4068
 8085TIP3   OH245745   2.332   6.608   2.748 -0.2897  0.1245 -0.0236
 8085TIP3    H145746   2.324   6.575   2.837  0.2849 -0.1759 -0.0738
 8085TIP3    H245747   2.426   6.623   2.736 -0.3077 -0.2259 -0.7076
 8086TIP3   OH245748   5.831   3.889  13.997  0.6073  0.8859 -0.2064
 8086TIP3    H145749   5.835   3.903  13.903  0.7838  2.3801  0.0007
 8086TIP3    H245750   5.805   3.797  14.007 -1.5426  1.2715 -1.6975
 8087TIP3   OH245751   5.679   0.524  13.013 -0.7024 -0.0746  0.1814
 8087TIP3    H145752   5.714   0.545  12.927  2.8243  1.8212  1.8494
 8087TIP3    H245753   5.595   0.569  13.018  0.3909  2.2702 -1.2733
 8088TIP3   OH245754   2.489   1.323   4.967  0.3504  0.3109 -0.0322
 8088TIP3    H145755   2.479   1.397   5.027  1.3655  0.7426 -0.3808
 8088TIP3    H245756   2.399   1.291   4.954  0.0095  0.8143  0.9431
 8089TIP3   OH245757   0.922   6.767   2.464 -0.0344 -0.4448  0.2542
 8089TIP3    H145758   0.948   6.789   2.375 -1.5089 -0.9536 -0.3374
 8089TIP3    H245759   0.883   6.680   2.457 -0.1699 -0.4863  1.3894
 8090TIP3   OH245760   6.503   5.410  16.827  0.3068 -0.5026 -0.0138
 8090TIP3    H145761   6.532   5.378  16.913 -0.2379  2.4899  1.4255
 8090TIP3    H245762   6.548   5.494  16.817  0.4852 -0.8507 -2.7957
 8091TIP3   OH245763   2.352   6.152   1.235 -0.7647 -0.3193 -0.2860
 8091TIP3    H145764   2.394   6.077   1.192  0.6528  0.3644 -0.1300
 8091TIP3    H245765   2.259   6.130   1.234 -0.3131 -2.6181  0.7592
 8092TIP3   OH245766   5.359   5.184  16.369  0.6425  0.4345  0.5620
 8092TIP3    H145767   5.299   5.253  16.338 -0.6803 -1.5319 -1.5480
 8092TIP3    H245768   5.445   5.212  16.338  0.2036  1.3551  0.1256
 8093TIP3   OH245769   5.126   1.685  12.468 -0.4479 -0.2761 -0.2940
 8093TIP3    H145770   5.126   1.645  12.380 -1.4261  1.0399 -0.9220
 8093TIP3    H245771   5.067   1.630  12.519 -0.7039 -0.4311 -0.7519
 8094TIP3   OH245772   4.944   4.887  11.662 -0.3698  0.2118  0.0646
 8094TIP3    H145773   4.877   4.821  11.642  0.2423 -0.2736 -0.4480
 8094TIP3    H245774   5.024   4.852  11.622  0.8436 -0.5798  2.9134
 8095TIP3   OH245775   4.339   3.689  13.184 -0.0034 -0.5481 -0.0093
 8095TIP3    H145776   4.261   3.719  13.136  0.1980  0.5591  0.3151
 8095TIP3    H245777   4.408   3.688  13.118  0.4479  1.6895  0.3346
 8096TIP3   OH245778   1.808   2.816  16.459  0.0851 -0.6497  0.6875
 8096TIP3    H145779   1.856   2.737  16.483  0.6636 -0.3195  0.6395
 8096TIP3    H245780   1.873   2.872  16.418 -0.5845 -0.6160 -0.3521
 8097TIP3   OH245781   5.437   2.216  13.505 -0.1257 -0.4211  0.0845
 8097TIP3    H145782   5.412   2.130  13.472 -1.2257  0.0736 -0.3868
 8097TIP3    H245783   5.525   2.230  13.469 -0.3913 -0.8643 -0.7631
 8098TIP3   OH245784   6.764   4.948  13.297 -0.1966 -0.3633  0.0916
 8098TIP3    H145785   6.671   4.970  13.295 -0.2800 -0.1947  2.7842
 8098TIP3    H245786   6.766   4.858  13.329  0.5808 -0.2351  0.4084
 8099TIP3   OH245787   5.632   0.253   0.159 -0.3617 -0.0432 -0.3275
 8099TIP3    H145788   5.726   0.262   0.174 -0.6264  0.8528  0.8926
 8099TIP3    H245789   5.595   0.234   0.245 -1.2467 -1.0248 -0.8934
 8100TIP3   OH245790   1.292   4.562  15.744 -0.4236 -0.1649  0.2446
 8100TIP3    H145791   1.296   4.553  15.649  1.8566  3.0593 -0.1388
 8100TIP3    H245792   1.362   4.505  15.776 -1.1750 -1.2356  0.0250
 8101TIP3   OH245793   1.094   5.552   4.804 -0.0200 -0.0080  0.1110
 8101TIP3    H145794   1.166   5.612   4.787  0.5288 -0.7725 -0.2888
 8101TIP3    H245795   1.057   5.534   4.718  2.0491 -2.9925 -0.3011
 8102TIP3   OH245796   6.790   4.239   1.672  0.2692 -0.4497  0.7344
 8102TIP3    H145797   6.797   4.152   1.633 -2.4025 -0.1631 -0.6141
 8102TIP3    H245798   6.724   4.230   1.741 -0.2418  0.5137  0.4043
 8103TIP3   OH245799   1.760   5.882  12.369 -0.0904 -0.3224 -0.3375
 8103TIP3    H145800   1.855   5.893  12.378 -0.2499  0.9392  0.0118
 8103TIP3    H245801   1.747   5.788  12.370  0.9990 -0.5192  1.6262
 8104TIP3   OH245802   2.945   2.060   3.453 -0.4647  0.0253 -0.0407
 8104TIP3    H145803   2.996   2.019   3.523 -0.0275 -0.6861 -0.7633
 8104TIP3    H245804   2.952   2.154   3.470 -1.8571 -0.1804  1.8993
 8105TIP3   OH245805   5.914   1.419   6.544  0.3564 -0.5071  0.3571
 8105TIP3    H145806   5.931   1.371   6.625 -1.3366  1.0333  1.7386
 8105TIP3    H245807   5.830   1.384   6.513 -1.8462  2.4116  2.3320
 8106TIP3   OH245808   6.461   3.910   1.607  0.1658 -0.1245 -0.5588
 8106TIP3    H145809   6.456   3.821   1.570 -0.0028 -0.4273  0.1794
 8106TIP3    H245810   6.454   3.897   1.701  2.4021  0.4893 -0.2510
 8107TIP3   OH245811   5.037   2.165  10.232 -0.4655  0.0673 -0.1869
 8107TIP3    H145812   5.118   2.209  10.260 -0.5211 -0.7826  1.4061
 8107TIP3    H245813   5.065   2.077  10.206 -0.8654 -0.2099  0.3124
 8108TIP3   OH245814   0.118   2.517  13.792 -0.1246 -0.3630 -0.3702
 8108TIP3    H145815   0.061   2.552  13.861 -1.0490 -0.1583 -1.2120
 8108TIP3    H245816   0.123   2.588  13.728  0.9149 -0.4645 -0.4086
 8109TIP3   OH245817   2.667   6.407  16.253 -0.2636  0.1784 -0.0060
 8109TIP3    H145818   2.678   6.488  16.202 -0.5220  0.1408 -0.1241
 8109TIP3    H245819   2.579   6.377  16.230 -0.4226  0.2155  0.5423
 8110TIP3   OH245820   2.621   0.003   3.756 -0.7522  0.5528  0.5921
 8110TIP3    H145821   2.630   0.096   3.734 -2.5459  0.2987 -1.4891
 8110TIP3    H245822   2.536  -0.003   3.800  0.0881  0.0820  2.2627
 8111TIP3   OH245823   4.291   4.634   4.814  0.0762 -0.0136  0.2919
 8111TIP3    H145824   4.233   4.616   4.740 -0.3825  0.0226  0.6377
 8111TIP3    H245825   4.307   4.549   4.853  0.3704 -0.0404  0.1103
 8112TIP3   OH245826   6.354   3.727  11.424 -0.3392  0.3185  0.1848
 8112TIP3    H145827   6.420   3.683  11.477 -1.1637 -1.1315  0.0865
 8112TIP3    H245828   6.372   3.699  11.335 -1.3573 -0.5282  0.2160
 8113TIP3   OH245829   5.539   3.884   2.546  0.1241  0.4286 -0.1715
 8113TIP3    H145830   5.592   3.804   2.544  1.9730  1.6014 -0.6153
 8113TIP3    H245831   5.494   3.884   2.461 -2.4768 -1.7155  1.0933
 8114TIP3   OH245832   2.650   3.066   2.030 -0.5016 -0.1261  0.0614
 8114TIP3    H145833   2.586   3.005   1.995 -0.4002 -0.2063  0.0144
 8114TIP3    H245834   2.610   3.152   2.019 -0.5765 -0.1715 -0.0200
 8115TIP3   OH245835   5.312   5.990   2.373  0.1128 -0.3645  0.7181
 8115TIP3    H145836   5.405   5.998   2.391  0.0980  0.3950  0.4975
 8115TIP3    H245837   5.269   6.030   2.448 -0.0216 -0.1899  0.5494
 8116TIP3   OH245838   0.306   2.717  13.133  0.9400  1.1363 -0.1469
 8116TIP3    H145839   0.290   2.624  13.115 -0.5140  0.8886  2.1136
 8116TIP3    H245840   0.382   2.718  13.190  1.6957  1.4514 -1.1369
 8117TIP3   OH245841   3.835   2.596   2.120 -0.4350 -0.0739 -0.6139
 8117TIP3    H145842   3.757   2.649   2.138  0.2153  0.0715  2.4339
 8117TIP3    H245843   3.908   2.651   2.151  0.4754 -1.7269  0.2871
 8118TIP3   OH245844   6.261   4.249  15.103 -0.1778 -0.5921  0.1814
 8118TIP3    H145845   6.325   4.183  15.128  0.2186  0.1321  1.1591
 8118TIP3    H245846   6.312   4.330  15.098 -0.8471 -0.1748  0.0336
 8119TIP3   OH245847   4.423   1.524   1.770 -0.3399  0.0887 -0.0546
 8119TIP3    H145848   4.395   1.554   1.683 -2.4470  0.4070  0.6765
 8119TIP3    H245849   4.406   1.429   1.769  1.8780 -0.3450 -0.7572
 8120TIP3   OH245850   3.189   6.046   3.077 -0.0179  0.0932 -0.1820
 8120TIP3    H145851   3.244   5.994   3.019  0.1916  0.2169 -0.0961
 8120TIP3    H245852   3.227   6.133   3.075 -1.0127  0.5256 -1.1710
 8121TIP3   OH245853   1.901   5.712   2.073 -0.2664 -0.0620  0.3033
 8121TIP3    H145854   1.876   5.747   1.988  1.5628  0.4338 -0.0577
 8121TIP3    H245855   1.826   5.731   2.130 -1.3906 -0.1536 -1.1021
 8122TIP3   OH245856   2.902   4.567   1.089  0.0603  0.3730 -0.2205
 8122TIP3    H145857   2.878   4.648   1.044  0.4112  1.1048  0.8687
 8122TIP3    H245858   2.821   4.538   1.131  0.2697  1.0153  0.6634
 8123TIP3   OH245859   4.248   2.248  12.523 -0.2389  0.1685 -0.1280
 8123TIP3    H145860   4.304   2.251  12.600 -0.3705  0.2779 -0.0348
 8123TIP3    H245861   4.271   2.327  12.473  0.3685 -0.2829 -0.5737
 8124TIP3   OH245862   1.597   6.253   0.385 -0.3910 -0.1196  0.0065
 8124TIP3    H145863   1.558   6.331   0.423  2.0409  0.6558  1.1509
 8124TIP3    H245864   1.609   6.275   0.292 -0.5740  0.4919  0.1237
 8125TIP3   OH245865   2.152   2.356   2.567 -0.3377  0.7730  0.5469
 8125TIP3    H145866   2.134   2.270   2.530  0.3922  0.7381  0.2611
 8125TIP3    H245867   2.126   2.418   2.499  3.0739  0.6633 -1.0255
 8126TIP3   OH245868   4.649   3.834  14.418 -0.3782 -0.6032 -0.3606
 8126TIP3    H145869   4.580   3.900  14.426  0.4243  0.3416 -0.9954
 8126TIP3    H245870   4.640   3.801  14.328  0.2711 -0.1633 -0.5877
 8127TIP3   OH245871   6.759   2.194   2.824  0.2989 -0.0613 -0.0717
 8127TIP3    H145872   6.701   2.266   2.848  2.0609  2.6455 -3.0843
 8127TIP3    H245873   6.712   2.147   2.755  0.0166 -0.5380  0.4338
 8128TIP3   OH245874   1.015   3.123  16.516  0.0299 -0.3103  0.0195
 8128TIP3    H145875   0.992   3.174  16.438 -0.1783  0.1702  0.3934
 8128TIP3    H245876   1.010   3.032  16.487  1.1873 -0.1212 -0.8809
 8129TIP3   OH245877   6.424   0.447  16.509 -0.4822  0.3143  0.3012
 8129TIP3    H145878   6.374   0.390  16.568  1.1696 -0.9114  0.6125
 8129TIP3    H245879   6.408   0.535  16.541 -2.0939 -0.0508  0.6194
 8130TIP3   OH245880   5.365   0.732   5.672 -0.6427 -0.5281 -0.3444
 8130TIP3    H145881   5.312   0.671   5.723  1.2831 -2.2301 -0.2072
 8130TIP3    H245882   5.408   0.676   5.607  2.8119  0.2058  1.0706
 8131TIP3   OH245883   5.646   6.425   5.003 -0.0098  0.5136  0.3618
 8131TIP3    H145884   5.650   6.503   5.057 -0.8001  2.3877 -2.1086
 8131TIP3    H245885   5.703   6.443   4.928  0.5571 -1.7027  0.1745
 8132TIP3   OH245886   5.776   1.141   5.735  0.7532  0.7721 -0.1221
 8132TIP3    H145887   5.685   1.111   5.727  0.6350  0.5677  1.4961
 8132TIP3    H245888   5.828   1.060   5.736  0.8126  0.8107  0.2435
 8133TIP3   OH245889   1.969   1.651  14.133 -0.0500  0.3270 -0.6723
 8133TIP3    H145890   1.912   1.654  14.210 -1.2664 -0.2650 -1.5231
 8133TIP3    H245891   2.045   1.600  14.161 -0.5096  0.0602  0.1123
 8134TIP3   OH245892   6.489   4.312   3.686 -0.2511 -0.1043 -0.0506
 8134TIP3    H145893   6.552   4.268   3.630 -0.7855 -1.5382  0.4261
 8134TIP3    H245894   6.430   4.242   3.716  0.8038  0.3068  3.3985
 8135TIP3   OH245895   3.699   1.043  13.825  0.1437  0.1015 -0.7951
 8135TIP3    H145896   3.698   0.955  13.787 -0.0033  0.3299 -1.3198
 8135TIP3    H245897   3.619   1.047  13.877  0.6497 -0.4286  0.0534
 8136TIP3   OH245898   0.893   4.539   0.773  0.2821  0.2977  0.0299
 8136TIP3    H145899   0.811   4.495   0.796  0.2769  1.1085  1.7297
 8136TIP3    H245900   0.871   4.632   0.771  1.0533  0.4855  0.0140
 8137TIP3   OH245901   2.046   3.241  12.141 -0.8839 -0.3024  0.0317
 8137TIP3    H145902   1.987   3.174  12.105 -2.1944  1.1868 -0.6737
 8137TIP3    H245903   2.003   3.324  12.122 -0.7573  0.6787  3.4115
 8138TIP3   OH245904   4.110   3.993   2.188 -0.5425  0.2804 -0.0974
 8138TIP3    H145905   4.129   3.929   2.120  0.1282 -0.0191  0.3601
 8138TIP3    H245906   4.019   3.976   2.213 -0.4920 -0.2246 -0.2579
 8139TIP3   OH245907   3.451   4.627  14.882 -0.0085 -0.3659  0.4606
 8139TIP3    H145908   3.474   4.574  14.958  2.2231  0.5065  0.4549
 8139TIP3    H245909   3.522   4.691  14.875 -0.0101 -0.5822 -2.5205
 8140TIP3   OH245910   4.115   1.536   3.595 -0.2796  0.2540  0.6399
 8140TIP3    H145911   4.105   1.614   3.539  0.3678  0.1213  0.3354
 8140TIP3    H245912   4.146   1.468   3.535 -1.5154 -0.4439  0.7536
 8141TIP3   OH245913   0.585   1.459   5.997  0.0763  0.9045 -0.6277
 8141TIP3    H145914   0.590   1.548   5.960  2.8657  0.9440 -0.3646
 8141TIP3    H245915   0.581   1.472   6.091  0.3656  0.7363 -0.5933
 8142TIP3   OH245916   2.545   2.169   2.986 -0.1510 -0.1411 -0.4631
 8142TIP3    H145917   2.604   2.164   3.062  0.2949  1.0073 -0.7141
 8142TIP3    H245918   2.471   2.113   3.010 -0.3349  0.7130  1.1086
 8143TIP3   OH245919   1.956   1.557   6.126 -0.0626 -0.0895 -0.0971
 8143TIP3    H145920   1.993   1.637   6.163 -0.2874 -0.5393  1.1567
 8143TIP3    H245921   1.982   1.488   6.188  0.3719 -1.0471 -1.2898
 8144TIP3   OH245922   2.333   5.428  11.763  0.5769  0.3255  0.7453
 8144TIP3    H145923   2.428   5.412  11.761  0.6329  0.7081 -1.4414
 8144TIP3    H245924   2.296   5.361  11.706 -0.2827  1.2133  0.2369
 8145TIP3   OH245925   4.577   2.606  17.093 -0.0193  0.7558 -0.3676
 8145TIP3    H145926   4.549   2.529  17.143  0.6229  0.6324 -0.1898
 8145TIP3    H245927   4.504   2.624  17.034  0.3435 -0.8147 -1.3572
 8146TIP3   OH245928   5.565   1.666   3.539 -0.0176 -0.4268 -0.2670
 8146TIP3    H145929   5.564   1.573   3.516 -0.7857 -0.0496 -1.9166
 8146TIP3    H245930   5.538   1.711   3.459 -3.1758  1.0235  1.4012
 8147TIP3   OH245931   2.609   5.611  16.001 -0.6236 -0.0779 -0.2550
 8147TIP3    H145932   2.608   5.642  16.092  0.6601 -0.3240 -0.1257
 8147TIP3    H245933   2.550   5.535  16.001 -0.0739 -0.5289  0.5641
 8148TIP3   OH245934   6.068   3.119  16.729  0.2742 -0.1774  0.2631
 8148TIP3    H145935   6.157   3.144  16.703  0.0473  1.0654  0.5784
 8148TIP3    H245936   6.080   3.076  16.814  0.5494  0.4475  0.5553
 8149TIP3   OH245937   1.687   4.748   1.429  0.2379  0.2385  0.7189
 8149TIP3    H145938   1.759   4.804   1.460  1.7376 -0.8198 -0.6770
 8149TIP3    H245939   1.654   4.792   1.351  1.5035 -0.8178 -0.4540
 8150TIP3   OH245940   1.722   4.193   1.004  0.2944  0.0035 -0.0358
 8150TIP3    H145941   1.699   4.141   1.081 -1.1673  0.5945 -0.0371
 8150TIP3    H245942   1.803   4.238   1.028 -2.0721  3.2842  2.8080
 8151TIP3   OH245943   2.303   5.799  13.405  0.1834 -0.1075  0.0048
 8151TIP3    H145944   2.332   5.779  13.316  0.3708 -0.3386  0.1146
 8151TIP3    H245945   2.363   5.867  13.435 -0.4192  0.5916 -0.3487
 8152TIP3   OH245946   0.188   0.353   3.966 -0.0374 -0.4351  0.0477
 8152TIP3    H145947   0.275   0.381   3.938 -0.6072  0.2315 -1.1818
 8152TIP3    H245948   0.201   0.268   4.008  1.1063 -0.7045 -0.8234
 8153TIP3   OH245949   4.008   0.970   6.282 -0.2635  0.0551  0.5397
 8153TIP3    H145950   4.024   1.064   6.272 -0.8033 -0.1196 -3.2965
 8153TIP3    H245951   3.913   0.961   6.285 -0.2273 -0.4294  0.3411
 8154TIP3   OH245952   4.280   6.071  14.794 -0.0728 -0.3706 -0.0941
 8154TIP3    H145953   4.317   5.995  14.748 -1.8643 -0.7811 -0.9513
 8154TIP3    H245954   4.271   6.138  14.726  0.9253  0.4154  0.5324
 8155TIP3   OH245955   2.849   0.566  13.929  0.0007  0.8013  0.0981
 8155TIP3    H145956   2.847   0.597  14.019  0.6430 -0.5611  0.6088
 8155TIP3    H245957   2.757   0.557  13.904 -0.2660 -1.9765  1.7856
 8156TIP3   OH245958   2.282   6.376  12.753  0.1294 -0.4676  0.8514
 8156TIP3    H145959   2.236   6.362  12.670  0.8036  1.3847  0.1206
 8156TIP3    H245960   2.211   6.389  12.817 -0.5174 -4.4790  1.2456
 8157TIP3   OH245961   0.544   0.980   5.380 -0.0375  0.1851  0.0172
 8157TIP3    H145962   0.504   0.972   5.467  1.5926  0.6603  0.8607
 8157TIP3    H245963   0.628   0.934   5.389  0.2242  0.3954 -1.2697
 8158TIP3   OH245964   6.563   3.095   3.029 -0.6540  0.1830  0.1304
 8158TIP3    H145965   6.544   3.071   3.120  0.5719  0.2040  0.4147
 8158TIP3    H245966   6.589   3.187   3.034  0.4826 -0.1147 -0.0690
 8159TIP3   OH245967   0.842   2.180   4.548  0.0496 -0.2342  0.5268
 8159TIP3    H145968   0.782   2.155   4.478 -0.2544 -0.0564  0.7267
 8159TIP3    H245969   0.928   2.154   4.516  0.0591  0.8804 -0.4092
 8160TIP3   OH245970   1.533   6.216  14.280 -0.6298 -0.6878 -0.0783
 8160TIP3    H145971   1.472   6.289  14.293 -0.9264 -0.7704 -0.9712
 8160TIP3    H245972   1.609   6.239  14.335 -1.4353 -0.5794  1.0279
 8161TIP3   OH245973   4.255   6.522  16.104 -0.3867  0.5933 -0.7947
 8161TIP3    H145974   4.292   6.454  16.048 -0.8636 -0.1364 -0.2474
 8161TIP3    H245975   4.162   6.500  16.112 -0.6869  1.6613 -1.0988
 8162TIP3   OH245976   6.466   0.038  15.615  0.0453  0.2701 -0.0058
 8162TIP3    H145977   6.522   0.027  15.692 -0.3698 -0.3364  0.2243
 8162TIP3    H245978   6.526   0.032  15.540  0.1032 -2.2540  0.1488
 8163TIP3   OH245979   3.087   3.229   2.437 -0.0133 -0.2776  0.0301
 8163TIP3    H145980   3.013   3.194   2.487  0.0736 -0.0223  0.3433
 8163TIP3    H245981   3.162   3.178   2.467 -0.0559 -0.5329 -0.2840
 8164TIP3   OH245982   2.480   1.572   4.354 -0.3580 -0.0480 -0.5925
 8164TIP3    H145983   2.425   1.599   4.428 -0.4735 -0.1011 -0.6609
 8164TIP3    H245984   2.514   1.486   4.379 -0.9685 -0.3854 -0.9171
 8165TIP3   OH245985   1.869   3.364   2.880 -0.4386 -0.5392  0.3173
 8165TIP3    H145986   1.895   3.455   2.868 -0.4405 -0.7805 -1.9334
 8165TIP3    H245987   1.779   3.368   2.910 -0.7390  0.2075 -0.6582
 8166TIP3   OH245988   1.437   1.338  14.082  0.1003 -0.2161  0.3728
 8166TIP3    H145989   1.366   1.287  14.043  0.9548  0.2374 -1.9521
 8166TIP3    H245990   1.487   1.275  14.134 -0.4194 -1.1587 -0.2412
 8167TIP3   OH245991   0.343   1.370  10.331 -0.6691  0.1984  0.6683
 8167TIP3    H145992   0.274   1.417  10.284 -1.5036 -0.6268  1.0158
 8167TIP3    H245993   0.421   1.380  10.277 -0.6027  2.6053  1.0985
 8168TIP3   OH245994   4.394   0.060  11.523  0.2802  0.1894 -0.2950
 8168TIP3    H145995   4.474   0.113  11.517  0.8330 -0.7482 -2.3957
 8168TIP3    H245996   4.343   0.100  11.593  2.2126  1.3413  0.5337
 8169TIP3   OH245997   6.429   4.424  14.360 -0.3220  0.2536 -0.0730
 8169TIP3    H145998   6.470   4.459  14.281  0.6774 -1.6017 -0.4175
 8169TIP3    H245999   6.337   4.447  14.351  0.1658  2.2818 -0.5135
 8170TIP3   OH246000   5.818   1.229  17.186  0.7064 -0.2199  0.0730
 8170TIP3    H146001   5.780   1.235  17.274  0.3201 -0.7857 -0.0545
 8170TIP3    H246002   5.862   1.313  17.174 -1.5111  0.9625 -0.2468
 8171TIP3   OH246003   1.391   2.907  12.483  0.0510 -0.5580 -0.4181
 8171TIP3    H146004   1.452   2.852  12.531 -0.0158  1.1291  1.7505
 8171TIP3    H246005   1.315   2.915  12.540 -0.5117  0.6458 -1.2880
 8172TIP3   OH246006   4.221   5.035  11.656 -0.4410 -0.3909  0.0060
 8172TIP3    H146007   4.286   5.017  11.725 -0.5276 -1.6302 -0.2276
 8172TIP3    H246008   4.171   5.109  11.691  0.1194 -0.3902  0.8627
 8173TIP3   OH246009   2.044   5.777  14.485 -0.0461  0.6986 -0.2332
 8173TIP3    H146010   1.980   5.841  14.453 -0.0127  2.6093  3.0453
 8173TIP3    H246011   2.125   5.799  14.439 -0.6430  1.3583 -1.0061
 8174TIP3   OH246012   0.381   5.460  12.404 -0.9122 -0.5380 -0.0697
 8174TIP3    H146013   0.344   5.537  12.448 -1.5659 -1.0397  0.2792
 8174TIP3    H246014   0.307   5.401  12.392 -0.2137 -1.6026  0.7005
 8175TIP3   OH246015   2.277   3.084   3.438  0.0690 -0.0117  0.3583
 8175TIP3    H146016   2.216   3.016   3.466  0.6426 -0.5451  0.3536
 8175TIP3    H246017   2.237   3.123   3.361 -0.6565  0.2178  0.8382
 8176TIP3   OH246018   5.867   3.195  10.854 -0.0790  0.2759 -0.0805
 8176TIP3    H146019   5.896   3.125  10.795 -0.0121 -1.9366  2.4300
 8176TIP3    H246020   5.942   3.210  10.912  0.3193  3.2954 -1.1881
 8177TIP3   OH246021   6.418   0.948   4.102 -0.4169  0.0111 -0.5597
 8177TIP3    H146022   6.481   0.987   4.040 -0.4136  0.3662 -0.3321
 8177TIP3    H246023   6.462   0.952   4.187  0.0399 -1.4869 -0.6892
 8178TIP3   OH246024   5.999   6.527  11.503 -0.5722 -0.1745  0.1476
 8178TIP3    H146025   5.925   6.582  11.477 -0.5261 -0.5671 -0.8557
 8178TIP3    H246026   5.986   6.445  11.455  0.7235 -0.1135 -0.3303
 8179TIP3   OH246027   1.065   4.614   4.377  0.0707  0.3492 -0.1399
 8179TIP3    H146028   0.976   4.590   4.401  0.7516 -0.8922  1.3344
 8179TIP3    H246029   1.079   4.700   4.417 -0.7737  1.0223 -1.2498
 8180TIP3   OH246030   3.600   0.182   1.758  0.2541 -0.5469  0.0809
 8180TIP3    H146031   3.514   0.144   1.740  0.5939 -1.6076  0.6072
 8180TIP3    H246032   3.598   0.202   1.852 -0.0556  1.1564 -0.2453
 8181TIP3   OH246033   6.728   3.363   1.018  0.2793  0.8424 -0.2023
 8181TIP3    H146034   6.689   3.321   1.094 -0.4208  1.1538 -0.3862
 8181TIP3    H246035   6.655   3.403   0.971  0.8123  1.4308 -0.5548
 8182TIP3   OH246036   2.967   5.004   2.950  0.0955  0.7241  0.3674
 8182TIP3    H146037   2.986   5.067   2.881 -2.5556  1.6718  0.3706
 8182TIP3    H246038   2.947   4.922   2.904  0.0756  0.8685  0.1220
 8183TIP3   OH246039   1.590   1.256   5.256  0.1767  0.6164  0.0963
 8183TIP3    H146040   1.519   1.197   5.282 -1.1976  1.9482 -0.4794
 8183TIP3    H246041   1.564   1.342   5.291  0.6124  1.4854 -1.5897
 8184TIP3   OH246042   3.866   1.589  12.068 -0.0107 -0.5919 -0.1910
 8184TIP3    H146043   3.869   1.506  12.114 -0.8561  0.3965  1.7856
 8184TIP3    H246044   3.857   1.655  12.137 -0.0381  1.1005 -1.7080
 8185TIP3   OH246045   3.137   3.035   4.549 -0.0363  0.2361 -0.0692
 8185TIP3    H146046   3.185   2.962   4.588  1.1668 -0.0738 -2.0190
 8185TIP3    H246047   3.093   2.997   4.473 -0.7257  1.2111 -0.1730
 8186TIP3   OH246048   3.439   3.864   5.892  0.2315 -0.3360  0.3228
 8186TIP3    H146049   3.449   3.890   5.984 -0.1503 -0.8065  0.4983
 8186TIP3    H246050   3.429   3.769   5.894  1.0757 -0.4485 -0.2794
 8187TIP3   OH246051   3.061   2.631  15.623  0.8194 -0.6611 -0.2112
 8187TIP3    H146052   2.971   2.641  15.656  1.6068 -1.0959  2.3121
 8187TIP3    H246053   3.089   2.720  15.604  0.3332 -0.3653  0.4054
 8188TIP3   OH246054   5.740   4.460   6.535  0.3075  0.1306 -0.2501
 8188TIP3    H146055   5.659   4.506   6.558  0.2721 -0.3441  0.6046
 8188TIP3    H246056   5.742   4.384   6.593  1.5663  0.3527  0.0228
 8189TIP3   OH246057   6.555   0.439   6.571 -0.0610 -0.1174  0.0961
 8189TIP3    H146058   6.498   0.484   6.509 -0.5493  0.7155  1.1151
 8189TIP3    H246059   6.496   0.396   6.632  0.4152 -0.7114  0.1590
 8190TIP3   OH246060   6.235   0.450  12.455  0.4522 -0.6700 -0.3398
 8190TIP3    H146061   6.172   0.450  12.384 -0.3255 -1.0767  0.3407
 8190TIP3    H246062   6.206   0.382  12.515  0.3927  0.4483  0.9688
 8191TIP3   OH246063   2.572   2.758  14.932 -0.2291 -0.1714 -0.1281
 8191TIP3    H146064   2.493   2.709  14.957  0.2703 -1.8071 -1.5257
 8191TIP3    H246065   2.632   2.744  15.004 -1.1297  0.9543  0.8804
 8192TIP3   OH246066   6.412   4.757   3.686  0.3355  0.0091 -0.0272
 8192TIP3    H146067   6.353   4.817   3.641 -0.2786  0.6958  1.5804
 8192TIP3    H246068   6.467   4.814   3.740  2.9631 -0.5678 -1.9384
 8193TIP3   OH246069   4.567   1.478  12.938 -0.7194  0.3750 -0.2901
 8193TIP3    H146070   4.553   1.399  12.990 -0.4254 -0.1217 -0.9530
 8193TIP3    H246071   4.647   1.516  12.975  0.3979 -0.8259 -1.3669
 8194TIP3   OH246072   0.174   5.803   4.619  1.0435 -0.0159 -0.1193
 8194TIP3    H146073   0.214   5.873   4.567  1.3185  0.5892  0.8761
 8194TIP3    H246074   0.094   5.780   4.572  0.9507  0.9737 -0.4561
 8195TIP3   OH246075   2.640   0.355   5.965 -0.2990  0.1890  0.0561
 8195TIP3    H146076   2.637   0.441   6.007  1.8538  0.5886 -0.4894
 8195TIP3    H246077   2.713   0.310   6.008 -0.0280 -0.5521 -1.1272
 8196TIP3   OH246078   3.383   4.499  11.987 -0.4566  0.3039 -0.1019
 8196TIP3    H146079   3.306   4.485  11.932 -0.0768  1.0908 -0.8524
 8196TIP3    H246080   3.451   4.445  11.948 -0.4794  0.0270  0.2397
 8197TIP3   OH246081   1.466   6.234  13.570 -0.3342 -0.3221 -0.4121
 8197TIP3    H146082   1.403   6.219  13.641 -1.6761  2.0209 -1.0303
 8197TIP3    H246083   1.518   6.308  13.600 -0.2717  0.0663 -1.4522
 8198TIP3   OH246084   5.238   0.432  13.531 -0.7430 -0.1666 -0.0572
 8198TIP3    H146085   5.169   0.392  13.584 -1.4948  2.5875  1.2372
 8198TIP3    H246086   5.196   0.508  13.491  0.9729  0.2705 -1.1236
 8199TIP3   OH246087   5.559   6.785  14.653  0.3884  0.4315  0.0188
 8199TIP3    H146088   5.465   6.801  14.647  0.4673  0.3355 -2.9509
 8199TIP3    H246089   5.566   6.690  14.666  0.0700  0.3996 -0.0243
 8200TIP3   OH246090   2.761   0.753  14.446  0.5252  0.1777  0.4807
 8200TIP3    H146091   2.821   0.777  14.375  1.3073 -0.6974  0.8175
 8200TIP3    H246092   2.741   0.836  14.490 -3.4469  1.5829 -3.2432
 8201TIP3   OH246093   3.278   1.561   5.858  0.5291  0.3625 -0.6067
 8201TIP3    H146094   3.305   1.476   5.823 -0.3717  0.4895 -1.6921
 8201TIP3    H246095   3.218   1.539   5.930 -0.5508  0.0283 -1.5637
 8202TIP3   OH246096   6.274   5.369  16.208  0.5854 -0.4236  0.3413
 8202TIP3    H146097   6.232   5.299  16.158  0.1739  0.5290 -0.6786
 8202TIP3    H246098   6.200   5.417  16.247  0.6944  1.0196 -1.1322
 8203TIP3   OH246099   3.633   2.918   0.934  0.2527 -0.0599 -0.5620
 8203TIP3    H146100   3.723   2.944   0.915 -0.1187  1.2164 -0.6815
 8203TIP3    H246101   3.629   2.826   0.910  1.3525  0.0352 -1.1904
 8204TIP3   OH246102   5.333   6.278   5.399  0.2581 -0.1120 -0.4714
 8204TIP3    H146103   5.244   6.252   5.377  0.7019 -1.1815 -1.0859
 8204TIP3    H246104   5.383   6.197   5.398  0.9277  0.2173  1.5821
 8205TIP3   OH246105   1.641   2.832   4.872  0.4837  0.2079 -0.5273
 8205TIP3    H146106   1.553   2.869   4.874  1.3500  2.3818 -0.5872
 8205TIP3    H246107   1.684   2.869   4.949  1.0332 -1.7566  0.1707
 8206TIP3   OH246108   4.915   6.656  12.706  0.4916  0.1836  0.3541
 8206TIP3    H146109   4.910   6.749  12.683 -1.6670  0.1977  0.6490
 8206TIP3    H246110   4.914   6.611  12.622  0.7682  0.4026  0.2307
 8207TIP3   OH246111   5.913   4.264   1.022 -0.0676  0.6039 -0.4159
 8207TIP3    H146112   5.833   4.285   1.070 -0.3224  1.9284 -1.3597
 8207TIP3    H246113   5.943   4.348   0.987  0.5724 -0.1692 -1.8427
 8208TIP3   OH246114   6.223   0.382   3.463  0.3458  0.2211  0.2698
 8208TIP3    H146115   6.138   0.395   3.505  0.0890 -1.4302  0.3429
 8208TIP3    H246116   6.273   0.329   3.525  0.9613  0.0762 -0.3296
 8209TIP3   OH246117   3.215   2.280   6.520 -0.4563 -0.3273  0.4731
 8209TIP3    H146118   3.275   2.354   6.528 -0.4529 -0.4350  1.6533
 8209TIP3    H246119   3.144   2.312   6.465  0.1585  0.1445 -0.0565
 8210TIP3   OH246120   6.357   6.025   2.074 -0.4127 -0.2890  0.0210
 8210TIP3    H146121   6.386   6.104   2.028 -1.5133 -0.0599 -0.3359
 8210TIP3    H246122   6.274   6.052   2.115 -0.6879 -1.1941  0.0729
 8211TIP3   OH246123   3.006   2.769   6.380  0.0713  0.1990  0.4184
 8211TIP3    H146124   2.923   2.764   6.332 -0.0686 -1.4781  0.8028
 8211TIP3    H246125   2.989   2.727   6.464  1.4454 -0.6876  0.2944
 8212TIP3   OH246126   5.028   4.575   3.655  0.4765 -0.3213  0.3992
 8212TIP3    H146127   4.941   4.570   3.616  0.2974 -1.0741  0.8754
 8212TIP3    H246128   5.013   4.601   3.746  0.7529 -0.3477  0.4551
 8213TIP3   OH246129   4.505   0.824   4.969  0.0649 -0.5509 -0.7843
 8213TIP3    H146130   4.480   0.902   4.918  0.7143 -1.0516 -1.8933
 8213TIP3    H246131   4.580   0.852   5.020 -0.9440  0.1260  0.3842
 8214TIP3   OH246132   0.185   0.594   2.606  0.7881  0.1352  0.2513
 8214TIP3    H146133   0.115   0.588   2.671  0.7999  1.1820  0.3825
 8214TIP3    H246134   0.193   0.688   2.588  0.3203 -0.1756 -1.7839
 8215TIP3   OH246135   1.990   5.553   4.026  0.4892 -0.8658  0.0647
 8215TIP3    H146136   1.911   5.538   4.078 -0.9320 -1.3312 -2.1192
 8215TIP3    H246137   1.974   5.636   3.981  0.6779 -1.5655 -1.3388
 8216TIP3   OH246138   4.484   4.495   0.879  0.2532 -0.2991  0.6503
 8216TIP3    H146139   4.541   4.531   0.811 -0.9927  1.7368  0.6029
 8216TIP3    H246140   4.421   4.441   0.832 -0.0035  0.3113  0.2819
 8217TIP3   OH246141   0.635   1.669   3.239 -0.5567 -0.2093  0.1546
 8217TIP3    H146142   0.544   1.649   3.220 -0.2677 -0.6077 -0.8513
 8217TIP3    H246143   0.685   1.601   3.195  0.3094  1.1042 -1.0060
 8218TIP3   OH246144   2.240   0.228   0.600  0.2050 -0.0492  0.4371
 8218TIP3    H146145   2.310   0.212   0.537  0.8569  0.4661  1.0169
 8218TIP3    H246146   2.160   0.225   0.547  0.7709  0.8383 -0.5100
 8219TIP3   OH246147   1.642   6.635   1.351 -0.0421 -0.2099 -0.6703
 8219TIP3    H146148   1.622   6.719   1.391  0.6627  0.3751 -1.5245
 8219TIP3    H246149   1.569   6.618   1.292 -1.3684 -1.3347  1.1622
 8220TIP3   OH246150   4.596   5.444   0.715 -0.2208 -0.7587 -0.2830
 8220TIP3    H146151   4.516   5.496   0.707 -0.3622 -1.0547 -0.8370
 8220TIP3    H246152   4.665   5.509   0.724 -0.3349 -0.4408 -1.4958
 8221TIP3   OH246153   2.359   2.749   0.941  0.0366 -0.8892 -0.1996
 8221TIP3    H146154   2.268   2.778   0.937  0.0201 -0.7842  0.6677
 8221TIP3    H246155   2.352   2.654   0.955  0.0370 -0.7295  0.9620
 8222TIP3   OH246156   5.431   4.318   4.278 -0.1707  0.2277  0.5377
 8222TIP3    H146157   5.512   4.362   4.305 -0.0853 -0.1687  0.9366
 8222TIP3    H246158   5.394   4.375   4.211 -0.1840  1.0362  1.2192
 8223TIP3   OH246159   2.570   1.122   0.968  0.5255 -0.6502 -0.1779
 8223TIP3    H146160   2.598   1.157   1.053 -2.6361  0.8854  0.3755
 8223TIP3    H246161   2.528   1.196   0.924 -1.0492 -2.2684 -1.5754
 8224TIP3   OH246162   5.094   4.124   0.418  0.1177  0.2487 -0.1050
 8224TIP3    H146163   5.128   4.105   0.331  0.3557 -0.7177  0.1932
 8224TIP3    H246164   5.172   4.128   0.474  0.0892  2.1019 -0.1344
 8225TIP3   OH246165   6.018   5.024   4.172  0.2965  0.3076 -0.2394
 8225TIP3    H146166   6.027   4.932   4.148  0.0607  0.2570 -0.1421
 8225TIP3    H246167   6.064   5.032   4.256 -0.2666  0.1225  0.0966
 8226TIP3   OH246168   6.228   2.674  14.970  0.3271 -0.2322 -0.5053
 8226TIP3    H146169   6.254   2.584  14.949 -1.1659 -0.3887 -1.8957
 8226TIP3    H246170   6.163   2.664  15.039  0.6225 -0.1596 -0.2125
 8227TIP3   OH246171   4.821   2.452   1.544  0.2235  0.1501  0.2137
 8227TIP3    H146172   4.905   2.483   1.579 -0.3168  1.2032  0.6089
 8227TIP3    H246173   4.763   2.527   1.551 -1.7769 -1.4625  3.2097
 8228TIP3   OH246174   4.539   1.276   3.250  0.0309  0.6694 -0.4346
 8228TIP3    H146175   4.516   1.330   3.175  1.5846 -1.0199 -2.2555
 8228TIP3    H246176   4.519   1.186   3.222  2.3507 -0.1917  0.4096
 8229TIP3   OH246177   5.113   0.097  13.700 -0.1808 -0.2326  0.0432
 8229TIP3    H146178   5.192   0.136  13.662  1.2879 -1.0569  2.0767
 8229TIP3    H246179   5.052   0.170  13.711 -0.0067  0.3067 -2.1791
 8230TIP3   OH246180   1.655   2.163  11.617 -0.0727 -0.4784 -0.2285
 8230TIP3    H146181   1.593   2.148  11.545  0.8147  0.3284 -1.1900
 8230TIP3    H246182   1.720   2.094  11.606 -0.2607 -0.7188  0.1714
 8231TIP3   OH246183   0.463   3.888   4.817 -0.0747 -0.4408  0.5648
 8231TIP3    H146184   0.552   3.921   4.830 -0.0985  0.8219 -1.9168
 8231TIP3    H246185   0.407   3.956   4.854 -0.0413  0.3644 -0.8198
 8232TIP3   OH246186   0.739   5.929  13.266  0.0663  0.0838 -0.0017
 8232TIP3    H146187   0.711   5.930  13.358 -1.8801 -0.1214 -0.5376
 8232TIP3    H246188   0.767   5.839  13.251  2.8806  0.6814  1.0026
 8233TIP3   OH246189   5.533   3.162  13.867 -0.2928 -0.2607  0.4424
 8233TIP3    H146190   5.532   3.129  13.957  1.0793 -2.9573 -0.4256
 8233TIP3    H246191   5.531   3.257  13.876 -1.4053 -0.4698  3.2590
 8234TIP3   OH246192   5.291   2.031  16.823 -0.2109 -0.7664  0.0279
 8234TIP3    H146193   5.310   2.053  16.732  0.2421 -0.4590  0.1953
 8234TIP3    H246194   5.375   2.037  16.867 -0.7073  0.9359  0.8443
 8235TIP3   OH246195   2.525   1.757  15.678 -0.3291 -0.3038 -0.1663
 8235TIP3    H146196   2.597   1.819  15.687 -0.4866  0.0775 -1.3827
 8235TIP3    H246197   2.495   1.768  15.588 -0.1338 -2.4178 -0.5225
 8236TIP3   OH246198   5.648   4.050   0.134 -0.2624  0.0354 -0.0682
 8236TIP3    H146199   5.640   4.136   0.095 -0.9102  0.2583  0.5485
 8236TIP3    H246200   5.703   4.001   0.073  1.8212  1.4797  0.5581
 8237TIP3   OH246201   3.801   2.401  17.016  0.3775 -0.1664 -0.0243
 8237TIP3    H146202   3.738   2.469  16.994 -0.5951 -0.8304  0.6219
 8237TIP3    H246203   3.754   2.319  17.001  1.4761 -0.7095 -0.6536
 8238TIP3   OH246204   4.973   4.771  16.004 -0.2304 -0.0146 -0.1041
 8238TIP3    H146205   4.981   4.849  16.058  0.3472 -0.0004 -0.1943
 8238TIP3    H246206   5.059   4.764  15.961  0.3230 -1.6528  1.1997
 8239TIP3   OH246207   4.840   1.583  11.343 -0.1382 -0.1949  0.0632
 8239TIP3    H146208   4.889   1.575  11.261 -1.2420  0.4497 -0.6765
 8239TIP3    H246209   4.803   1.496  11.357 -0.2792 -0.2006 -0.3312
 8240TIP3   OH246210   3.014   5.534  16.166  0.1205 -0.1244  0.2153
 8240TIP3    H146211   2.961   5.556  16.089 -0.2151  1.4188  0.8560
 8240TIP3    H246212   3.020   5.616  16.216  1.8824 -0.6318  0.9164
 8241TIP3   OH246213   0.388   3.559  14.101 -0.3726  0.0618 -0.3944
 8241TIP3    H146214   0.381   3.572  14.006  2.6467  1.6659 -0.5262
 8241TIP3    H246215   0.433   3.474  14.110  0.8759  0.6790 -0.5350
 8242TIP3   OH246216   4.307   6.154   0.175  0.3282 -0.2259  0.9419
 8242TIP3    H146217   4.330   6.201   0.095  0.0515 -2.4360 -0.5190
 8242TIP3    H246218   4.365   6.190   0.242  0.2754  1.9797 -0.1117
 8243TIP3   OH246219   4.216   4.981  12.215  0.5976 -0.7700  0.4317
 8243TIP3    H146220   4.175   4.954  12.133  3.2221  3.4213 -2.6532
 8243TIP3    H246221   4.292   4.925  12.224  0.4724 -1.0443 -0.1987
 8244TIP3   OH246222   2.607   1.593  11.684  0.3733 -0.1881  0.1005
 8244TIP3    H146223   2.675   1.592  11.616  0.5825 -0.9458  0.3078
 8244TIP3    H246224   2.627   1.518  11.739  0.2238  0.4310  1.0299
 8245TIP3   OH246225   4.897   0.701   1.688  0.1425 -0.0455  0.2561
 8245TIP3    H146226   4.830   0.633   1.699 -0.0609  0.2193  0.6814
 8245TIP3    H246227   4.975   0.653   1.661 -0.6880 -0.1837 -2.1325
 8246TIP3   OH246228   1.707   0.872  11.591  0.0155  0.2284 -0.3845
 8246TIP3    H146229   1.616   0.862  11.619  0.2902 -0.8788  0.1408
 8246TIP3    H246230   1.746   0.786  11.603  1.1879  0.7308 -0.4525
 8247TIP3   OH246231   3.073   2.610  12.920 -0.7503 -0.4587 -0.4348
 8247TIP3    H146232   3.005   2.677  12.927 -0.2544  0.0490 -0.3648
 8247TIP3    H246233   3.094   2.588  13.011 -1.3411 -1.1539 -0.4656
 8248TIP3   OH246234   0.742   4.645   4.806 -0.1125 -0.3566  0.0682
 8248TIP3    H146235   0.723   4.617   4.717 -0.4440  0.0216  0.0199
 8248TIP3    H246236   0.685   4.721   4.821 -0.1193 -0.4658  0.6273
 8249TIP3   OH246237   1.498   5.138  13.845 -0.8263 -0.9791  0.2446
 8249TIP3    H146238   1.546   5.164  13.766  1.4842 -0.2554  1.7902
 8249TIP3    H246239   1.444   5.064  13.817 -2.2691  0.9654 -2.6532
 8250TIP3   OH246240   4.405   2.148   3.059 -0.4766 -0.2830  0.3403
 8250TIP3    H146241   4.455   2.184   2.986 -1.6537 -0.3575 -0.5324
 8250TIP3    H246242   4.355   2.223   3.093  0.6578 -0.0604  1.6189
 8251TIP3   OH246243   0.800   4.049   3.444 -0.5419  0.0031 -0.4514
 8251TIP3    H146244   0.776   3.995   3.369  0.4935 -1.0235 -0.0623
 8251TIP3    H246245   0.851   4.121   3.407 -0.6414 -0.1108 -0.8098
 8252TIP3   OH246246   5.272   4.607  14.054 -0.4613 -0.2985  0.0885
 8252TIP3    H146247   5.293   4.520  14.021  0.4360  0.1847 -0.6378
 8252TIP3    H246248   5.280   4.598  14.149  2.9098 -0.2376 -0.0813
 8253TIP3   OH246249   6.493   2.225   1.210 -0.0099  0.0628  0.5744
 8253TIP3    H146250   6.401   2.230   1.186 -0.0367 -0.2458  0.6083
 8253TIP3    H246251   6.502   2.141   1.254  0.6197 -0.6428 -0.8575
 8254TIP3   OH246252   4.925   2.364   1.966 -0.2868  0.7734  0.1718
 8254TIP3    H146253   4.946   2.288   1.911  0.1597  0.7963  0.3089
 8254TIP3    H246254   4.834   2.351   1.991  0.2243 -0.5323  1.4681
 8255TIP3   OH246255   3.027   4.579  12.386 -0.1897  0.0761  0.7335
 8255TIP3    H146256   2.947   4.606  12.429 -1.3925 -1.5710 -0.3072
 8255TIP3    H246257   3.071   4.521  12.449  0.6642  1.6365  1.6302
 8256TIP3   OH246258   5.748   0.657  12.088 -0.2258  0.1883 -0.2479
 8256TIP3    H146259   5.728   0.732  12.032 -1.6682  1.2504  1.5550
 8256TIP3    H246260   5.836   0.675  12.121 -0.5145  1.0670  0.0803
 8257TIP3   OH246261   0.528   1.756  13.157  0.6171  0.1756 -0.0327
 8257TIP3    H146262   0.602   1.717  13.110  2.1204  2.2177  0.4664
 8257TIP3    H246263   0.555   1.755  13.249 -0.3541  0.2285  0.2641
 8258TIP3   OH246264   6.661   4.594  16.778 -0.4479  0.4222 -0.3308
 8258TIP3    H146265   6.721   4.524  16.804  0.9149  1.3784 -0.7769
 8258TIP3    H246266   6.620   4.562  16.698  0.4880  0.2795 -0.7780
 8259TIP3   OH246267   1.546   3.925   0.894  0.1658  0.0966  0.5882
 8259TIP3    H146268   1.478   3.920   0.827 -0.1652  0.9963  0.8406
 8259TIP3    H246269   1.499   3.911   0.976  0.6154 -1.2946  0.6262
 8260TIP3   OH246270   0.914   3.590  13.392  0.6564 -0.4053 -0.1518
 8260TIP3    H146271   0.916   3.605  13.297  0.1796  0.6536 -0.0109
 8260TIP3    H246272   0.948   3.671  13.430 -1.4685  0.1836  0.6425
 8261TIP3   OH246273   2.185   5.082   3.738 -0.2155 -0.2632 -0.2034
 8261TIP3    H146274   2.163   5.032   3.817  1.3101 -1.1209 -0.2635
 8261TIP3    H246275   2.271   5.120   3.758  0.4437 -0.9322 -1.6167
 8262TIP3   OH246276   5.238   1.257  15.309 -0.1533  0.4921 -0.1973
 8262TIP3    H146277   5.219   1.240  15.401 -0.6690  3.1665  0.2698
 8262TIP3    H246278   5.160   1.229  15.262 -0.2682 -0.0063  0.2874
 8263TIP3   OH246279   5.212   2.408   5.461  0.4824  0.4387  0.6500
 8263TIP3    H146280   5.263   2.416   5.381 -0.6666  0.1231 -0.1286
 8263TIP3    H246281   5.269   2.444   5.529  0.6738  2.7511 -0.6262
 8264TIP3   OH246282   6.773   0.309  13.559 -0.4122  0.0383 -0.1577
 8264TIP3    H146283   6.714   0.383  13.574 -1.2763 -0.5744 -0.4332
 8264TIP3    H246284   6.760   0.287  13.466 -1.3995 -1.4735  0.2995
 8265TIP3   OH246285   4.154   3.151   4.261 -0.5368  0.1211 -0.2633
 8265TIP3    H146286   4.145   3.217   4.192  2.0180 -0.5703 -1.3317
 8265TIP3    H246287   4.206   3.081   4.222  1.1609 -0.2292  2.3708
 8266TIP3   OH246288   0.794   0.364  14.393 -0.0252  0.0280 -0.3519
 8266TIP3    H146289   0.714   0.415  14.401 -0.3065 -0.1964 -1.5984
 8266TIP3    H246290   0.856   0.409  14.451 -0.5855  1.1370 -0.5809
 8267TIP3   OH246291   4.182   3.546   2.894 -0.0694 -0.0546  0.0609
 8267TIP3    H146292   4.262   3.544   2.947  0.6354  3.3020 -0.6483
 8267TIP3    H246293   4.209   3.589   2.812 -2.3817  0.1283 -0.6635
 8268TIP3   OH246294   1.866   5.910  12.695  0.0124  0.4310 -0.1719
 8268TIP3    H146295   1.887   5.832  12.745  1.4752  0.5056 -0.6336
 8268TIP3    H246296   1.787   5.887  12.646  2.1359 -1.9832 -2.7896
 8269TIP3   OH246297   2.572   6.758  14.060  0.6078 -0.2304  0.4619
 8269TIP3    H146298   2.606   6.721  13.979 -0.0715  0.3965 -0.1325
 8269TIP3    H246299   2.633   6.730  14.128  1.4806 -0.3351 -0.3514
 8270TIP3   OH246300   0.539   0.188   3.089  0.3065 -0.1275 -0.8514
 8270TIP3    H146301   0.511   0.106   3.130 -0.9267 -0.4337 -2.2115
 8270TIP3    H246302   0.460   0.222   3.047  1.1109  1.0727 -1.4525
 8271TIP3   OH246303   1.566   1.391   0.892  0.2607 -0.3705 -0.2983
 8271TIP3    H146304   1.581   1.416   0.800  1.5001  2.6271  0.5905
 8271TIP3    H246305   1.646   1.417   0.937 -0.3787 -1.6639  1.6992
 8272TIP3   OH246306   1.566   2.703  16.340  0.0992  0.6221  0.2865
 8272TIP3    H146307   1.559   2.797  16.324  2.2251  0.5427 -1.6578
 8272TIP3    H246308   1.648   2.693  16.390 -0.3455 -0.1717  0.8834
 8273TIP3   OH246309   1.347   3.346  12.526  0.1449 -0.0396  0.4427
 8273TIP3    H146310   1.387   3.390  12.601 -0.9254  0.1128  0.9477
 8273TIP3    H246311   1.261   3.386  12.518  0.7618  0.9615 -1.7863
 8274TIP3   OH246312   6.669   2.442   2.709  0.2046 -0.5583 -0.1870
 8274TIP3    H146313   6.608   2.509   2.740 -0.8890 -1.6353  0.0616
 8274TIP3    H246314   6.616   2.384   2.656  1.4020 -0.5490 -1.4639
 8275TIP3   OH246315   1.184   3.206  13.408 -0.3131 -0.3847  0.3862
 8275TIP3    H146316   1.191   3.111  13.412  1.5855 -0.2277  1.7091
 8275TIP3    H246317   1.140   3.230  13.490  0.9304 -0.0109  0.9581
 8276TIP3   OH246318   3.376   3.901   3.058 -0.0170  0.0207  0.0729
 8276TIP3    H146319   3.313   3.881   3.127  0.0070 -0.4570 -0.0387
 8276TIP3    H246320   3.369   3.995   3.046 -0.7487 -0.0299  0.0341
 8277TIP3   OH246321   3.715   6.254   2.404 -0.9675 -0.5435 -0.1738
 8277TIP3    H146322   3.722   6.216   2.491 -1.1102 -3.8689 -1.4703
 8277TIP3    H246323   3.727   6.348   2.417  2.6889 -1.2170  2.9783
 8278TIP3   OH246324   1.960   3.469   2.097  0.4125  0.0700  0.0714
 8278TIP3    H146325   1.894   3.457   2.030  0.3500  0.1670  0.1141
 8278TIP3    H246326   2.044   3.462   2.051  0.3730  1.6641 -0.3114
 8279TIP3   OH246327   2.728   4.925  15.523  0.1458 -0.7109  0.4215
 8279TIP3    H146328   2.758   4.835  15.514 -0.0638 -0.7416  0.0383
 8279TIP3    H246329   2.727   4.959  15.434 -0.9423 -0.7045  0.4241
 8280TIP3   OH246330   6.744   3.429  11.368  0.1990  0.3777  0.3584
 8280TIP3    H146331   6.764   3.371  11.295  1.4070  0.0920  0.8867
 8280TIP3    H246332   6.789   3.511  11.347 -0.0099  0.5262  0.4750
 8281TIP3   OH246333   5.261   2.382   2.861 -0.4262  0.1046 -0.2037
 8281TIP3    H146334   5.247   2.287   2.857  2.1035 -0.3345 -0.4546
 8281TIP3    H246335   5.288   2.399   2.951 -0.1978  0.4621 -0.3354
 8282TIP3   OH246336   3.313   2.588  11.466  0.2199  0.3031 -0.5713
 8282TIP3    H146337   3.396   2.594  11.514 -0.4529  0.3038  0.6270
 8282TIP3    H246338   3.258   2.656  11.505 -1.3181 -1.5419  0.6821
 8283TIP3   OH246339   5.832   2.695   3.433  0.0215  0.1692 -0.1202
 8283TIP3    H146340   5.864   2.607   3.454  0.7105  0.3541 -0.3688
 8283TIP3    H246341   5.857   2.748   3.509  0.4726  0.3551 -0.3978
 8284TIP3   OH246342   2.008   4.886  12.469 -0.1274  0.6461  0.3158
 8284TIP3    H146343   1.994   4.932  12.552  1.8202  0.3380  0.8733
 8284TIP3    H246344   2.023   4.956  12.406  1.0323  0.8566  0.7959
 8285TIP3   OH246345   5.894   3.388  16.753  0.4603 -0.6004  0.4779
 8285TIP3    H146346   5.915   3.371  16.845  0.6471 -0.9340  0.3763
 8285TIP3    H246347   5.930   3.313  16.706 -0.0017 -0.6361  0.1755
 8286TIP3   OH246348   0.968   3.695   6.387  0.4747  0.6365 -0.3433
 8286TIP3    H146349   1.027   3.620   6.397  0.6418  0.4998 -2.0461
 8286TIP3    H246350   1.007   3.746   6.316  0.1490  2.1497  0.5373
 8287TIP3   OH246351   4.526   5.472   4.453 -0.1497  0.6019  0.2079
 8287TIP3    H146352   4.501   5.468   4.361  1.1316 -0.8109 -0.1253
 8287TIP3    H246353   4.606   5.419   4.458  0.1136  1.1174  2.0322
 8288TIP3   OH246354   3.736   1.750  15.500 -0.1427 -0.2608  0.2397
 8288TIP3    H146355   3.787   1.822  15.537  0.2135 -0.4800  0.1815
 8288TIP3    H246356   3.705   1.701  15.575 -0.3668 -0.0620  0.2787
 8289TIP3   OH246357   1.997   2.493   1.603  0.4104  0.5125  0.2450
 8289TIP3    H146358   2.076   2.443   1.624 -0.3581 -0.0839  1.8961
 8289TIP3    H246359   1.927   2.428   1.601 -0.6004  1.4120  2.4100
 8290TIP3   OH246360   4.337   5.713   4.011  0.2619  0.0207 -0.4645
 8290TIP3    H146361   4.362   5.621   4.022 -1.4592 -0.4191  0.0129
 8290TIP3    H246362   4.308   5.719   3.920  0.5270  0.1484 -0.5433
 8291TIP3   OH246363   5.788   4.896  15.518  0.1911 -0.4586 -0.1697
 8291TIP3    H146364   5.761   4.977  15.562  0.4061 -1.1256  1.2352
 8291TIP3    H246365   5.732   4.892  15.440 -0.5717  0.5064  0.3008
 8292TIP3   OH246366   4.113   1.289   5.381  0.8498 -0.3294  0.6889
 8292TIP3    H146367   4.105   1.315   5.289  3.5630 -0.6784  0.2678
 8292TIP3    H246368   4.040   1.332   5.424  1.5358  2.8624 -1.0253
 8293TIP3   OH246369   6.703   6.056   3.635 -0.3318  0.6208 -0.1214
 8293TIP3    H146370   6.741   6.128   3.686  2.1260 -0.1311 -0.7290
 8293TIP3    H246371   6.673   6.098   3.554 -0.4173  1.2072  0.2071
 8294TIP3   OH246372   5.941   1.819  14.193  0.7193 -0.4635  0.0936
 8294TIP3    H146373   6.014   1.866  14.234 -0.8291  0.7470  1.6074
 8294TIP3    H246374   5.869   1.883  14.192 -0.2400 -1.4799 -1.7259
 8295TIP3   OH246375   1.912   6.656   6.804  0.2139 -0.3797  0.7514
 8295TIP3    H146376   1.905   6.705   6.886  1.7779 -0.3987  0.9256
 8295TIP3    H246377   1.949   6.719   6.742  0.0345 -0.6702  0.3473
 8296TIP3   OH246378   4.742   2.975  12.034  0.2093  0.0898  0.3909
 8296TIP3    H146379   4.716   2.899  11.981  0.6466 -0.1547  0.5178
 8296TIP3    H246380   4.669   2.987  12.095 -0.5014  0.6485 -0.5441
 8297TIP3   OH246381   3.150   1.447   1.638 -0.3530  0.0583 -0.2877
 8297TIP3    H146382   3.199   1.398   1.703  0.1230  0.2611 -0.4904
 8297TIP3    H246383   3.136   1.533   1.678  1.4347  0.7824 -1.0979
 8298TIP3   OH246384   4.798   2.821   0.344  0.4885  0.0779 -0.5258
 8298TIP3    H146385   4.721   2.765   0.354  0.0654  0.3691 -1.8840
 8298TIP3    H246386   4.769   2.908   0.371  0.1607  0.2955 -1.5232
 8299TIP3   OH246387   1.906   5.798  12.051  0.1493  0.5409 -0.2236
 8299TIP3    H146388   1.892   5.722  12.107  0.3784  0.6882  0.0373
 8299TIP3    H246389   1.970   5.852  12.099  0.5804  0.5222 -0.7685
 8300TIP3   OH246390   3.578   0.213  11.718 -0.2229  0.2121  0.2517
 8300TIP3    H146391   3.550   0.303  11.736  1.0140  0.5417  0.6611
 8300TIP3    H246392   3.502   0.159  11.740 -0.8594  1.1228  0.3550
 8301TIP3   OH246393   6.341   4.840  15.605  0.3569 -0.2651  0.3779
 8301TIP3    H146394   6.369   4.794  15.685  3.1499 -1.0940 -0.9562
 8301TIP3    H246395   6.320   4.770  15.543  1.7304  0.2775 -0.7303
 8302TIP3   OH246396   0.505   2.717   3.636  0.5956 -0.5919 -0.0829
 8302TIP3    H146397   0.577   2.757   3.589 -0.2651  0.0084 -0.9256
 8302TIP3    H246398   0.447   2.684   3.567 -0.7984  0.4894  0.5424
 8303TIP3   OH246399   6.150   0.083   4.969  0.4838  0.3572  0.0523
 8303TIP3    H146400   6.095   0.023   4.919 -0.6166  1.5099 -0.1619
 8303TIP3    H246401   6.147   0.049   5.059 -1.8302  1.2312  0.3530
 8304TIP3   OH246402   5.429   0.924   2.193  0.5982  0.4576 -0.0351
 8304TIP3    H146403   5.376   0.932   2.113  0.1223 -0.7240  0.1335
 8304TIP3    H246404   5.518   0.944   2.165  0.5461 -0.5757 -1.0234
 8305TIP3   OH246405   0.187   5.686   6.203 -0.4507  0.5402  0.0324
 8305TIP3    H146406   0.193   5.729   6.118 -1.6406 -0.9231 -0.8443
 8305TIP3    H246407   0.178   5.593   6.182  2.3880 -0.2940  1.8255
 8306TIP3   OH246408   0.001   5.199   4.259  0.4156  0.4490  0.2830
 8306TIP3    H146409   0.030   5.210   4.350  1.2110  2.9036 -0.1878
 8306TIP3    H246410  -0.076   5.142   4.265  0.6978  0.1956  2.4206
 8307TIP3   OH246411   6.766   3.100   2.400  0.3315 -1.2249 -0.2952
 8307TIP3    H146412   6.735   3.011   2.415 -1.9869 -0.6202 -1.0790
 8307TIP3    H246413   6.698   3.156   2.438  2.2422  0.2451  1.1282
 8308TIP3   OH246414   4.313   0.520  12.984  0.0155  0.0727  0.0031
 8308TIP3    H146415   4.401   0.506  13.019  0.0223 -0.6507 -0.2828
 8308TIP3    H246416   4.325   0.587  12.917 -0.0775  1.8507  1.6617
 8309TIP3   OH246417   1.883   5.479   2.802 -0.3066 -0.5195 -0.1364
 8309TIP3    H146418   1.900   5.386   2.787 -0.5235 -0.4796 -0.6431
 8309TIP3    H246419   1.913   5.522   2.722 -0.8361 -0.2235 -0.1786
 8310TIP3   OH246420   4.324   2.145  11.686  0.2037 -0.5148 -0.5161
 8310TIP3    H146421   4.299   2.235  11.665  3.5764  0.9240  0.9117
 8310TIP3    H246422   4.246   2.108  11.728 -1.0471  2.0098 -0.4086
 8311TIP3   OH246423   2.894   6.034   4.448 -0.1077 -0.0517  0.3581
 8311TIP3    H146424   2.874   6.113   4.497  0.1897  0.6490 -0.6149
 8311TIP3    H246425   2.815   5.981   4.455  0.2252 -0.3609  2.2797
 8312TIP3   OH246426   5.166   6.820  16.948 -0.0491 -0.3229 -0.0791
 8312TIP3    H146427   5.120   6.856  17.024  0.2281  1.4622 -0.7152
 8312TIP3    H246428   5.186   6.730  16.973 -1.8875 -0.4590  1.0930
 8313TIP3   OH246429   0.136   0.394   3.687 -0.4657  0.2794 -0.8029
 8313TIP3    H146430   0.056   0.349   3.659 -1.0239  0.8817 -0.2193
 8313TIP3    H246431   0.142   0.377   3.781  2.1588 -2.9200 -1.3772
 8314TIP3   OH246432   3.487   3.861  13.694  0.4873  0.1984 -0.3643
 8314TIP3    H146433   3.434   3.907  13.628  1.4414  1.4169 -0.3304
 8314TIP3    H246434   3.453   3.772  13.694 -1.3632  0.8454 -0.5436
 8315TIP3   OH246435   5.858   4.744   3.328 -0.1327  0.1901  0.3866
 8315TIP3    H146436   5.868   4.705   3.242 -1.2960  0.0995  0.2687
 8315TIP3    H246437   5.903   4.828   3.322 -0.9000  0.5458 -0.5739
 8316TIP3   OH246438   6.666   5.789   3.556 -0.4723 -0.3207  0.4698
 8316TIP3    H146439   6.638   5.795   3.465 -0.9906 -1.6164  0.5153
 8316TIP3    H246440   6.683   5.880   3.582  0.8463 -0.0153 -1.2502
 8317TIP3   OH246441   2.081   5.510  14.632  0.3125  0.1307 -0.3953
 8317TIP3    H146442   2.084   5.601  14.604  0.0639  0.4178  0.4811
 8317TIP3    H246443   2.000   5.502  14.681 -0.5443 -1.0120 -1.8913
 8318TIP3   OH246444   6.791   5.973   5.274  0.0716 -0.2063 -0.1710
 8318TIP3    H146445   6.726   6.027   5.318  0.3743  0.0595 -0.0476
 8318TIP3    H246446   6.742   5.899   5.239 -0.6129  0.8738 -1.6226
 8319TIP3   OH246447   2.154   3.266  11.708 -0.1100 -0.6177  0.0429
 8319TIP3    H146448   2.165   3.284  11.615 -0.7857 -0.0482  0.0590
 8319TIP3    H246449   2.071   3.218  11.713 -0.8242  0.5956  0.4604
 8320TIP3   OH246450   5.986   4.470   5.538 -0.2043 -0.2819 -0.2961
 8320TIP3    H146451   6.014   4.558   5.514 -0.8437 -0.3410 -1.2682
 8320TIP3    H246452   5.981   4.422   5.455 -1.1863 -0.8536  0.0830
 8321TIP3   OH246453   1.432   2.326   4.696  0.2279 -0.1919 -0.8125
 8321TIP3    H146454   1.343   2.296   4.718  0.4791 -2.0318 -2.0687
 8321TIP3    H246455   1.464   2.261   4.633  2.4196  0.5172 -0.5072
 8322TIP3   OH246456   6.241   0.453   5.086 -0.2287 -0.3366  0.0926
 8322TIP3    H146457   6.174   0.398   5.046 -2.2018  0.9093  1.4664
 8322TIP3    H246458   6.214   0.542   5.066  0.9081  0.2109  0.8755
 8323TIP3   OH246459   5.747   1.983   3.396  0.7730 -0.2029  0.3454
 8323TIP3    H146460   5.813   1.925   3.359  2.1813  1.2011  0.5454
 8323TIP3    H246461   5.776   1.999   3.486 -0.2312 -0.1175  0.6674
 8324TIP3   OH246462   0.243   6.110  13.692  0.0155 -0.0485 -0.4445
 8324TIP3    H146463   0.320   6.058  13.671  0.9353  0.5246  1.3042
 8324TIP3    H246464   0.193   6.114  13.611  1.8165 -0.4580 -1.6146
 8325TIP3   OH246465   6.145   5.978   5.122 -0.0961 -0.2540 -0.4950
 8325TIP3    H146466   6.168   5.978   5.029  0.1036  2.6089 -0.5336
 8325TIP3    H246467   6.228   5.993   5.167 -0.1605 -1.8219  0.2149
 8326TIP3   OH246468   4.343   0.365   2.345  0.1760 -0.1088 -0.4453
 8326TIP3    H146469   4.326   0.281   2.301 -3.5003  0.2142  0.0379
 8326TIP3    H246470   4.359   0.342   2.436 -2.6710 -0.3737  0.1011
 8327TIP3   OH246471   2.305   2.046   3.111 -0.0132 -0.2494  0.8692
 8327TIP3    H146472   2.275   1.956   3.101 -2.1050  0.5012 -0.4702
 8327TIP3    H246473   2.337   2.052   3.201 -0.8079 -2.0534  1.3059
 8328TIP3   OH246474   5.339   3.525   6.823 -0.1008  0.0172 -0.8240
 8328TIP3    H146475   5.257   3.574   6.820 -0.3721 -0.2816  0.9177
 8328TIP3    H246476   5.407   3.593   6.824 -0.4097  0.3275 -0.2853
 8329TIP3   OH246477   5.190   2.179  13.656 -0.1521  0.2939  0.2308
 8329TIP3    H146478   5.133   2.183  13.579 -0.8763 -4.0680  0.2840
 8329TIP3    H246479   5.276   2.205  13.623 -0.8860  0.6633 -1.5172
 8330TIP3   OH246480   5.043   3.708  10.683  0.4365 -0.1339 -0.0087
 8330TIP3    H146481   5.083   3.737  10.601  1.8231 -1.5392  0.1287
 8330TIP3    H246482   5.113   3.661  10.729 -0.4720  0.1059  1.7269
 8331TIP3   OH246483   1.696   5.065   1.503  0.1581 -0.2419 -0.1779
 8331TIP3    H146484   1.756   4.997   1.471  1.7183  1.6364 -1.5206
 8331TIP3    H246485   1.683   5.123   1.427 -1.2457  0.8717  0.8523
 8332TIP3   OH246486   3.374   1.677  12.010 -0.8567  0.7071 -0.5508
 8332TIP3    H146487   3.319   1.718  11.943  1.8431  2.7554 -1.7092
 8332TIP3    H246488   3.403   1.595  11.969 -1.9148  0.2479 -0.4367
 8333TIP3   OH246489   2.266   1.611  16.784 -0.2013  0.1355  0.2935
 8333TIP3    H146490   2.351   1.572  16.761  0.2213  1.5238 -0.6396
 8333TIP3    H246491   2.216   1.610  16.703 -1.8812 -2.4206  1.2309
 8334TIP3   OH246492   2.380   5.415  12.273  0.0294 -0.1809  0.0021
 8334TIP3    H146493   2.445   5.364  12.320 -1.9492 -3.2004 -0.2387
 8334TIP3    H246494   2.416   5.426  12.185  0.1578 -2.0917 -0.2234
 8335TIP3   OH246495   4.485   4.422   1.136 -0.2345  0.4278  0.2108
 8335TIP3    H146496   4.491   4.469   1.052  0.6466 -0.5639 -0.3024
 8335TIP3    H246497   4.477   4.330   1.111 -2.1264  0.2928  1.2016
 8336TIP3   OH246498   3.267   3.596  12.215  0.0685 -0.2045  0.1866
 8336TIP3    H146499   3.192   3.607  12.157 -0.1786 -2.1268  0.0906
 8336TIP3    H246500   3.342   3.584  12.156  0.2315  0.2811  0.2863
 8337TIP3   OH246501   3.741   4.457  12.439  0.4982  0.0721 -0.0303
 8337TIP3    H146502   3.767   4.513  12.512  1.9173  0.0051 -0.4521
 8337TIP3    H246503   3.795   4.487  12.365 -0.6579 -0.0843 -0.9720
 8338TIP3   OH246504   3.271   0.599   2.878  0.5658 -0.8975  0.2067
 8338TIP3    H146505   3.211   0.528   2.854  0.0815 -0.0152 -1.4145
 8338TIP3    H246506   3.339   0.596   2.810  0.4632  0.2381  0.0318
 8339TIP3   OH246507   3.437   0.666   4.735 -0.6110  0.1465 -0.2225
 8339TIP3    H146508   3.392   0.702   4.658  2.2376  2.3979 -1.0155
 8339TIP3    H246509   3.414   0.727   4.806 -0.1444  0.3564 -0.2472
 8340TIP3   OH246510   6.501   5.098   1.672 -0.0580  0.1765  0.0083
 8340TIP3    H146511   6.560   5.048   1.616 -1.2629 -1.4897  0.1089
 8340TIP3    H246512   6.558   5.139   1.737  1.1085 -0.1485 -0.7818
 8341TIP3   OH246513   0.433   1.182  10.928  0.1751  0.1222  0.1212
 8341TIP3    H146514   0.343   1.148  10.921 -0.0303  0.7710 -0.6044
 8341TIP3    H246515   0.437   1.252  10.862  1.1465  0.2547  0.3053
 8342TIP3   OH246516   5.506   2.933  14.253  0.5552  0.3871  0.2900
 8342TIP3    H146517   5.505   2.839  14.232 -0.6007  0.1947  1.0688
 8342TIP3    H246518   5.471   2.975  14.175  1.7400  0.2564 -0.3360
 8343TIP3   OH246519   2.655   0.836   2.516  0.4428  0.2512 -0.5987
 8343TIP3    H146520   2.597   0.809   2.587  0.6309 -0.3646 -0.6701
 8343TIP3    H246521   2.732   0.780   2.525  0.4891  0.1960 -1.2647
 8344TIP3   OH246522   1.020   0.964   5.186  0.3638  0.4060  0.1971
 8344TIP3    H146523   0.944   0.920   5.224  1.2481 -1.0203  0.3977
 8344TIP3    H246524   1.094   0.930   5.235  1.2979  0.3480 -1.2025
 8345TIP3   OH246525   0.424   2.378   2.814  0.6750  0.4154 -0.5993
 8345TIP3    H146526   0.494   2.436   2.783  0.4409  0.3980 -1.1755
 8345TIP3    H246527   0.375   2.432   2.876  1.8886  0.0488  0.7240
 8346TIP3   OH246528   2.825   2.554  13.807  0.0224 -0.5223  0.2494
 8346TIP3    H146529   2.777   2.483  13.764  0.1415 -1.0259  0.9226
 8346TIP3    H246530   2.766   2.584  13.876  0.0476 -0.0885  0.0833
 8347TIP3   OH246531   2.576   5.314   5.212 -0.2458  0.1897 -0.0555
 8347TIP3    H146532   2.637   5.340   5.143  0.6883 -0.6742  0.4183
 8347TIP3    H246533   2.491   5.305   5.168  0.4138 -0.7472 -1.1844
 8348TIP3   OH246534   4.505   2.337  13.344  0.0148  0.6633  0.0029
 8348TIP3    H146535   4.414   2.333  13.374  0.1613 -0.0114  0.3909
 8348TIP3    H246536   4.557   2.340  13.424  0.3131  2.1880 -0.2143
 8349TIP3   OH246537   3.201   1.740   0.507  0.5205 -0.6656 -0.6471
 8349TIP3    H146538   3.241   1.687   0.576 -0.4919 -0.9225 -0.2347
 8349TIP3    H246539   3.155   1.809   0.554 -2.4953 -2.3863 -0.8157
 8350TIP3   OH246540   6.433   6.555   0.396  0.0090  0.6116 -0.0075
 8350TIP3    H146541   6.388   6.471   0.403  0.3429  0.5467  2.4218
 8350TIP3    H246542   6.366   6.617   0.368  0.0160 -0.5837 -3.0184
 8351TIP3   OH246543   2.429   0.021  12.283  0.0268 -0.5316  0.8749
 8351TIP3    H146544   2.457  -0.014  12.199  2.3887  3.1994 -0.1493
 8351TIP3    H246545   2.334   0.023  12.278  0.1035  0.5156 -2.2320
 8352TIP3   OH246546   4.455   3.044  13.925  0.0905 -0.0485 -0.0070
 8352TIP3    H146547   4.549   3.047  13.906  0.1314  0.3809  0.2418
 8352TIP3    H246548   4.416   3.108  13.866 -0.1268 -0.6592 -0.5318
 8353TIP3   OH246549   0.812   3.144  14.441  0.7487  0.4350  0.5411
 8353TIP3    H146550   0.868   3.215  14.409  0.0861  1.0182  0.6358
 8353TIP3    H246551   0.817   3.151  14.537  1.9350 -0.6662  0.5726
 8354TIP3   OH246552   2.127   2.480   3.406 -0.0365 -0.2477  0.0843
 8354TIP3    H146553   2.127   2.498   3.312 -0.0830 -0.1979  0.0942
 8354TIP3    H246554   2.176   2.552   3.444 -2.5291  1.3738  0.4245
 8355TIP3   OH246555   5.866   5.336  13.546  0.1707  0.0479  0.0804
 8355TIP3    H146556   5.930   5.288  13.493 -1.1651 -0.6738 -0.9469
 8355TIP3    H246557   5.861   5.422  13.505 -0.2190 -0.2180 -0.4356
 8356TIP3   OH246558   3.354   3.129  11.813  0.0124  0.3860 -0.0495
 8356TIP3    H146559   3.321   3.039  11.820  1.9023 -0.3838 -0.3044
 8356TIP3    H246560   3.276   3.183  11.800 -1.0534 -1.3905 -1.4872
 8357TIP3   OH246561   5.252   0.133   3.789 -0.0494  0.2456  0.0002
 8357TIP3    H146562   5.314   0.155   3.719  0.2457  1.7379  0.6945
 8357TIP3    H246563   5.167   0.132   3.746  0.4081 -2.1451 -1.0366
 8358TIP3   OH246564   0.947   3.840   1.988  0.4528 -0.4447  0.0178
 8358TIP3    H146565   0.868   3.788   1.972 -0.5674  0.7963  0.7931
 8358TIP3    H246566   0.917   3.913   2.042  2.2446 -0.2031  0.7592
 8359TIP3   OH246567   0.783   0.816   5.403 -0.1809  0.2225 -0.7766
 8359TIP3    H146568   0.860   0.763   5.378 -1.0628 -1.0076 -0.9749
 8359TIP3    H246569   0.804   0.849   5.490  0.1839 -0.8947 -0.4250
 8360TIP3   OH246570   0.500   3.264  13.229 -0.2195  0.1542 -0.8671
 8360TIP3    H146571   0.468   3.354  13.222  0.4859  0.5390  0.5039
 8360TIP3    H246572   0.573   3.269  13.291 -0.9677 -1.5428  0.2319
 8361TIP3   OH246573   6.260   3.421   4.218 -0.2884 -0.1881 -0.2680
 8361TIP3    H146574   6.178   3.379   4.191  0.3394 -1.8988  0.3620
 8361TIP3    H246575   6.300   3.449   4.135 -0.7229 -0.8641 -0.7210
 8362TIP3   OH246576   5.394   2.481  16.477  0.2294 -0.3119 -0.1136
 8362TIP3    H146577   5.362   2.391  16.487 -1.4017  0.1478 -0.7864
 8362TIP3    H246578   5.452   2.478  16.402 -0.4783 -0.6774 -0.6622
 8363TIP3   OH246579   5.099   5.963  14.078  0.3568 -0.0089  0.0283
 8363TIP3    H146580   5.094   5.869  14.099  1.1467  0.1233  0.8647
 8363TIP3    H246581   5.181   5.973  14.031  1.2148  0.5258  1.5534
 8364TIP3   OH246582   5.339   0.162  13.568 -0.2926  0.2405 -0.1935
 8364TIP3    H146583   5.416   0.113  13.599 -0.6464 -0.2686 -0.1101
 8364TIP3    H246584   5.375   0.244  13.536  0.2171  0.3036  0.5040
 8365TIP3   OH246585   1.249   4.661   5.748  0.3969 -0.0785 -0.3940
 8365TIP3    H146586   1.232   4.568   5.763  2.7804 -0.3254  1.3116
 8365TIP3    H246587   1.342   4.672   5.767 -0.0324  2.8568  0.5319
 8366TIP3   OH246588   5.287   5.402   3.503  0.2444  0.5777  0.1950
 8366TIP3    H146589   5.319   5.488   3.477 -0.6566  0.3352 -1.8777
 8366TIP3    H246590   5.361   5.343   3.485  2.0504  1.1442  4.4781
 8367TIP3   OH246591   3.457   1.351  15.740 -0.6074 -0.1290 -0.3780
 8367TIP3    H146592   3.383   1.290  15.738 -1.2775  0.6924 -1.2209
 8367TIP3    H246593   3.447   1.405  15.662 -0.4433  1.5320  0.6775
 8368TIP3   OH246594   3.918   4.716  16.244 -0.3090  0.0545  0.0570
 8368TIP3    H146595   3.930   4.698  16.338  1.0629  1.6779  0.2375
 8368TIP3    H246596   3.998   4.681  16.204 -0.7672 -0.3808 -0.4819
 8369TIP3   OH246597   2.073   1.539  14.536 -0.2207  0.5101 -0.3575
 8369TIP3    H146598   2.068   1.514  14.628  0.0138  0.3439 -0.3885
 8369TIP3    H246599   2.072   1.635  14.537 -1.3552  0.5019 -0.2552
 8370TIP3   OH246600   4.179   3.309   0.002  0.7569 -0.4577 -0.3162
 8370TIP3    H146601   4.117   3.348  -0.058  1.6699 -0.5068 -1.3214
 8370TIP3    H246602   4.132   3.303   0.085 -0.0761  0.8473 -0.6697
 8371TIP3   OH246603   5.420   3.604   0.192 -0.4225  0.3349 -0.1947
 8371TIP3    H146604   5.495   3.583   0.136 -0.4836  0.7548 -0.4434
 8371TIP3    H246605   5.399   3.695   0.170 -2.0641 -0.2760 -1.3782
 8372TIP3   OH246606   0.235   6.526  14.270  0.0448 -0.4871 -0.0905
 8372TIP3    H146607   0.162   6.465  14.278  0.4919 -1.2476 -1.4757
 8372TIP3    H246608   0.193   6.612  14.265 -0.6263 -0.7228  1.1805
 8373TIP3   OH246609   2.204   3.966  11.701 -0.2299  0.5475  0.6314
 8373TIP3    H146610   2.271   3.954  11.768  2.0722  0.2681 -1.5378
 8373TIP3    H246611   2.187   3.877  11.668  1.1448  0.9102 -1.2616
 8374TIP3   OH246612   5.290   1.627   2.667  0.0510  0.2593 -0.3712
 8374TIP3    H146613   5.348   1.671   2.604  0.8261  1.7328  1.2951
 8374TIP3    H246614   5.326   1.648   2.752 -0.9405 -1.7407  0.6202
 8375TIP3   OH246615   6.599   3.210  13.915  0.0095  0.6618 -0.1523
 8375TIP3    H146616   6.536   3.274  13.949  0.4161  1.5182 -0.9415
 8375TIP3    H246617   6.665   3.202  13.983 -0.7749 -0.0021  0.5504
 8376TIP3   OH246618   2.148   5.893  11.311 -0.8190  0.1894  0.5679
 8376TIP3    H146619   2.207   5.884  11.386 -0.2839  0.1557  0.1496
 8376TIP3    H246620   2.205   5.885  11.235 -1.5459 -1.2676  0.1267
 8377TIP3   OH246621   4.586   0.453  11.385 -0.3490  0.2550 -0.7390
 8377TIP3    H146622   4.524   0.462  11.312 -3.9386 -0.9820  1.9076
 8377TIP3    H246623   4.531   0.452  11.463  3.2652  1.1623  2.0616
 8378TIP3   OH246624   3.429   2.723  17.069  0.2133 -0.1639  0.4660
 8378TIP3    H146625   3.392   2.649  17.116  1.2684  0.4036  2.3093
 8378TIP3    H246626   3.406   2.708  16.978 -0.1476 -2.4205  0.8713
 8379TIP3   OH246627   2.969   0.964  13.266  0.0182  0.2338  0.2617
 8379TIP3    H146628   2.966   0.917  13.183  2.3053  0.6960 -0.1590
 8379TIP3    H246629   2.923   0.907  13.328 -0.9601 -0.5270 -1.1244
 8380TIP3   OH246630   2.086   5.911  10.757  0.2690 -0.1607 -0.2664
 8380TIP3    H146631   2.094   5.937  10.848 -1.0794 -1.2458  0.1895
 8380TIP3    H246632   2.068   5.993  10.710 -0.3351  0.2380  0.6326
 8381TIP3   OH246633   2.588   5.282  14.504 -0.5492  0.7682  0.3195
 8381TIP3    H146634   2.621   5.253  14.419  2.2929 -1.4065  2.0253
 8381TIP3    H246635   2.632   5.366  14.520 -0.1046  0.5641  0.1758
 8382TIP3   OH246636   3.550   6.651  14.616 -0.1877 -0.4305 -0.3347
 8382TIP3    H146637   3.523   6.687  14.701  0.0903 -0.0253 -0.4167
 8382TIP3    H246638   3.641   6.623  14.629  0.4381  1.2254 -0.9773
 8383TIP3   OH246639   4.655   3.500   6.176  0.0650 -0.6584 -0.2640
 8383TIP3    H146640   4.749   3.508   6.157 -0.2263 -0.1330 -1.5945
 8383TIP3    H246641   4.626   3.589   6.196 -0.2093 -0.7804 -0.1040
 8384TIP3   OH246642   4.677   4.518   1.622 -0.0876 -0.6801 -0.0351
 8384TIP3    H146643   4.686   4.596   1.676  0.8056  0.2304 -1.4296
 8384TIP3    H246644   4.627   4.457   1.676 -0.3417  0.6489  1.2987
 8385TIP3   OH246645   2.266   3.529   1.526 -0.0649  0.3280 -0.0004
 8385TIP3    H146646   2.344   3.514   1.578 -0.1649 -0.3109 -0.0349
 8385TIP3    H246647   2.198   3.477   1.568  0.0737 -0.9782 -1.3192
 8386TIP3   OH246648   2.854   3.175  12.886  0.2967 -0.0180 -0.3913
 8386TIP3    H146649   2.932   3.203  12.837  0.7404 -0.8781 -0.1890
 8386TIP3    H246650   2.841   3.243  12.952  1.5125 -0.3978  0.2652
 8387TIP3   OH246651   2.086   3.883   0.477  0.5172 -0.6308 -0.5838
 8387TIP3    H146652   2.137   3.822   0.530  1.7582  0.9929  0.1770
 8387TIP3    H246653   2.140   3.962   0.472 -1.4198  0.7568 -0.7529
 8388TIP3   OH246654   2.820   3.784   3.019  0.1787 -0.2779  0.1571
 8388TIP3    H146655   2.785   3.832   2.944  2.2012  1.6964  0.3761
 8388TIP3    H246656   2.856   3.851   3.076  3.1236 -1.9899  0.5140
 8389TIP3   OH246657   1.711   3.752   5.469 -0.0816  0.0709 -0.4381
 8389TIP3    H146658   1.806   3.751   5.458  0.0138 -0.2911  0.3526
 8389TIP3    H246659   1.698   3.745   5.563 -0.9130 -1.8719 -0.6383
 8390TIP3   OH246660   1.163   2.019  12.599 -0.0683  0.5984 -0.2123
 8390TIP3    H146661   1.178   2.044  12.691  0.1775  1.0599 -0.3747
 8390TIP3    H246662   1.248   2.031  12.557 -0.3850  1.2212 -0.6857
 8391TIP3   OH246663   4.008   1.879  15.115  0.3494  0.0204 -0.1471
 8391TIP3    H146664   3.995   1.814  15.184  2.0955 -1.0404 -0.7260
 8391TIP3    H246665   3.949   1.852  15.045 -1.1380  0.8709  0.7326
 8392TIP3   OH246666   5.709   2.194   0.509 -0.1569  0.5420  0.2727
 8392TIP3    H146667   5.649   2.267   0.494 -0.1603  0.2774 -1.0592
 8392TIP3    H246668   5.792   2.236   0.533  0.0112  1.0211 -1.0816
 8393TIP3   OH246669   5.437   6.634   4.845 -0.5803  0.1675 -0.0448
 8393TIP3    H146670   5.476   6.625   4.932 -0.6692 -1.6517 -0.1541
 8393TIP3    H246671   5.343   6.627   4.860 -0.5360 -1.9823 -0.4134
 8394TIP3   OH246672   0.658   5.185   4.144  0.2938  0.1762 -0.4349
 8394TIP3    H146673   0.700   5.270   4.129  1.4606 -0.2819  0.0695
 8394TIP3    H246674   0.684   5.132   4.068  0.5026 -0.0661 -0.1961
 8395TIP3   OH246675   6.797   5.746   2.032 -0.2066 -0.3003 -0.1490
 8395TIP3    H146676   6.865   5.697   1.986  0.0488 -0.2982  0.2222
 8395TIP3    H246677   6.748   5.790   1.962  1.2571  1.1155 -0.3614
 8396TIP3   OH246678   3.038   5.620  14.033 -0.4168 -0.1765 -0.5070
 8396TIP3    H146679   2.975   5.683  14.000 -0.1837  0.3517  0.0460
 8396TIP3    H246680   3.122   5.648  13.998  0.0979  1.3234  1.7259
 8397TIP3   OH246681   2.286   3.501   6.462 -0.1383 -0.1376 -0.3555
 8397TIP3    H146682   2.340   3.468   6.390  1.0751  2.4458 -0.7295
 8397TIP3    H246683   2.319   3.589   6.478 -1.7241  0.0937  2.0524
 8398TIP3   OH246684   1.836   5.636  15.221 -0.4837  0.0572  0.9879
 8398TIP3    H146685   1.784   5.633  15.141 -0.1716 -0.4684  0.8019
 8398TIP3    H246686   1.835   5.546  15.254 -3.3676  0.8296  3.3680
 8399TIP3   OH246687   1.182   2.740   5.167 -0.6362  0.0488 -0.1444
 8399TIP3    H146688   1.133   2.699   5.239 -1.4093  2.1943  0.6332
 8399TIP3    H246689   1.213   2.823   5.204  0.9075  0.1732 -1.6206
 8400TIP3   OH246690   1.360   5.930  17.215  0.4180 -0.0654  0.6545
 8400TIP3    H146691   1.365   6.007  17.159  0.0619  0.7117  1.6676
 8400TIP3    H246692   1.285   5.880  17.181 -0.2844  0.7913  0.9306
 8401TIP3   OH246693   6.103   5.776  14.819 -0.1792 -0.6993 -0.0981
 8401TIP3    H146694   6.061   5.731  14.745 -0.9346 -1.4313  0.7538
 8401TIP3    H246695   6.123   5.863  14.785 -1.2036 -0.7693 -0.9349
 8402TIP3   OH246696   4.269   2.513  16.840 -0.3421  0.2710  0.0862
 8402TIP3    H146697   4.193   2.481  16.888  0.1760  1.2279  1.5909
 8402TIP3    H246698   4.291   2.596  16.881  2.1184 -0.4227  0.3482
 8403TIP3   OH246699   5.786   6.034   0.343 -0.0791 -0.5533  0.1517
 8403TIP3    H146700   5.779   5.963   0.406  0.2597 -0.0948  0.7203
 8403TIP3    H246701   5.758   5.996   0.260  0.4394 -1.4558  0.3731
 8404TIP3   OH246702   6.376   4.251  11.689 -0.4076  0.4447 -0.0015
 8404TIP3    H146703   6.394   4.325  11.631 -2.1711  1.0747  0.1718
 8404TIP3    H246704   6.407   4.174  11.642  0.2172  1.1605 -0.7842
 8405TIP3   OH246705   2.628   5.372   4.745 -0.2682 -0.4780 -0.0009
 8405TIP3    H146706   2.586   5.286   4.756 -1.7701  0.0229 -1.3913
 8405TIP3    H246707   2.682   5.362   4.666 -1.8826  0.3219 -1.2592
 8406TIP3   OH246708   3.452   2.902  16.394  0.0739  0.1306 -0.1049
 8406TIP3    H146709   3.388   2.962  16.355  1.2637  0.4818 -1.6191
 8406TIP3    H246710   3.537   2.933  16.360  0.7480 -2.2841 -0.7942
 8407TIP3   OH246711   0.136   1.497  14.779 -0.2244  0.1646  0.6391
 8407TIP3    H146712   0.231   1.491  14.788 -0.2940  1.4582  2.6980
 8407TIP3    H246713   0.119   1.590  14.764 -1.1897 -0.0704  0.1622
 8408TIP3   OH246714   4.389   4.137  16.558  0.7572  0.4496  0.0905
 8408TIP3    H146715   4.480   4.118  16.535  0.9457  0.6677  0.6434
 8408TIP3    H246716   4.389   4.144  16.653 -0.6869 -4.2752  0.6865
 8409TIP3   OH246717   3.607   1.937  14.496  0.4407 -0.0051  0.2536
 8409TIP3    H146718   3.578   2.028  14.498 -1.3006 -0.5046 -0.1234
 8409TIP3    H246719   3.599   1.912  14.404  1.8862 -0.2591  0.1846
 8410TIP3   OH246720   5.104   5.616   0.256  0.2061 -0.3523 -0.2805
 8410TIP3    H146721   5.009   5.619   0.241 -0.0172 -0.2507  1.0420
 8410TIP3    H246722   5.131   5.708   0.254  0.0430 -0.2758  0.6628
 8411TIP3   OH246723   6.124   3.446   3.943  0.0882  0.2947  0.1616
 8411TIP3    H146724   6.197   3.388   3.923 -0.7260 -0.8396  0.4249
 8411TIP3    H246725   6.146   3.528   3.897  2.3653  0.6199  1.6219
 8412TIP3   OH246726   2.013   2.801  12.547 -0.1664 -0.1550 -0.2898
 8412TIP3    H146727   2.048   2.839  12.466  0.2137 -2.3585 -1.2513
 8412TIP3    H246728   1.952   2.734  12.517  1.2932 -2.2653  1.1479
 8413TIP3   OH246729   2.663   3.632  12.530  0.1106  0.2896 -0.6218
 8413TIP3    H146730   2.717   3.696  12.576  0.2021  1.0952 -1.7792
 8413TIP3    H246731   2.584   3.624  12.583  0.0040  1.5539 -0.5514
 8414TIP3   OH246732   4.975   1.710  12.062 -0.2567 -0.2889  0.2435
 8414TIP3    H146733   5.001   1.792  12.103 -1.4433  0.2432 -0.0181
 8414TIP3    H246734   4.904   1.735  12.002 -0.2149 -1.4097 -0.2965
 8415TIP3   OH246735   1.679   6.691  12.260  0.1099 -0.6025  0.0898
 8415TIP3    H146736   1.734   6.636  12.203 -1.0158 -0.2024 -1.4469
 8415TIP3    H246737   1.596   6.697  12.214 -0.3468  1.0023  1.0640
 8416TIP3   OH246738   1.698   0.623  14.507 -0.1955  0.2666 -0.1204
 8416TIP3    H146739   1.679   0.531  14.491  0.3285  0.0338  0.5288
 8416TIP3    H246740   1.721   0.659  14.421  1.7383 -0.7392 -0.0765
 8417TIP3   OH246741   6.137   6.430   0.825  0.2408  0.3144 -0.2173
 8417TIP3    H146742   6.194   6.485   0.878 -0.4852  0.4010  0.5012
 8417TIP3    H246743   6.196   6.379   0.769  0.9894  0.6462  0.2650
 8418TIP3   OH246744   2.663   4.330  13.981  0.1486  0.4281  0.0384
 8418TIP3    H146745   2.635   4.320  13.890 -0.1564 -0.1220  0.1873
 8418TIP3    H246746   2.652   4.243  14.020 -1.4346  1.0390  1.0702
 8419TIP3   OH246747   4.050   3.753   3.400  0.0888  0.1804  0.8066
 8419TIP3    H146748   3.971   3.739   3.453 -0.0860  1.0862  0.8087
 8419TIP3    H246749   4.022   3.735   3.310  0.3495 -1.2256  0.9821
 8420TIP3   OH246750   4.167   2.375   2.883  0.2922 -0.4324  0.0718
 8420TIP3    H146751   4.145   2.397   2.973 -0.2858 -0.3349 -0.0905
 8420TIP3    H246752   4.246   2.427   2.864 -0.3222  0.5393  0.1098
 8421TIP3   OH246753   3.612   2.104  14.889 -0.2972 -0.4173  0.4133
 8421TIP3    H146754   3.617   2.058  14.973  0.8045  2.2382  1.9246
 8421TIP3    H246755   3.659   2.047  14.828 -0.8978 -2.2914  1.6185
 8422TIP3   OH246756   2.566   1.220  17.217 -0.0064  0.1547 -0.0287
 8422TIP3    H146757   2.659   1.221  17.193 -0.4749 -0.1600 -2.0816
 8422TIP3    H246758   2.562   1.167  17.296  1.5191 -0.1310 -0.0997
 8423TIP3   OH246759   3.001   0.337   4.762 -0.2213 -0.0111  0.0472
 8423TIP3    H146760   3.075   0.286   4.794  0.2249  0.8176  0.3526
 8423TIP3    H246761   3.021   0.354   4.670  0.7751  1.5811  0.5216
 8424TIP3   OH246762   2.718   4.480   2.805 -0.5220  0.0265 -0.0709
 8424TIP3    H146763   2.677   4.415   2.863 -1.0534 -0.1628 -0.6532
 8424TIP3    H246764   2.699   4.564   2.847  0.3562 -0.1901  0.8044
 8425TIP3   OH246765   3.992   3.169  15.675  0.3044 -0.6428  0.4015
 8425TIP3    H146766   3.958   3.250  15.713 -0.5989 -0.2046 -1.2148
 8425TIP3    H246767   4.029   3.121  15.749 -2.3718 -0.3904  2.0559
 8426TIP3   OH246768   4.355   3.536  14.091  0.3007 -0.7446  0.1385
 8426TIP3    H146769   4.376   3.629  14.089 -1.0886 -0.3704  1.1996
 8426TIP3    H246770   4.422   3.497  14.147  0.7678 -0.3622 -0.1421
 8427TIP3   OH246771   0.761   0.691  13.478 -0.0919 -0.3872  0.5421
 8427TIP3    H146772   0.679   0.705  13.431  0.1045 -2.1335 -0.4201
 8427TIP3    H246773   0.829   0.713  13.414  0.1875  0.0469  0.9861
 8428TIP3   OH246774   3.484   1.836   3.823  0.1468 -0.0782  0.4752
 8428TIP3    H146775   3.441   1.787   3.754 -1.1499  1.2806  0.2739
 8428TIP3    H246776   3.537   1.901   3.777 -1.9334  1.8733  0.6576
 8429TIP3   OH246777   4.985   2.450  12.729 -0.1500 -0.2596  0.4862
 8429TIP3    H146778   4.937   2.407  12.799 -0.3687 -1.3306 -0.2877
 8429TIP3    H246779   4.918   2.497  12.679 -0.2161 -0.6686  0.1800
 8430TIP3   OH246780   1.839   2.793   4.040  0.1412  0.1224 -0.0130
 8430TIP3    H146781   1.759   2.799   3.987  0.4421 -0.4082 -0.5450
 8430TIP3    H246782   1.910   2.789   3.976  0.7191  1.9712  0.4766
 8431TIP3   OH246783   5.222   1.483  14.565  0.1345 -0.2195  0.2094
 8431TIP3    H146784   5.286   1.553  14.580 -2.4222  1.9667  1.7460
 8431TIP3    H246785   5.204   1.487  14.471 -0.2695  1.4970  0.3383
 8432TIP3   OH246786   3.744   0.912  14.093  0.7369 -0.3171 -0.1149
 8432TIP3    H146787   3.728   1.000  14.125 -3.0905 -0.1835 -1.8057
 8432TIP3    H246788   3.824   0.919  14.040  0.3528  2.2246 -0.4639
 8433TIP3   OH246789   0.216   5.356  15.552  0.1028 -0.4492  0.0991
 8433TIP3    H146790   0.155   5.405  15.498  1.3843 -0.1724 -1.1551
 8433TIP3    H246791   0.256   5.293  15.492  0.4965 -1.1356  1.0588
 8434TIP3   OH246792   3.699   4.683  11.244  0.0882 -0.1755 -0.1955
 8434TIP3    H146793   3.688   4.607  11.185  2.4354  0.1007 -1.0796
 8434TIP3    H246794   3.732   4.752  11.187 -0.2367  0.9703  0.9684
 8435TIP3   OH246795   0.328   6.165   3.957 -0.6346 -0.0796 -0.2330
 8435TIP3    H146796   0.311   6.193   4.047  0.6687  1.3432 -0.3856
 8435TIP3    H246797   0.421   6.182   3.943 -0.7378 -0.5797 -1.7480
 8436TIP3   OH246798   3.884   5.986  15.522  0.1313  0.0022 -0.3522
 8436TIP3    H146799   3.860   5.913  15.465 -0.3919 -0.2931  0.2249
 8436TIP3    H246800   3.886   6.062  15.465  0.1447 -0.3745 -0.8598
 8437TIP3   OH246801   2.744   6.215  15.161 -0.3737  0.2612 -0.5520
 8437TIP3    H146802   2.760   6.243  15.071  2.1487 -0.6395 -0.4609
 8437TIP3    H246803   2.735   6.120  15.156  0.4933  0.1261  0.2199
 8438TIP3   OH246804   3.668   6.187   5.857 -0.0656  0.4305 -0.1416
 8438TIP3    H146805   3.642   6.114   5.801  0.4089  0.2494 -0.1313
 8438TIP3    H246806   3.762   6.199   5.839  0.9535 -1.7172  2.9061
 8439TIP3   OH246807   4.734   1.661  16.722  0.5124 -0.0827  0.1772
 8439TIP3    H146808   4.793   1.586  16.722  1.5714  0.6546 -2.1646
 8439TIP3    H246809   4.770   1.720  16.656 -1.3475  1.6475  0.6019
 8440TIP3   OH246810   6.375   6.676  14.364 -0.7758  0.1120  0.1194
 8440TIP3    H146811   6.460   6.714  14.344 -0.5670  0.6642  1.9034
 8440TIP3    H246812   6.385   6.582  14.346  1.0217 -0.2640  2.5734
 8441TIP3   OH246813   3.756   4.131  13.481  0.1528  0.4572 -0.0840
 8441TIP3    H146814   3.788   4.048  13.444  0.0588  0.7314 -0.7942
 8441TIP3    H246815   3.670   4.110  13.516  0.0111  0.3040 -0.5088
 8442TIP3   OH246816   1.721   2.061   3.301 -0.1731  0.0414 -0.6732
 8442TIP3    H146817   1.814   2.039   3.301  0.2601  1.7609  0.0936
 8442TIP3    H246818   1.704   2.096   3.213 -0.0393  0.0126 -0.7100
 8443TIP3   OH246819   5.477   2.058  14.515 -0.1719 -0.4723  0.4789
 8443TIP3    H146820   5.452   1.978  14.469 -0.7544 -0.6655  1.1205
 8443TIP3    H246821   5.432   2.053  14.599  0.2883  0.2321  0.7801
 8444TIP3   OH246822   0.740   2.284  11.530 -0.3882 -0.3039 -0.5800
 8444TIP3    H146823   0.684   2.337  11.473  2.2187  1.7917 -1.4298
 8444TIP3    H246824   0.796   2.349  11.575  0.5925 -2.1794  1.0709
 8445TIP3   OH246825   1.973   1.243  12.180  0.1203  0.1089  0.5807
 8445TIP3    H146826   2.011   1.308  12.239 -0.2155 -0.2981  1.2533
 8445TIP3    H246827   2.042   1.226  12.116 -0.2393  2.1191 -0.4336
 8446TIP3   OH246828   6.754   5.459   4.758  0.4730  0.1376  0.2169
 8446TIP3    H146829   6.677   5.515   4.752  0.9583  0.7080 -3.2342
 8446TIP3    H246830   6.728   5.387   4.815 -1.6824  1.6245  1.2263
 8447TIP3   OH246831   1.588   5.167  13.593 -0.2320 -0.0119 -0.2573
 8447TIP3    H146832   1.668   5.202  13.553  0.3523 -1.3352 -0.2886
 8447TIP3    H246833   1.521   5.182  13.527  0.2193  0.0816 -0.7041
 8448TIP3   OH246834   2.365   3.608   1.231  0.3422  0.1309 -0.1626
 8448TIP3    H146835   2.282   3.653   1.217  0.5947  0.5074 -0.4458
 8448TIP3    H246836   2.365   3.585   1.324 -0.2972 -0.3075 -0.2633
 8449TIP3   OH246837   4.763   1.194  11.545 -0.4925  0.5898  0.7984
 8449TIP3    H146838   4.676   1.165  11.516  0.0582 -0.5116  0.1973
 8449TIP3    H246839   4.764   1.176  11.638 -0.6449 -0.0788  0.6728
 8450TIP3   OH246840   6.450   3.621  16.852 -0.5379 -0.7190 -0.6673
 8450TIP3    H146841   6.407   3.683  16.793  0.6706  0.0980 -0.7168
 8450TIP3    H246842   6.401   3.539  16.841  1.0078 -1.3314 -4.5933
 8451TIP3   OH246843   6.678   2.723   3.968  0.1125  0.4901  0.2172
 8451TIP3    H146844   6.630   2.800   3.998  0.1168  0.2674  0.8023
 8451TIP3    H246845   6.701   2.676   4.048  1.4741  0.6842 -0.0337
 8452TIP3   OH246846   3.209   4.977  13.085  0.7287 -0.2692 -0.4852
 8452TIP3    H146847   3.120   5.002  13.063  0.5243  0.2255  0.7865
 8452TIP3    H246848   3.210   4.882  13.081  0.2254 -0.2619 -0.7829
 8453TIP3   OH246849   6.680   5.950  13.713  0.0935 -0.2785 -0.0918
 8453TIP3    H146850   6.608   5.956  13.776 -0.9563 -2.5999 -0.9572
 8453TIP3    H246851   6.688   5.857  13.693  2.0893  0.1166 -1.4852
 8454TIP3   OH246852   5.475   4.671   5.403  0.0498  0.2052 -0.0305
 8454TIP3    H146853   5.570   4.663   5.395 -0.0488 -0.1966 -0.9115
 8454TIP3    H246854   5.456   4.761   5.376  0.2891  0.7021  1.3699
 8455TIP3   OH246855   4.043   3.131   5.559  0.0852 -0.1745 -0.1140
 8455TIP3    H146856   4.033   3.036   5.566 -1.1196 -0.3748 -2.9783
 8455TIP3    H246857   3.987   3.166   5.629 -0.0532 -1.5596  0.5008
 8456TIP3   OH246858   0.233   1.652   3.240 -0.5072  0.9350 -0.1550
 8456TIP3    H146859   0.260   1.565   3.209  0.9164  0.4475  2.1740
 8456TIP3    H246860   0.310   1.685   3.286 -1.0040  3.5104 -1.0478
 8457TIP3   OH246861   3.191   3.397   5.632 -0.5895 -0.0910 -0.5134
 8457TIP3    H146862   3.275   3.431   5.662 -0.5172 -1.3888  0.8664
 8457TIP3    H246863   3.137   3.476   5.620  0.0553  0.6354  1.0403
 8458TIP3   OH246864   3.390   4.374   1.763  0.2304 -0.1761  0.7421
 8458TIP3    H146865   3.323   4.361   1.695 -0.2473  0.3073  1.1113
 8458TIP3    H246866   3.456   4.428   1.719  0.4502 -0.7681  0.3337
 8459TIP3   OH246867   2.447   4.039   3.284  0.3760  0.3836 -0.4006
 8459TIP3    H146868   2.476   3.977   3.351  2.2094  1.0182 -0.5625
 8459TIP3    H246869   2.519   4.042   3.220 -1.7658 -1.0948 -3.0996
 8460TIP3   OH246870   4.112   1.574  14.690 -0.1681 -0.2905 -0.2663
 8460TIP3    H146871   4.019   1.551  14.683 -0.3536 -0.2105  1.5472
 8460TIP3    H246872   4.153   1.496  14.727  0.1953  0.2300  0.4561
 8461TIP3   OH246873   3.553   5.860  13.031  0.7746  0.0920 -0.1482
 8461TIP3    H146874   3.502   5.814  12.964 -0.7240  0.8663  0.4061
 8461TIP3    H246875   3.636   5.813  13.034  0.6413 -0.3783 -2.0636
 8462TIP3   OH246876   1.004   3.259   3.955  0.0895 -0.2704 -0.1726
 8462TIP3    H146877   1.085   3.252   4.004 -1.3751  4.2561  3.7053
 8462TIP3    H246878   0.953   3.181   3.980  1.3704 -0.6522  1.3303
 8463TIP3   OH246879   2.217   5.071  15.154  0.0523  0.1907 -0.0014
 8463TIP3    H146880   2.207   5.138  15.221 -0.1723 -1.5681  1.8247
 8463TIP3    H246881   2.147   5.009  15.172  1.3046 -1.4397 -0.4854
 8464TIP3   OH246882   5.984   4.019  11.222  0.1018  0.4377  0.0637
 8464TIP3    H146883   5.894   3.989  11.214 -0.2827  1.3493  0.8739
 8464TIP3    H246884   6.014   3.984  11.306  0.4229  0.3279 -0.0960
 8465TIP3   OH246885   2.053   5.470  11.817 -0.8004  0.3692 -0.2763
 8465TIP3    H146886   2.148   5.474  11.833 -0.8720  0.2244  0.2207
 8465TIP3    H246887   2.030   5.379  11.837 -1.1907  0.6288  0.4787
 8466TIP3   OH246888   0.082   5.240  13.877  0.1526  0.3127  0.6168
 8466TIP3    H146889  -0.012   5.234  13.898 -0.9726  1.6721 -3.1814
 8466TIP3    H246890   0.107   5.150  13.855 -1.3463  0.4073 -1.8299
 8467TIP3   OH246891   2.113   2.592   3.167 -0.4902  0.1525  0.4679
 8467TIP3    H146892   2.138   2.654   3.099 -1.3161 -0.1040 -0.0905
 8467TIP3    H246893   2.020   2.574   3.150 -0.0274 -2.0391 -0.0443
 8468TIP3   OH246894   0.681   4.373  16.152 -0.5397 -0.3658  0.0342
 8468TIP3    H146895   0.726   4.446  16.110 -1.5129 -0.0672 -0.5129
 8468TIP3    H246896   0.735   4.353  16.229  0.7234 -0.2749 -0.7963
 8469TIP3   OH246897   0.899   2.671  13.608  0.1526  0.8164 -0.2761
 8469TIP3    H146898   0.921   2.683  13.700  0.5778  1.6597 -0.4719
 8469TIP3    H246899   0.974   2.708  13.561 -1.1545  2.7839 -0.9677
 8470TIP3   OH246900   5.348   0.812  12.705 -0.4440 -0.1158 -0.2439
 8470TIP3    H146901   5.276   0.812  12.642  0.7600  1.5954 -1.7183
 8470TIP3    H246902   5.375   0.903  12.710  0.5944 -0.4891  1.5022
 8471TIP3   OH246903   2.995   6.508  16.087 -0.2724  0.0505  0.1600
 8471TIP3    H146904   2.915   6.482  16.042  0.0910  0.4927 -0.7633
 8471TIP3    H246905   3.033   6.576  16.031  1.4050 -1.0362 -0.0617
 8472TIP3   OH246906   1.363   5.280   1.160 -0.1582  0.2388  0.0402
 8472TIP3    H146907   1.319   5.224   1.097 -0.2118  0.3538 -0.0242
 8472TIP3    H246908   1.293   5.309   1.219 -0.1478  0.3237  0.0101
 8473TIP3   OH246909   4.478   1.581  14.141 -0.2677 -0.3104  0.0184
 8473TIP3    H146910   4.391   1.558  14.110 -1.4036  0.9935  2.0122
 8473TIP3    H246911   4.495   1.520  14.214  1.8080 -2.4875 -2.0772
 8474TIP3   OH246912   5.623   4.944  15.305 -0.0441  0.0949  0.1031
 8474TIP3    H146913   5.630   5.040  15.307  0.5170  0.0432  1.1197
 8474TIP3    H246914   5.655   4.920  15.218 -1.1921  0.8904 -0.5804
 8475TIP3   OH246915   1.384   5.435   3.664 -0.0343 -0.0776  0.1141
 8475TIP3    H146916   1.355   5.526   3.669 -0.7255 -0.2881 -0.0308
 8475TIP3    H246917   1.417   5.415   3.751 -1.0894 -0.0889  0.5238
 8476TIP3   OH246918   5.698   4.136  12.094 -0.0687 -0.5892  0.4088
 8476TIP3    H146919   5.631   4.078  12.057  0.8472 -1.9291  0.7869
 8476TIP3    H246920   5.763   4.145  12.024  0.0066 -0.3488  0.5074
 8477TIP3   OH246921   0.788   6.354  14.264  0.4760 -0.3843 -0.0279
 8477TIP3    H146922   0.732   6.377  14.190 -1.5515 -1.7983  0.9873
 8477TIP3    H246923   0.765   6.417  14.332 -1.2135 -1.9566  0.9529
 8478TIP3   OH246924   5.275   1.090  12.175  0.3899 -0.1609  0.0627
 8478TIP3    H146925   5.198   1.045  12.209 -0.3925  1.6353  0.7796
 8478TIP3    H246926   5.242   1.171  12.137  1.6725 -0.4695 -1.8436
 8479TIP3   OH246927   4.532   5.129   1.202 -0.0010  0.4848 -0.3157
 8479TIP3    H146928   4.554   5.149   1.293 -1.9237 -0.0055  0.3100
 8479TIP3    H246929   4.615   5.104   1.162  0.4702 -2.8148  2.2648
 8480TIP3   OH246930   4.328   3.282   5.217  0.4701 -0.3305  0.6102
 8480TIP3    H146931   4.337   3.304   5.310  1.2461 -2.7713  1.1891
 8480TIP3    H246932   4.258   3.217   5.214  1.3465 -1.2621 -0.3128
 8481TIP3   OH246933   4.741   4.120   5.919 -0.7957 -0.0650 -0.1573
 8481TIP3    H146934   4.654   4.131   5.880 -0.8689  1.8761  0.4676
 8481TIP3    H246935   4.724   4.117   6.013 -0.1008  1.8777  0.0666
 8482TIP3   OH246936   1.449   4.636   4.211 -0.2876  0.0720  0.4074
 8482TIP3    H146937   1.475   4.617   4.120  0.1545 -2.0963  0.9340
 8482TIP3    H246938   1.531   4.630   4.261 -0.6181  0.7209  1.0458
 8483TIP3   OH246939   4.880   0.718  11.769 -0.3917  0.5322  0.3457
 8483TIP3    H146940   4.857   0.651  11.834  0.4431 -0.7873 -0.6746
 8483TIP3    H246941   4.821   0.703  11.696  1.0314 -0.3541 -0.6739
 8484TIP3   OH246942   6.068   1.977  13.722  0.1888  0.2843 -0.7170
 8484TIP3    H146943   6.014   1.917  13.670 -0.1435 -0.5603  0.5476
 8484TIP3    H246944   6.100   1.923  13.795  0.9814  1.3250 -0.2674
 8485TIP3   OH246945   0.680   4.566   3.215 -0.0720 -0.0046  0.1994
 8485TIP3    H146946   0.656   4.517   3.293  1.4594  1.4831  1.6921
 8485TIP3    H246947   0.770   4.595   3.231 -0.0847  1.2589 -1.6421
 8486TIP3   OH246948   2.133   0.538  16.092  0.5209 -0.1635 -0.7247
 8486TIP3    H146949   2.046   0.560  16.059  0.0362 -1.4576 -0.3593
 8486TIP3    H246950   2.130   0.444  16.106  1.8838 -0.1703 -0.3982
 8487TIP3   OH246951   3.849   6.448  12.945 -0.4345  0.1170 -0.3849
 8487TIP3    H146952   3.862   6.439  12.851 -1.1357 -1.2032 -0.3841
 8487TIP3    H246953   3.760   6.418  12.960 -0.9920  2.0883  0.4920
 8488TIP3   OH246954   3.389   5.280  12.785 -0.3600  0.2913  0.7376
 8488TIP3    H146955   3.303   5.254  12.753 -0.2636  3.8080 -3.2958
 8488TIP3    H246956   3.450   5.221  12.741 -0.5467  0.7073 -0.0914
 8489TIP3   OH246957   5.730   2.615   4.963 -0.2125 -0.3549  0.0590
 8489TIP3    H146958   5.805   2.621   4.905 -0.6738  0.0025 -0.5044
 8489TIP3    H246959   5.695   2.527   4.949 -0.6856 -0.0632 -0.6708
 8490TIP3   OH246960   5.299   1.432   5.755  0.0949 -0.1190 -0.0236
 8490TIP3    H146961   5.291   1.342   5.787  2.2850 -0.1803  0.5017
 8490TIP3    H246962   5.294   1.486   5.834 -0.0898  0.1490 -0.2158
 8491TIP3   OH246963   3.060   6.367   4.635  0.4079  0.1432  0.2360
 8491TIP3    H146964   3.055   6.423   4.557  0.3375  1.3333  1.0634
 8491TIP3    H246965   3.096   6.424   4.703 -0.7251 -0.4958  1.4112
 8492TIP3   OH246966   4.794   5.810   5.292 -0.4639 -0.0980  0.0758
 8492TIP3    H146967   4.855   5.765   5.351 -2.4162 -1.2292  1.3490
 8492TIP3    H246968   4.800   5.761   5.210 -1.9964 -2.3857  1.2107
 8493TIP3   OH246969   5.285   4.827   1.950  0.0614 -0.0709  0.5744
 8493TIP3    H146970   5.356   4.811   1.888 -0.7106 -0.9240 -0.1239
 8493TIP3    H246971   5.274   4.922   1.952  0.4563 -0.0104 -0.1886
 8494TIP3   OH246972   0.313   0.679   4.035  0.2875  0.1725 -0.3953
 8494TIP3    H146973   0.355   0.710   4.116  1.2113 -0.8451 -0.4696
 8494TIP3    H246974   0.377   0.619   3.996 -0.3242  0.3233 -1.6726
 8495TIP3   OH246975   0.125   6.501   6.170 -0.7539 -0.5054 -0.1117
 8495TIP3    H146976   0.121   6.429   6.233  2.6087  0.5018  1.5092
 8495TIP3    H246977   0.093   6.577   6.217 -0.1749 -0.1288 -0.3138
 8496TIP3   OH246978   4.193   2.116   4.870 -0.2022 -0.5299 -0.1550
 8496TIP3    H146979   4.188   2.208   4.842 -1.4625 -0.2623  0.8437
 8496TIP3    H246980   4.143   2.069   4.803 -0.5938 -0.3098 -0.0240
 8497TIP3   OH246981   2.293   4.079   0.032  0.4010  0.4561 -0.1102
 8497TIP3    H146982   2.213   4.027   0.036  0.4971  0.2991 -0.2086
 8497TIP3    H246983   2.291   4.119  -0.055  1.5676 -1.3983 -1.0698
 8498TIP3   OH246984   0.767   3.230  12.014  0.1680 -0.0862  0.4312
 8498TIP3    H146985   0.718   3.233  11.931  0.8367  1.8056  0.0580
 8498TIP3    H246986   0.744   3.311  12.059  3.2798  1.1888 -0.0012
 8499TIP3   OH246987   1.723   0.484   4.268 -0.1237 -0.4276 -0.7129
 8499TIP3    H146988   1.637   0.489   4.226 -0.7323 -0.4449  0.4682
 8499TIP3    H246989   1.716   0.407   4.326  0.5477 -0.2007 -0.3191
 8500TIP3   OH246990   3.433   2.892   3.689  0.4085  0.0376  0.0639
 8500TIP3    H146991   3.393   2.815   3.649  0.3256  0.3862 -0.5380
 8500TIP3    H246992   3.400   2.966   3.638 -1.6307  0.7677  2.2072
 8501TIP3   OH246993   5.729   0.380   4.360  0.0373 -0.1673  0.1038
 8501TIP3    H146994   5.707   0.470   4.335 -0.6940 -0.3052  0.2314
 8501TIP3    H246995   5.715   0.329   4.281  0.0699 -0.2249  0.1353
 8502TIP3   OH246996   3.015   3.133   0.632 -0.1284  0.6229  0.9053
 8502TIP3    H146997   2.954   3.180   0.690  2.5308  1.9976  2.8327
 8502TIP3    H246998   3.099   3.138   0.678  1.3375 -1.7262 -1.2897
 8503TIP3   OH246999   4.760   0.966   3.794  0.6973  0.2003 -0.4298
 8503TIP3    H147000   4.706   0.912   3.851  0.4787 -0.2054 -1.0059
 8503TIP3    H247001   4.838   0.986   3.846  1.1065 -1.2585 -0.4450
 8504TIP3   OH247002   3.229   5.965  12.384  0.4332 -0.0071  0.2549
 8504TIP3    H147003   3.206   5.963  12.291  0.7536  0.8709  0.1520
 8504TIP3    H247004   3.165   6.025  12.423  1.1571  0.7124  0.3524
 8505TIP3   OH247005   5.438   5.771   1.161  0.2061  0.3489  0.4853
 8505TIP3    H147006   5.527   5.736   1.161  0.1328  0.0478 -1.5497
 8505TIP3    H247007   5.401   5.742   1.244  1.6706 -0.3899  0.9195
 8506TIP3   OH247008   3.816   0.762   5.586  0.2103  0.2243  0.2010
 8506TIP3    H147009   3.728   0.793   5.567  0.0075 -0.1427  0.5256
 8506TIP3    H247010   3.850   0.733   5.502  0.6676  1.9357 -0.2573
 8507TIP3   OH247011   4.106   3.532  15.488 -0.2289 -1.0446  0.7289
 8507TIP3    H147012   4.107   3.623  15.517  0.8339 -0.8543  0.1406
 8507TIP3    H247013   4.033   3.493  15.536 -0.4847  0.0277  1.2504
 8508TIP3   OH247014   2.151   5.222   5.890  0.0052 -0.5198 -0.1133
 8508TIP3    H147015   2.079   5.233   5.952 -1.3262 -0.8214 -1.5318
 8508TIP3    H247016   2.169   5.128   5.892  0.2350 -0.4730  0.0926
 8509TIP3   OH247017   5.100   5.753   2.055 -0.5962  0.6737  0.0268
 8509TIP3    H147018   5.168   5.786   2.113 -0.6406  1.6416 -0.4455
 8509TIP3    H247019   5.137   5.674   2.017  0.3769  1.3169 -0.4071
 8510TIP3   OH247020   5.731   3.455   4.237  0.0345  0.0474  0.1827
 8510TIP3    H147021   5.773   3.484   4.318  0.7705 -1.1376  0.2460
 8510TIP3    H247022   5.641   3.486   4.244 -0.5727 -1.9060  2.5120
 8511TIP3   OH247023   6.140   1.782  13.906  0.5213 -0.0530 -0.3581
 8511TIP3    H147024   6.202   1.848  13.939  0.0212 -0.0784  0.6451
 8511TIP3    H247025   6.068   1.783  13.968 -0.1453 -0.5660 -1.1097
 8512TIP3   OH247026   5.009   3.319   2.239 -0.1265 -0.1726 -0.3771
 8512TIP3    H147027   5.032   3.264   2.164  1.9798  2.9934 -2.3448
 8512TIP3    H247028   5.088   3.318   2.294  0.9860  2.5399 -1.7143
 8513TIP3   OH247029   3.780   3.074   1.560  0.5131  0.2143  0.2926
 8513TIP3    H147030   3.708   3.113   1.511  1.8941  0.4882 -1.6399
 8513TIP3    H247031   3.809   3.143   1.619 -0.0512  0.5007  0.2369
 8514TIP3   OH247032   0.254   5.044  13.768  0.0789 -0.2365 -0.3529
 8514TIP3    H147033   0.350   5.043  13.767  0.0941 -0.6636  0.4557
 8514TIP3    H247034   0.228   5.027  13.677  0.7565  2.3138 -1.0984
 8515TIP3   OH247035   2.267   0.521   3.449  0.5205 -0.5356  0.2344
 8515TIP3    H147036   2.321   0.456   3.494  0.1111 -1.0173  0.0411
 8515TIP3    H247037   2.215   0.470   3.387  0.7401  0.0676 -0.4582
 8516TIP3   OH247038   0.302   4.037  13.859  0.4318  0.1707 -0.6184
 8516TIP3    H147039   0.279   4.031  13.951  3.2834  0.4703  0.2268
 8516TIP3    H247040   0.300   4.131  13.839 -0.1067  0.1126 -0.8506
 8517TIP3   OH247041   1.981   1.207  13.535  0.1812  0.4815  0.0134
 8517TIP3    H147042   1.897   1.185  13.495  0.5426  0.1498 -0.5859
 8517TIP3    H247043   2.030   1.248  13.464  1.6195 -2.0217 -0.5708
 8518TIP3   OH247044   5.426   5.667   4.940  0.2370 -0.2161  0.1428
 8518TIP3    H147045   5.485   5.604   4.899  0.5192  0.5983 -0.7352
 8518TIP3    H247046   5.442   5.657   5.034  0.7972 -0.9351 -0.0152
 8519TIP3   OH247047   6.574   2.032  14.666  0.6518 -0.4061  0.5306
 8519TIP3    H147048   6.600   1.944  14.692  0.0137 -0.3058  1.5866
 8519TIP3    H247049   6.574   2.030  14.570 -1.6327 -2.2877  0.4723
 8520TIP3   OH247050   5.063   1.850  11.743 -0.4999  0.2231 -0.2979
 8520TIP3    H147051   5.135   1.862  11.681 -2.5173  1.3914 -2.6023
 8520TIP3    H247052   5.066   1.929  11.797  1.5086 -0.9772  1.5135
 8521TIP3   OH247053   1.673   6.057   2.612  0.2360  0.1874  0.1732
 8521TIP3    H147054   1.657   6.064   2.706  0.2760 -2.1681  0.4174
 8521TIP3    H247055   1.725   6.134   2.590  0.4267  0.6543  2.1224
 8522TIP3   OH247056   1.549   5.596   2.109  0.0210  0.3918  0.6064
 8522TIP3    H147057   1.551   5.652   2.031 -1.6259 -1.3111 -0.7625
 8522TIP3    H247058   1.595   5.517   2.083 -0.6668 -0.2527  1.2953
 8523TIP3   OH247059   2.696   2.407  12.058 -0.3137  0.0975  0.5050
 8523TIP3    H147060   2.613   2.360  12.071  0.9399 -2.6280 -0.6459
 8523TIP3    H247061   2.763   2.344  12.085  1.4518  1.5549 -0.3557
 8524TIP3   OH247062   6.703   4.941  13.974  0.0965 -0.0752  0.5594
 8524TIP3    H147063   6.646   4.935  14.050 -0.6008  2.0759  0.2611
 8524TIP3    H247064   6.788   4.912  14.005  0.0642  1.6748  2.4659
 8525TIP3   OH247065   2.559   4.618   2.557 -0.1798  0.0997 -0.1251
 8525TIP3    H147066   2.520   4.681   2.616  1.0280  0.8452 -0.0804
 8525TIP3    H247067   2.610   4.671   2.495  0.3923 -0.7868 -0.4445
 8526TIP3   OH247068   1.344   1.330  10.854  0.0517  0.5382  0.4772
 8526TIP3    H147069   1.422   1.385  10.848 -0.3820  1.0399 -1.0745
 8526TIP3    H247070   1.279   1.375  10.800 -0.7654 -0.7674  0.3358
 8527TIP3   OH247071   1.530   0.935   4.988  0.5282  0.5170 -0.2465
 8527TIP3    H147072   1.590   0.914   5.059 -0.5857 -0.4528  0.4387
 8527TIP3    H247073   1.459   0.984   5.029  0.1069  0.3675 -0.7770
 8528TIP3   OH247074   6.010   4.648  14.469  0.3088 -0.0472 -0.7936
 8528TIP3    H147075   5.930   4.662  14.521  0.9656  3.7993 -0.5609
 8528TIP3    H247076   6.081   4.655  14.532  1.0258 -3.8033 -0.9368
 8529TIP3   OH247077   4.406   0.029  16.677  0.0237  0.6003  0.2994
 8529TIP3    H147078   4.472   0.079  16.724 -0.3692  1.3291  0.0999
 8529TIP3    H247079   4.433   0.033  16.586 -0.4515  1.1769  0.1729
 8530TIP3   OH247080   3.957   1.619   0.913  0.3234  0.0936 -0.5926
 8530TIP3    H147081   4.043   1.652   0.941 -1.1615  2.3708  1.7935
 8530TIP3    H247082   3.931   1.678   0.842  0.4734 -0.2289 -0.9181
 8531TIP3   OH247083   5.495   0.238  13.319 -0.1401  0.3248 -0.0938
 8531TIP3    H147084   5.429   0.169  13.315 -0.6219  0.7007  1.0401
 8531TIP3    H247085   5.578   0.193  13.306 -0.4822 -0.3936  0.1512
 8532TIP3   OH247086   2.882   2.407   2.752  0.0132  0.0434  0.2856
 8532TIP3    H147087   2.941   2.455   2.695  0.1580 -0.0651  0.3455
 8532TIP3    H247088   2.802   2.397   2.700 -1.0466  2.7336  1.2196
 8533TIP3   OH247089   5.497   0.150   0.402 -0.6223 -0.2860  0.3525
 8533TIP3    H147090   5.525   0.198   0.480 -0.2441 -1.7475  1.1521
 8533TIP3    H247091   5.419   0.103   0.430  0.6472 -2.4153  0.5010
 8534TIP3   OH247092   6.765   2.507  11.969 -0.1625  0.5091  0.1924
 8534TIP3    H147093   6.815   2.439  11.923 -0.9662  1.3135 -2.0198
 8534TIP3    H247094   6.828   2.577  11.983  0.2724 -0.0333  1.0038
 8535TIP3   OH247095   2.035   0.069  15.474  0.3038 -0.3912 -0.4813
 8535TIP3    H147096   2.000   0.142  15.525  3.1922 -0.4431  1.8698
 8535TIP3    H247097   2.066   0.110  15.393  0.6672  0.8011  0.2249
 8536TIP3   OH247098   1.224   0.612   6.860 -0.2306  0.0146  0.0894
 8536TIP3    H147099   1.281   0.546   6.822 -0.2707  0.9872 -1.8097
 8536TIP3    H247100   1.198   0.667   6.786 -2.4367  0.5020  1.1298
 8537TIP3   OH247101   2.226   2.963   6.335 -0.3975  0.6269 -0.3537
 8537TIP3    H147102   2.150   2.961   6.393  0.1646  2.3424  0.5197
 8537TIP3    H247103   2.300   2.944   6.392 -0.2667 -4.1911 -1.7157
 8538TIP3   OH247104   2.854   5.608   4.259 -0.0296 -0.3871  0.1183
 8538TIP3    H147105   2.811   5.677   4.208 -0.2221 -1.0433 -0.6190
 8538TIP3    H247106   2.948   5.620   4.241 -0.1926 -1.6167 -1.7064
 8539TIP3   OH247107   4.101   1.173   0.908  0.2773 -0.2891 -0.8075
 8539TIP3    H147108   4.080   1.080   0.909 -0.4942 -0.1375  0.7180
 8539TIP3    H247109   4.021   1.215   0.941  0.7004  0.8945 -1.2468
 8540TIP3   OH247110   1.180   2.286  11.255  0.1430  0.0239 -0.1625
 8540TIP3    H147111   1.194   2.192  11.264 -0.0498 -0.0390 -0.5140
 8540TIP3    H247112   1.098   2.303  11.301  0.3015  0.0601  0.1088
 8541TIP3   OH247113   3.043   1.823   2.396  0.6893  0.4850  0.2258
 8541TIP3    H147114   3.089   1.904   2.375  0.0713  0.7294 -0.2216
 8541TIP3    H247115   3.080   1.758   2.336  0.5249  0.6594 -0.0686
 8542TIP3   OH247116   1.717   0.392  10.866 -0.1233 -0.4667  0.0639
 8542TIP3    H147117   1.626   0.395  10.837 -0.3374  0.0047  0.7620
 8542TIP3    H247118   1.724   0.463  10.929  0.5057 -1.0559  0.6651
 8543TIP3   OH247119   4.518   3.948  14.712 -1.1647  0.0450  0.4203
 8543TIP3    H147120   4.491   3.906  14.630 -0.6491  0.5424 -0.0177
 8543TIP3    H247121   4.493   4.040  14.701 -1.1121  0.1086  0.8343
 8544TIP3   OH247122   6.034   2.555   3.042  0.0513  0.9553  0.1810
 8544TIP3    H147123   5.950   2.510   3.045  0.5453  0.0082  0.3562
 8544TIP3    H247124   6.018   2.639   3.084 -0.2523 -0.1669  2.4683
 8545TIP3   OH247125   0.937   1.373   4.559 -0.2314  0.2034 -0.4522
 8545TIP3    H147126   0.948   1.359   4.653  1.3257 -1.6284 -0.8465
 8545TIP3    H247127   0.897   1.292   4.527  0.8969  0.0556 -1.5898
 8546TIP3   OH247128   1.417   1.610  16.488  0.0503 -0.1982 -0.5604
 8546TIP3    H147129   1.426   1.665  16.410  0.5867 -0.8365 -0.9645
 8546TIP3    H247130   1.454   1.662  16.559 -0.5304  0.4287 -0.7062
 8547TIP3   OH247131   4.414   0.236  12.844 -0.4565  0.0032  0.2999
 8547TIP3    H147132   4.452   0.319  12.814 -0.1602 -1.0561 -2.5183
 8547TIP3    H247133   4.486   0.173  12.838 -1.2432 -0.9047  0.1680
 8548TIP3   OH247134   5.760   1.148   2.615 -0.2147  0.2414 -0.5067
 8548TIP3    H147135   5.668   1.162   2.593 -0.1100 -0.2600 -1.2950
 8548TIP3    H247136   5.775   1.055   2.598 -0.6903 -0.8411  3.7923
 8549TIP3   OH247137   2.978   2.264  15.794 -0.1114  1.4057  0.7231
 8549TIP3    H147138   2.890   2.228  15.781  0.8006 -1.1666  1.0497
 8549TIP3    H247139   2.986   2.274  15.888  0.5776 -0.2730  0.8767
 8550TIP3   OH247140   4.595   1.424   6.487 -0.0761 -0.4091 -0.2486
 8550TIP3    H147141   4.519   1.397   6.540  0.0941 -0.7122 -0.1581
 8550TIP3    H247142   4.641   1.342   6.469 -0.4729 -0.3958 -1.3964
 8551TIP3   OH247143   3.098   2.431   0.762 -0.3545  0.3804 -0.4943
 8551TIP3    H147144   3.064   2.502   0.708  2.0956 -0.5656 -3.5861
 8551TIP3    H247145   3.037   2.359   0.749 -0.3719  0.5094 -1.1870
 8552TIP3   OH247146   0.571   1.895  11.783  0.3286 -0.0066  0.0964
 8552TIP3    H147147   0.576   1.990  11.795 -0.6636 -0.0149  0.6780
 8552TIP3    H247148   0.478   1.875  11.790  0.7141 -1.3084  2.1183
 8553TIP3   OH247149   3.981   3.865  13.713  0.8497  0.4522  0.1232
 8553TIP3    H147150   3.954   3.804  13.645 -2.0525 -0.2324  1.7097
 8553TIP3    H247151   4.034   3.930  13.668 -1.6809  0.5850 -2.9922
 8554TIP3   OH247152   1.037   1.102  14.282 -0.2016 -0.2920  0.0477
 8554TIP3    H147153   0.984   1.041  14.334  0.8420 -0.4225  0.9973
 8554TIP3    H247154   0.978   1.176  14.265 -1.2399 -1.2033 -0.4629
 8555TIP3   OH247155   5.003   2.360  16.434  0.1027 -0.1662  0.3430
 8555TIP3    H147156   4.967   2.272  16.445  2.9232 -1.6255 -1.1018
 8555TIP3    H247157   5.077   2.364  16.494  1.3581  0.3534 -1.1685
 8556TIP3   OH247158   2.059   2.090  14.405  0.2172 -0.9616 -0.5579
 8556TIP3    H147159   2.086   2.154  14.471 -1.1464  0.6563 -1.4814
 8556TIP3    H247160   2.141   2.047  14.378  1.2067  0.4631  0.0445
 8557TIP3   OH247161   5.227   0.233   2.031 -0.1804 -0.1789 -0.2273
 8557TIP3    H147162   5.158   0.167   2.026 -0.2610 -0.1948  0.8164
 8557TIP3    H247163   5.181   0.314   2.053  0.2081 -0.4043  1.6035
 8558TIP3   OH247164   5.091   3.343  12.566 -0.4141 -0.2175  0.2416
 8558TIP3    H147165   5.039   3.396  12.627 -0.9640 -1.6915  1.0973
 8558TIP3    H247166   5.141   3.284  12.622  1.3041  0.3351 -0.6271
 8559TIP3   OH247167   0.905   1.598   2.681  0.3019  0.2081  0.2911
 8559TIP3    H147168   0.953   1.677   2.705  0.4198  1.0375 -2.3473
 8559TIP3    H247169   0.927   1.584   2.588 -1.3384 -1.7574  0.1280
 8560TIP3   OH247170   2.566   4.440  16.411 -0.1441  0.1226  0.4225
 8560TIP3    H147171   2.501   4.465  16.476 -0.4910 -0.5248  0.3287
 8560TIP3    H247172   2.632   4.390  16.459  0.6801  1.3774  0.6547
 8561TIP3   OH247173   2.219   1.429  17.049 -0.3879  0.1491 -0.7759
 8561TIP3    H147174   2.310   1.448  17.025 -0.2826  0.5311 -0.1047
 8561TIP3    H247175   2.225   1.395  17.138 -1.0319  1.5357 -0.1856
 8562TIP3   OH247176   3.104   3.270  10.641 -0.3898 -0.6135  0.0081
 8562TIP3    H147177   3.171   3.308  10.697  0.7526  0.2690 -1.8583
 8562TIP3    H247178   3.024   3.316  10.664 -0.2262 -1.1272  1.7253
 8563TIP3   OH247179   3.796   0.455  12.205 -0.8189 -0.6130  0.1408
 8563TIP3    H147180   3.880   0.457  12.251 -0.6710  2.1567 -0.0683
 8563TIP3    H247181   3.763   0.366  12.217  1.4455 -1.3254  1.4939
 8564TIP3   OH247182   5.165   4.843  13.917  0.0015  0.1124 -0.4643
 8564TIP3    H147183   5.163   4.757  13.959 -0.5111  0.4348  0.1936
 8564TIP3    H247184   5.078   4.853  13.879 -0.9309  1.4637  1.8343
 8565TIP3   OH247185   1.490   0.964   4.494 -0.1057  0.7053 -0.8061
 8565TIP3    H147186   1.561   1.027   4.488 -1.6831  2.8833  1.6668
 8565TIP3    H247187   1.498   0.925   4.581 -1.1464 -0.0185 -1.0069
 8566TIP3   OH247188   2.806   3.777  17.028  0.5665 -0.4201 -0.2886
 8566TIP3    H147189   2.890   3.820  17.035  0.4725  0.1732 -2.2273
 8566TIP3    H247190   2.827   3.689  16.996  0.4957 -0.5552  0.0305
 8567TIP3   OH247191   5.716   2.007   2.436 -0.6086 -0.3645  0.7408
 8567TIP3    H147192   5.756   2.084   2.396 -1.2344 -0.8020 -0.7912
 8567TIP3    H247193   5.716   2.026   2.530 -1.0279  1.6397  0.3757
 8568TIP3   OH247194   4.295   0.969   0.724 -0.5663  0.2024 -0.3519
 8568TIP3    H147195   4.362   0.974   0.793 -0.3261  4.0852 -0.6419
 8568TIP3    H247196   4.322   0.895   0.670  1.4576 -0.5407  1.4952
 8569TIP3   OH247197   4.362   4.984  15.960  0.1971  1.2844 -0.1044
 8569TIP3    H147198   4.295   4.921  15.933 -0.7045  1.8338  0.7643
 8569TIP3    H247199   4.364   5.048  15.889 -0.3530  1.3706 -0.0478
 8570TIP3   OH247200   2.033   5.975   0.003  0.1470  0.5464  0.0686
 8570TIP3    H147201   2.093   5.960  -0.070  0.7603 -0.3725  0.7380
 8570TIP3    H247202   2.011   5.888   0.035  0.4015  0.9341  1.3767
 8571TIP3   OH247203   1.473   3.064   3.604 -0.5742  0.0503  0.1811
 8571TIP3    H147204   1.433   3.079   3.690 -2.3514  1.0459 -0.7594
 8571TIP3    H247205   1.457   2.971   3.586  0.7526 -0.4389  1.3320
 8572TIP3   OH247206   5.542   5.107   0.598  0.0193  0.1750 -0.0264
 8572TIP3    H147207   5.471   5.043   0.592  2.1060 -2.1732 -1.2922
 8572TIP3    H247208   5.558   5.134   0.508  1.2959 -0.0074  0.1287
 8573TIP3   OH247209   4.283   0.121  14.879 -0.1329  0.5201  0.4045
 8573TIP3    H147210   4.364   0.136  14.928  0.0947 -0.4014  0.3306
 8573TIP3    H247211   4.217   0.172  14.925  0.2942  0.5057  1.0500
 8574TIP3   OH247212   5.523   4.599   6.617  0.7671  0.3770  0.4596
 8574TIP3    H147213   5.549   4.690   6.626  1.8034  0.0255  1.2938
 8574TIP3    H247214   5.457   4.599   6.547  0.9889  1.7032  0.2275
 8575TIP3   OH247215   4.994   2.268  15.079 -0.6831  0.4238 -0.2782
 8575TIP3    H147216   4.975   2.251  14.987  0.2058  1.1402 -0.5998
 8575TIP3    H247217   4.922   2.224  15.126 -0.5916 -0.8396 -1.2474
 8576TIP3   OH247218   1.082   2.932   1.697  0.0487 -0.0698  0.5470
 8576TIP3    H147219   1.046   2.867   1.637 -1.6105  2.0212 -0.8753
 8576TIP3    H247220   1.050   3.016   1.664  0.8103  1.3805  3.1790
 8577TIP3   OH247221   3.656   5.003  11.183 -0.0232  0.3948 -0.0730
 8577TIP3    H147222   3.735   5.057  11.187  0.2433 -0.0051  0.1190
 8577TIP3    H247223   3.616   5.013  11.269  0.1960  0.0344  0.0718
 8578TIP3   OH247224   2.031   6.047  14.187 -0.3900 -0.2057 -0.8991
 8578TIP3    H147225   2.099   6.113  14.180 -0.2902 -0.4701 -3.5521
 8578TIP3    H247226   1.986   6.067  14.268  0.0392  2.7279 -1.2773
 8579TIP3   OH247227   3.076   6.274   0.801 -0.5884 -0.5168  0.0285
 8579TIP3    H147228   3.133   6.226   0.862  1.4095  2.0261  0.3571
 8579TIP3    H247229   3.133   6.294   0.726 -1.6009  0.5407 -0.4884
 8580TIP3   OH247230   3.505   0.880   3.231  0.5174 -0.4390 -0.2110
 8580TIP3    H147231   3.487   0.971   3.206  1.4679  0.0403  0.7570
 8580TIP3    H247232   3.567   0.887   3.304 -2.0310 -1.7471  2.2968
 8581TIP3   OH247233   0.312   2.016   0.092 -0.3937  0.1726 -0.1791
 8581TIP3    H147234   0.398   2.023   0.050  0.0066 -0.7658  0.4340
 8581TIP3    H247235   0.263   2.091   0.060  0.7690  0.9075 -0.2875
 8582TIP3   OH247236   3.260   6.676   5.255  0.5980 -0.0161 -0.7812
 8582TIP3    H147237   3.221   6.683   5.168  0.7734  1.8275 -0.7548
 8582TIP3    H247238   3.350   6.706   5.244  0.2193  1.6379  0.2605
 8583TIP3   OH247239   6.631   2.887   1.013 -0.4127 -0.3378 -0.0468
 8583TIP3    H147240   6.557   2.894   0.952 -0.9019 -0.8866  0.4694
 8583TIP3    H247241   6.703   2.857   0.958 -0.1992  1.4446 -0.8195
 8584TIP3   OH247242   2.003   3.946   1.504  0.5602 -0.6299 -0.3216
 8584TIP3    H147243   2.003   3.862   1.549 -0.7033 -0.8965 -0.7892
 8584TIP3    H247244   1.946   4.002   1.556  0.8728 -0.2533 -0.3764
 8585TIP3   OH247245   6.810   1.684  11.072 -0.0122 -0.2357  0.4002
 8585TIP3    H147246   6.819   1.595  11.038  0.6304  0.6937 -2.0390
 8585TIP3    H247247   6.896   1.724  11.059 -0.6389  1.1290  0.2268
 8586TIP3   OH247248   0.251   4.404   5.970  0.2953 -0.3716  0.0393
 8586TIP3    H147249   0.233   4.348   5.895  0.7208  0.4006 -0.6539
 8586TIP3    H247250   0.340   4.379   5.998  0.2143 -0.5186  0.1721
 8587TIP3   OH247251   6.025   0.123  13.892 -0.0883  0.5939  0.3619
 8587TIP3    H147252   6.011   0.046  13.946  0.8913  0.3663  0.3056
 8587TIP3    H247253   5.968   0.109  13.816  2.2313 -1.6086 -1.1667
 8588TIP3   OH247254   0.092   6.325   4.659 -0.1716  0.9266  0.4705
 8588TIP3    H147255   0.070   6.411   4.625 -0.6455  0.3916 -0.6286
 8588TIP3    H247256   0.153   6.342   4.730 -0.0301  2.1479  0.0738
 8589TIP3   OH247257   0.184   3.551   4.988  1.0015  0.0368 -0.0622
 8589TIP3    H147258   0.205   3.509   4.905 -0.6404 -2.1937  0.5403
 8589TIP3    H247259   0.196   3.482   5.053 -0.9280  0.7375  1.1172
 8590TIP3   OH247260   4.497   4.956   5.245  0.5481  0.6670 -0.3350
 8590TIP3    H147261   4.403   4.945   5.233  0.4725 -1.4714  1.5189
 8590TIP3    H247262   4.536   4.897   5.180  0.5960  0.9949 -0.6056
 8591TIP3   OH247263   5.049   1.673   3.994 -0.0510 -0.2504 -0.2782
 8591TIP3    H147264   5.098   1.625   3.928  0.5020 -1.1395  0.7518
 8591TIP3    H247265   4.962   1.685   3.955  0.7084  0.6902 -1.8164
 8592TIP3   OH247266   4.105   2.735  14.054 -0.0210  0.2191  0.1768
 8592TIP3    H147267   4.138   2.791  13.984 -0.4918 -0.2886 -0.4684
 8592TIP3    H247268   4.141   2.772  14.134  1.0108  0.4607 -0.3861
 8593TIP3   OH247269   3.669   4.087  15.329 -0.3129 -0.0723  0.2924
 8593TIP3    H147270   3.669   4.038  15.411 -2.1256 -1.5031 -0.4867
 8593TIP3    H247271   3.578   4.085  15.299 -0.2225  2.7724 -0.4257
 8594TIP3   OH247272   0.535   2.571  15.302  0.1727  0.4772 -0.9733
 8594TIP3    H147273   0.491   2.648  15.339  0.1541  1.0834 -2.1978
 8594TIP3    H247274   0.621   2.603  15.275  1.2770 -0.6196  1.0750
 8595TIP3   OH247275   0.196   6.119  17.068 -0.3156  0.4917  0.3219
 8595TIP3    H147276   0.290   6.136  17.062 -0.2945  0.0179 -1.2578
 8595TIP3    H247277   0.183   6.085  17.156  1.1573 -0.3888  0.2349
 8596TIP3   OH247278   2.241   4.015  14.969  0.1784  0.4158 -0.7726
 8596TIP3    H147279   2.225   3.924  14.993 -0.3419 -0.5427 -4.2891
 8596TIP3    H247280   2.328   4.034  15.003 -0.1003 -1.0030  0.8916
 8597TIP3   OH247281   3.303   2.154   3.541 -0.3183  0.1003 -0.5740
 8597TIP3    H147282   3.262   2.174   3.457 -2.3784 -0.4986  0.2365
 8597TIP3    H247283   3.254   2.079   3.575  0.4297  0.3579  1.1815
 8598TIP3   OH247284   1.914   0.847   4.005  0.0158  0.2521  0.2295
 8598TIP3    H147285   1.914   0.812   3.915 -1.2843  0.5581  0.0877
 8598TIP3    H247286   1.943   0.938   3.995 -0.2683  0.3296  0.0924
 8599TIP3   OH247287   4.998   1.144   4.400 -0.3825 -0.0855 -0.4765
 8599TIP3    H147288   4.924   1.202   4.417 -1.1553 -1.2651  0.3398
 8599TIP3    H247289   5.008   1.094   4.481  1.8690  0.6275 -0.2417
 8600TIP3   OH247290   0.554   1.919  11.503  0.4194  0.2886 -0.2153
 8600TIP3    H147291   0.500   1.977  11.450  1.3770  1.7364  0.3414
 8600TIP3    H247292   0.502   1.901  11.581  0.3285  0.8292 -0.1525
 8601TIP3   OH247293   1.852   2.529   3.169  0.1116 -0.2371  0.1750
 8601TIP3    H147294   1.812   2.601   3.121  0.5308  0.3789  0.7233
 8601TIP3    H247295   1.809   2.450   3.135  0.9537  0.0916 -1.7574
 8602TIP3   OH247296   6.773   6.625  15.060  0.7985  0.5060  0.3841
 8602TIP3    H147297   6.713   6.690  15.024  2.1204  2.6830  1.9059
 8602TIP3    H247298   6.720   6.545  15.065 -1.6271  2.0098  0.5849
 8603TIP3   OH247299   3.573   0.040   0.840  0.0082  0.2089  0.5900
 8603TIP3    H147300   3.628  -0.005   0.776  0.8449  0.4025  1.1402
 8603TIP3    H247301   3.485   0.035   0.805  0.4348  0.2175 -0.5135
 8604TIP3   OH247302   6.440   3.247  13.184 -0.2642 -0.0515  0.2850
 8604TIP3    H147303   6.428   3.341  13.171  0.0623  0.0404  0.6481
 8604TIP3    H247304   6.462   3.214  13.097  2.6002  0.6695  0.6363
 8605TIP3   OH247305   6.375   4.635  12.824  0.5694  0.6459  0.0825
 8605TIP3    H147306   6.412   4.593  12.746  1.0073 -1.5925  1.3797
 8605TIP3    H247307   6.312   4.571  12.857  0.7711  1.2983  1.8284
 8606TIP3   OH247308   2.973   4.561   2.704 -0.4374 -0.1720 -0.3040
 8606TIP3    H147309   3.021   4.532   2.781 -0.1611 -2.1863 -1.1678
 8606TIP3    H247310   2.884   4.527   2.717 -0.7316  0.5987 -0.2799
 8607TIP3   OH247311   0.240   1.645  12.767  0.1289  0.6189  0.1143
 8607TIP3    H147312   0.294   1.639  12.688  0.1624 -0.2432  0.1914
 8607TIP3    H247313   0.150   1.653  12.734 -0.0409 -1.4963 -0.0462
 8608TIP3   OH247314   4.677   3.700   4.896 -0.2513 -0.4898  0.0937
 8608TIP3    H147315   4.707   3.706   4.987  0.4960 -0.3478 -0.1559
 8608TIP3    H247316   4.736   3.636   4.855  1.0219  1.2222 -0.9022
 8609TIP3   OH247317   4.162   3.247   6.293 -0.0212  0.0973 -0.0362
 8609TIP3    H147318   4.110   3.226   6.371  0.0403  0.9450  0.2434
 8609TIP3    H247319   4.231   3.305   6.325  2.4740 -2.6714  0.0197
 8610TIP3   OH247320   5.312   1.592   5.973 -0.5019 -0.1302  0.1256
 8610TIP3    H147321   5.249   1.582   6.045  0.2025  0.7853  0.8894
 8610TIP3    H247322   5.395   1.563   6.010  0.2174  1.9531  0.2560
 8611TIP3   OH247323   4.828   2.164   0.382  0.3951 -0.5845 -0.5804
 8611TIP3    H147324   4.800   2.238   0.435 -0.2146 -0.8095 -0.5793
 8611TIP3    H247325   4.815   2.088   0.439 -0.3498 -0.8385 -1.0760
 8612TIP3   OH247326   1.531   0.721  15.296  0.2699 -0.1107 -0.3055
 8612TIP3    H147327   1.610   0.740  15.245 -0.5335  1.1685 -1.1433
 8612TIP3    H247328   1.465   0.697  15.230 -0.2491 -0.4382  0.3153
 8613TIP3   OH247329   6.555   3.120   3.575 -0.5717  0.3662 -0.3044
 8613TIP3    H147330   6.483   3.176   3.545  0.0281  0.4841 -1.5897
 8613TIP3    H247331   6.618   3.121   3.503 -1.2772 -3.2972 -1.2106
 8614TIP3   OH247332   3.386   3.276   4.738  0.2959 -0.5428  0.2641
 8614TIP3    H147333   3.368   3.302   4.829  0.6435 -1.8929  0.7367
 8614TIP3    H247334   3.436   3.194   4.746  1.7556  0.1503 -1.1012
 8615TIP3   OH247335   3.241   6.441  13.163 -0.0240  0.3107 -0.2471
 8615TIP3    H147336   3.328   6.441  13.121 -0.1825  1.1841 -0.5918
 8615TIP3    H247337   3.180   6.430  13.090 -0.2547  0.8031 -0.1266
 8616TIP3   OH247338   4.107   6.384  16.508  0.0352  0.3910  0.1227
 8616TIP3    H147339   4.121   6.322  16.436  0.5500  0.1409  0.4398
 8616TIP3    H247340   4.017   6.415  16.495  0.8550  2.1641 -2.0435
 8617TIP3   OH247341   4.753   2.349   6.279 -0.5446 -0.3666  0.9216
 8617TIP3    H147342   4.755   2.434   6.236 -0.5434  0.2626  2.1214
 8617TIP3    H247343   4.838   2.342   6.323  0.2126 -1.8195 -0.6699
 8618TIP3   OH247344   4.595   4.708   3.600 -0.0875 -0.2322 -0.2355
 8618TIP3    H147345   4.674   4.747   3.563 -1.0632  1.7600 -0.3259
 8618TIP3    H247346   4.544   4.679   3.524 -0.9344  1.5609 -0.4069
 8619TIP3   OH247347   2.574   3.405   4.789  0.3925  0.6110  0.4574
 8619TIP3    H147348   2.534   3.325   4.823 -1.6675 -0.1597 -3.2113
 8619TIP3    H247349   2.668   3.389   4.793  0.0440 -2.3293 -0.6280
 8620TIP3   OH247350   1.121   4.200  14.607 -0.3496  0.6905 -0.1894
 8620TIP3    H147351   1.070   4.134  14.561 -0.5728  0.6446  0.1155
 8620TIP3    H247352   1.055   4.253  14.652 -0.1169  0.4407  0.4573
 8621TIP3   OH247353   3.415   3.356  12.300  0.0213  0.4485 -0.3401
 8621TIP3    H147354   3.348   3.289  12.286 -0.3653  1.0259 -1.3905
 8621TIP3    H247355   3.366   3.437  12.309  0.5700  0.8440 -0.8646
 8622TIP3   OH247356   0.858   1.569  10.529  0.2343  0.6880  0.3163
 8622TIP3    H147357   0.845   1.640  10.592 -1.9352  1.7579 -1.2142
 8622TIP3    H247358   0.822   1.492  10.572 -3.2568  1.8144 -0.2587
 8623TIP3   OH247359   5.607   5.522   5.751 -0.2364 -0.0096 -0.2556
 8623TIP3    H147360   5.666   5.568   5.811  0.0554  2.3645 -2.1971
 8623TIP3    H247361   5.565   5.455   5.805  1.1927  0.9074  2.1626
 8624TIP3   OH247362   0.964   0.308  16.961  0.2084  0.2202 -0.0485
 8624TIP3    H147363   1.051   0.340  16.934 -0.5832  0.5305 -2.4263
 8624TIP3    H247364   0.983   0.235  17.020  2.0625  1.9400  1.6783
 8625TIP3   OH247365   2.264   6.534  13.336 -0.0247  0.2000  0.3274
 8625TIP3    H147366   2.218   6.458  13.372  1.4766 -0.8262  0.1871
 8625TIP3    H247367   2.356   6.510  13.341  0.3839  1.1478 -1.6560
 8626TIP3   OH247368   5.948   4.816  13.728  0.0988 -0.0983  0.0045
 8626TIP3    H147369   6.041   4.795  13.718 -0.3165 -1.6544 -1.0750
 8626TIP3    H247370   5.908   4.734  13.756 -0.8807  0.7206  1.1052
 8627TIP3   OH247371   0.170   5.670   5.694 -0.2447  0.2329 -0.3576
 8627TIP3    H147372   0.109   5.671   5.620  1.2089 -1.7771 -1.7120
 8627TIP3    H247373   0.251   5.706   5.659  0.0708  0.5627  0.6820
 8628TIP3   OH247374   3.635   4.329   2.032 -0.0290  0.5440  0.2572
 8628TIP3    H147375   3.542   4.308   2.021  0.1691 -0.9667  1.2772
 8628TIP3    H247376   3.636   4.423   2.048 -1.3552  0.6435 -0.1120
 8629TIP3   OH247377   6.342   4.672   2.406  0.2749  0.0710  0.2935
 8629TIP3    H147378   6.263   4.676   2.459  1.0318  3.2776  1.3756
 8629TIP3    H247379   6.402   4.616   2.456  0.0584  0.9032  1.5115
 8630TIP3   OH247380   4.766   3.064  13.820  0.2161  0.2518  0.2807
 8630TIP3    H147381   4.790   3.079  13.728 -0.0850 -0.1903  0.1296
 8630TIP3    H247382   4.763   3.152  13.858 -1.6979  0.6413 -0.6436
 8631TIP3   OH247383   0.305   1.055   5.001  0.1633  0.2531  0.1857
 8631TIP3    H147384   0.305   1.004   5.082 -0.8680  1.1165  0.7523
 8631TIP3    H247385   0.343   0.996   4.935  1.4505 -0.2970  1.3756
 8632TIP3   OH247386   2.162   5.309   0.212  0.2506 -0.1088  0.6928
 8632TIP3    H147387   2.132   5.308   0.303 -2.5387 -0.8973 -0.1299
 8632TIP3    H247388   2.140   5.396   0.180 -2.5007 -1.0518 -0.2382
 8633TIP3   OH247389   5.011   1.425   0.249  0.0237  0.1607  0.7870
 8633TIP3    H147390   4.941   1.428   0.313 -1.1160  2.8389 -0.4345
 8633TIP3    H247391   5.053   1.511   0.255  0.1760  0.3285 -1.6664
 8634TIP3   OH247392   1.262   1.556  12.057 -1.0590 -0.1274  0.1599
 8634TIP3    H147393   1.256   1.651  12.061 -2.2504 -0.1642 -0.1936
 8634TIP3    H247394   1.184   1.529  12.007  0.3334 -1.1550 -1.5892
 8635TIP3   OH247395   3.963   4.587  16.488  0.0078  0.3984  0.6567
 8635TIP3    H147396   3.992   4.499  16.461 -1.0715  0.0581  0.5220
 8635TIP3    H247397   3.907   4.571  16.564 -2.1299  0.6904 -0.7673
 8636TIP3   OH247398   1.453   6.581  15.286 -0.3595 -0.2883  0.0298
 8636TIP3    H147399   1.548   6.573  15.297 -0.0681  1.8390 -0.5091
 8636TIP3    H247400   1.437   6.547  15.198 -0.1262 -0.7371  0.1540
 8637TIP3   OH247401   4.648   3.455   0.740  0.4559 -0.7913  0.0734
 8637TIP3    H147402   4.627   3.482   0.651  0.7345 -0.4699  0.1001
 8637TIP3    H247403   4.573   3.482   0.792  0.6157 -0.3045  0.0554
 8638TIP3   OH247404   0.487   3.259   4.866  0.0966  0.3680 -0.6220
 8638TIP3    H147405   0.457   3.257   4.775 -0.9241  0.1478 -0.2898
 8638TIP3    H247406   0.422   3.208   4.914 -0.2843  1.8681  0.5146
 8639TIP3   OH247407   2.051   6.050  15.118 -0.2025  0.1704 -0.2058
 8639TIP3    H147408   2.002   6.005  15.187 -1.5937  1.3080 -0.4021
 8639TIP3    H247409   1.984   6.086  15.060  0.9131  0.4786 -1.3578
 8640TIP3   OH247410   6.012   4.446   6.115  0.5540 -0.1347 -0.3102
 8640TIP3    H147411   6.023   4.459   6.021 -0.6921 -1.0534 -0.6146
 8640TIP3    H247412   5.921   4.471   6.132 -0.3520 -3.2065 -0.0211
 8641TIP3   OH247413   1.140   4.214  11.623  0.5250  0.0920 -0.1708
 8641TIP3    H147414   1.198   4.153  11.578 -0.0780 -0.5771 -0.0469
 8641TIP3    H247415   1.054   4.172  11.620  0.5295 -0.1428  1.9498
 8642TIP3   OH247416   0.729   2.287   1.579  0.5926  0.0132 -0.0178
 8642TIP3    H147417   0.736   2.200   1.542  0.8224 -0.5187  1.2202
 8642TIP3    H247418   0.809   2.297   1.631  0.0839  0.5492  0.6833
 8643TIP3   OH247419   6.362   5.474   2.668 -0.6579 -0.2185 -0.2927
 8643TIP3    H147420   6.348   5.380   2.682 -0.0937 -0.1707  0.6514
 8643TIP3    H247421   6.456   5.482   2.653 -0.8179  0.1112 -1.1701
 8644TIP3   OH247422   3.634   0.438   4.135 -0.0899 -0.5046 -0.3182
 8644TIP3    H147423   3.717   0.477   4.110  0.1453 -0.8650 -0.1065
 8644TIP3    H247424   3.593   0.503   4.193  0.0603 -0.3478 -0.3877
 8645TIP3   OH247425   5.257   3.117   0.115  0.0646 -0.2410  0.1979
 8645TIP3    H147426   5.239   3.105   0.208  0.6719  0.8102  0.4677
 8645TIP3    H247427   5.306   3.039   0.090 -3.3664 -2.4708 -0.2154
 8646TIP3   OH247428   0.815   2.532   6.249 -0.5316 -0.5566  0.1429
 8646TIP3    H147429   0.797   2.620   6.281 -2.7674  0.3338 -3.0649
 8646TIP3    H247430   0.889   2.542   6.189 -0.7511 -0.8719 -0.1869
 8647TIP3   OH247431   1.574   4.517  17.062  0.4747 -0.0261  0.3148
 8647TIP3    H147432   1.529   4.523  17.147  1.0217 -0.9577  0.6924
 8647TIP3    H247433   1.513   4.557  17.000 -0.1277  0.2773  1.0804
 8648TIP3   OH247434   4.220   4.319  15.229 -0.0804 -0.8986 -0.3508
 8648TIP3    H147435   4.170   4.367  15.295  0.1636 -2.1662  0.8163
 8648TIP3    H247436   4.224   4.378  15.154 -3.2812 -0.7153 -0.5112
 8649TIP3   OH247437   6.482   6.104   3.458 -0.1203 -0.3331 -0.3460
 8649TIP3    H147438   6.460   6.021   3.416 -0.1764 -0.3640 -0.2570
 8649TIP3    H247439   6.471   6.169   3.389  1.8178 -0.6023 -0.9887
 8650TIP3   OH247440   1.361   4.101  11.053  0.5428 -0.0021 -0.3135
 8650TIP3    H147441   1.274   4.115  11.088  0.2033 -1.5186 -0.4692
 8650TIP3    H247442   1.386   4.185  11.015 -1.7954 -0.0791 -2.3157
 8651TIP3   OH247443   3.796   0.898   3.302  0.0661 -0.5666  0.0992
 8651TIP3    H147444   3.850   0.933   3.373  3.4026 -0.3928 -2.3142
 8651TIP3    H247445   3.795   0.803   3.317  1.9037 -0.6809 -0.2626
 8652TIP3   OH247446   6.166   2.862  13.291  0.0866 -0.1259  0.3075
 8652TIP3    H147447   6.181   2.771  13.314 -0.7404 -0.2456  0.3776
 8652TIP3    H247448   6.130   2.859  13.203 -5.0734 -0.3159  2.0947
 8653TIP3   OH247449   0.259   3.390  15.099  0.0546 -0.5021 -0.1021
 8653TIP3    H147450   0.276   3.433  15.183 -0.3366 -0.9506  0.2159
 8653TIP3    H247451   0.333   3.330  15.088  2.1554  2.2194 -1.9361
 8654TIP3   OH247452   5.228   5.824  14.495  0.1832  0.3881  0.3514
 8654TIP3    H147453   5.174   5.769  14.438  0.8335 -0.5399  0.5970
 8654TIP3    H247454   5.182   5.823  14.579 -0.6159  1.5086 -0.0573
 8655TIP3   OH247455   5.793   0.915  14.538  0.0467  0.1877 -0.0708
 8655TIP3    H147456   5.731   0.981  14.506  0.6677  1.2251  0.7865
 8655TIP3    H247457   5.798   0.851  14.467 -0.8962  0.8362 -0.7602
 8656TIP3   OH247458   1.562   5.007   5.806  0.1473  0.0573  0.5930
 8656TIP3    H147459   1.513   4.973   5.881 -0.6795 -0.0364  0.0235
 8656TIP3    H247460   1.502   5.068   5.763  0.1580 -0.7893 -0.6781
 8657TIP3   OH247461   1.673   1.099  12.105  0.4549  0.5981  0.7160
 8657TIP3    H147462   1.632   1.100  12.192  0.7530  1.1515  0.8548
 8657TIP3    H247463   1.740   1.167  12.110  1.9456 -0.8182  0.7565
 8658TIP3   OH247464   1.382   3.317  17.092 -0.6055 -0.4027  1.3518
 8658TIP3    H147465   1.349   3.229  17.110  0.0023 -1.3189 -1.5492
 8658TIP3    H247466   1.309   3.362  17.049  0.6038 -1.2895 -1.8857
 8659TIP3   OH247467   0.778   1.453   0.430 -0.5008 -0.1917  0.3112
 8659TIP3    H147468   0.796   1.416   0.516  0.3521  0.3540  0.3848
 8659TIP3    H247469   0.729   1.385   0.384 -1.1742 -0.4020  1.3000
 8660TIP3   OH247470   2.619   6.755  12.796  0.0670  0.1104  0.1421
 8660TIP3    H147471   2.631   6.810  12.718  0.0433 -2.1571 -1.5857
 8660TIP3    H247472   2.532   6.716  12.785  0.7653 -1.6216  0.3156
 8661TIP3   OH247473   5.787   1.890  14.549  0.0077  0.1529 -0.1993
 8661TIP3    H147474   5.801   1.951  14.476  0.1652  0.2206 -0.1130
 8661TIP3    H247475   5.851   1.917  14.615  1.7566 -1.6028 -1.0798
 8662TIP3   OH247476   1.459   5.854   4.300  0.0473 -0.0274 -0.0452
 8662TIP3    H147477   1.430   5.777   4.350  3.9860 -0.2437  2.4284
 8662TIP3    H247478   1.501   5.818   4.222 -0.5384 -0.1766 -0.2918
 8663TIP3   OH247479   3.031   4.288  11.523  0.4493 -0.0057 -0.6889
 8663TIP3    H147480   3.047   4.230  11.598  1.0010  0.4173 -0.4774
 8663TIP3    H247481   2.939   4.272  11.500 -0.0010  0.5049  0.6368
 8664TIP3   OH247482   0.983   6.287   3.589 -0.2226  0.0118 -1.1273
 8664TIP3    H147483   0.982   6.348   3.515 -0.5412 -0.3516 -1.4247
 8664TIP3    H247484   0.952   6.204   3.552  0.3735 -0.3788 -0.7643
 8665TIP3   OH247485   4.871   3.823  16.853 -0.6370  0.5415 -0.5383
 8665TIP3    H147486   4.881   3.854  16.763 -1.6144  1.4452 -0.3632
 8665TIP3    H247487   4.783   3.786  16.856  0.1570 -1.4631 -0.4778
 8666TIP3   OH247488   1.009   6.622   5.903  0.2420 -0.7798 -0.2061
 8666TIP3    H147489   1.000   6.707   5.859  1.3181 -0.1914  0.6731
 8666TIP3    H247490   1.032   6.561   5.832 -0.3163 -0.3017 -0.8087
 8667TIP3   OH247491   1.220   6.124   1.072 -0.0453  0.4042 -0.6451
 8667TIP3    H147492   1.217   6.044   1.020  2.3144 -0.6113  0.6275
 8667TIP3    H247493   1.289   6.177   1.032  0.8906  0.1820  0.5829
 8668TIP3   OH247494   4.071   4.270   5.238 -0.2332  0.5348  0.0754
 8668TIP3    H147495   4.053   4.361   5.260 -0.3606  0.3041  0.9756
 8668TIP3    H247496   4.063   4.223   5.321 -1.4909 -0.5079 -0.5919
 8669TIP3   OH247497   5.693   4.548  17.051 -0.1647  0.0494  0.1342
 8669TIP3    H147498   5.756   4.607  17.009 -1.8680  1.2786 -0.8294
 8669TIP3    H247499   5.695   4.468  16.998  0.1566  0.3001 -0.2359
 8670TIP3   OH247500   6.247   3.159  14.234  0.2080  0.1318  0.4825
 8670TIP3    H147501   6.252   3.142  14.328 -0.5787 -1.8332  0.2156
 8670TIP3    H247502   6.181   3.098  14.202 -0.2112  1.4075 -1.2213
 8671TIP3   OH247503   1.132   0.546   0.543  0.4170 -0.1004  0.3950
 8671TIP3    H147504   1.174   0.575   0.461  0.2564 -1.1953 -0.0971
 8671TIP3    H247505   1.064   0.611   0.559 -1.1362 -1.0840 -1.6520
 8672TIP3   OH247506   1.987   0.834   0.396 -0.0954  0.8478  0.3506
 8672TIP3    H147507   2.020   0.842   0.307  0.5473  2.5273  0.7028
 8672TIP3    H247508   1.983   0.924   0.429 -0.7671  0.3086  1.8645
 8673TIP3   OH247509   0.568   4.019   3.250 -0.4708  0.0762  0.2000
 8673TIP3    H147510   0.517   4.086   3.204  1.4320  1.0679 -0.5784
 8673TIP3    H247511   0.602   3.963   3.182 -1.6062 -1.4258  0.8188
 8674TIP3   OH247512   5.004   0.571   6.568 -0.2881 -0.0030  0.7455
 8674TIP3    H147513   5.026   0.508   6.637  1.5234  1.4245  1.5843
 8674TIP3    H247514   5.089   0.605   6.539 -1.1659  2.9837  1.2977
 8675TIP3   OH247515   6.035   3.069  15.565 -0.1332 -0.3462  0.0671
 8675TIP3    H147516   6.059   3.160  15.544  1.2388 -0.9088 -0.9354
 8675TIP3    H247517   6.072   3.017  15.494 -1.9563 -1.6048 -0.0330
 8676TIP3   OH247518   4.761   5.182   4.859  0.1015  0.1405  0.1598
 8676TIP3    H147519   4.701   5.248   4.893  0.6386  0.1484  1.1223
 8676TIP3    H247520   4.712   5.140   4.787 -0.2553  1.5349 -0.4485
 8677TIP3   OH247521   4.034   1.296   3.826 -0.3922  0.0997 -0.0123
 8677TIP3    H147522   4.070   1.368   3.774  0.2019 -0.1129  0.0957
 8677TIP3    H247523   4.012   1.336   3.910  1.2809 -0.1029  0.5729
 8678TIP3   OH247524   0.115   3.261   1.157  0.0382 -0.0303  0.0565
 8678TIP3    H147525   0.130   3.170   1.132  0.1034 -0.0367  0.1183
 8678TIP3    H247526   0.076   3.301   1.079  1.8955  0.3901 -0.6989
 8679TIP3   OH247527   1.326   4.050  16.125 -0.2258 -0.3705 -0.3257
 8679TIP3    H147528   1.378   3.970  16.118 -0.1595 -0.4034  0.5311
 8679TIP3    H247529   1.235   4.021  16.112 -0.0860 -0.3656 -1.4464
 8680TIP3   OH247530   3.181   4.411  12.555 -0.0887  0.4208 -0.1250
 8680TIP3    H147531   3.261   4.378  12.516 -0.6469 -2.1044  0.6830
 8680TIP3    H247532   3.175   4.367  12.639 -1.5104  1.8166  0.5595
 8681TIP3   OH247533   0.342   1.516   0.619  0.0689  0.7588  0.1551
 8681TIP3    H147534   0.408   1.455   0.652 -0.5847 -0.5393 -0.8642
 8681TIP3    H247535   0.346   1.507   0.524 -1.6528  0.5636  0.0712
 8682TIP3   OH247536   6.475   2.067  16.426  0.5181 -0.0120  0.5472
 8682TIP3    H147537   6.532   2.134  16.389  1.4497 -2.5302 -3.1915
 8682TIP3    H247538   6.387   2.098  16.409  0.9361  0.1090 -1.6875
 8683TIP3   OH247539   5.841   0.523  11.668  0.1571 -0.4025 -0.0934
 8683TIP3    H147540   5.831   0.618  11.659  0.5755 -0.1697  1.5884
 8683TIP3    H247541   5.883   0.495  11.587 -0.8474  0.7010 -1.0256
 8684TIP3   OH247542   4.268   4.028   4.587  0.4844 -0.6619  0.2422
 8684TIP3    H147543   4.206   4.069   4.648  0.9071  0.1800  0.1254
 8684TIP3    H247544   4.246   3.935   4.589 -1.0467 -0.3336 -0.1019
 8685TIP3   OH247545   4.089   5.830   4.396  0.0245 -0.7065 -0.8614
 8685TIP3    H147546   4.157   5.896   4.382  0.4171 -1.1242 -0.9558
 8685TIP3    H247547   4.120   5.779   4.471 -1.4305  0.6950  0.7692
 8686TIP3   OH247548   2.277   6.630   2.179 -0.2169  0.0941 -0.3757
 8686TIP3    H147549   2.267   6.580   2.260 -0.7302  0.4383 -0.2199
 8686TIP3    H247550   2.367   6.613   2.151 -0.1673 -0.3563  0.0454
 8687TIP3   OH247551   2.383   0.383   1.748 -0.1263 -0.5057  0.1309
 8687TIP3    H147552   2.448   0.368   1.817 -1.9319  1.8241  2.5479
 8687TIP3    H247553   2.362   0.476   1.755 -1.3610 -0.4671 -2.7960
 8688TIP3   OH247554   2.503   2.844  16.579  0.0092  0.2589 -0.1269
 8688TIP3    H147555   2.457   2.901  16.517 -0.3854  0.1216  0.0397
 8688TIP3    H247556   2.505   2.758  16.536  0.4007  0.3380 -0.2739
 8689TIP3   OH247557   2.729   0.516   2.589 -0.3940 -0.1637  0.6325
 8689TIP3    H147558   2.678   0.525   2.508  0.1855 -0.4203  0.2387
 8689TIP3    H247559   2.819   0.507   2.560  0.0706  1.7107  1.3693
 8690TIP3   OH247560   6.686   3.240   1.401  0.7137  0.2885  0.1546
 8690TIP3    H147561   6.735   3.158   1.414  3.1014  1.2957 -1.7362
 8690TIP3    H247562   6.753   3.306   1.387 -1.1964  2.2260 -0.3343
 8691TIP3   OH247563   2.974   6.012   5.583  0.6238 -0.0476  0.2581
 8691TIP3    H147564   2.878   6.009   5.580  0.6541 -2.6237 -1.3844
 8691TIP3    H247565   2.994   6.062   5.662 -2.0765 -0.4781  1.3225
 8692TIP3   OH247566   0.185   3.531   1.716  0.3979 -0.1958  0.2881
 8692TIP3    H147567   0.175   3.541   1.621  0.9050  1.3401  0.3698
 8692TIP3    H247568   0.264   3.478   1.727  0.7864  0.2927 -0.1420
 8693TIP3   OH247569   0.072   0.548  15.949  0.0599  0.2825 -0.6392
 8693TIP3    H147570   0.122   0.629  15.943 -0.8306  0.9332  0.2411
 8693TIP3    H247571   0.136   0.482  15.974  0.8523  0.6361 -1.6372
 8694TIP3   OH247572   2.808   5.039   4.816  0.7056 -0.5799 -0.1342
 8694TIP3    H147573   2.831   5.073   4.730  1.3521  1.0660  0.6326
 8694TIP3    H247574   2.716   5.015   4.809  1.0320 -1.5171 -1.5637
 8695TIP3   OH247575   0.830   5.478  14.960 -0.0993  0.4087 -0.2287
 8695TIP3    H147576   0.853   5.489  14.868 -0.9078  0.3790 -0.4420
 8695TIP3    H247577   0.787   5.559  14.985 -0.7037  0.0655 -0.1341
 8696TIP3   OH247578   4.153   6.102   5.616  0.5072 -0.4656 -0.2842
 8696TIP3    H147579   4.166   6.073   5.526  0.0521 -0.0526 -0.4930
 8696TIP3    H247580   4.240   6.103   5.655  0.6526 -1.0615 -0.5898
 8697TIP3   OH247581   3.140   6.475   5.633  0.0231 -0.1177  0.2760
 8697TIP3    H147582   3.101   6.557   5.604 -0.0992 -0.5755 -0.8779
 8697TIP3    H247583   3.180   6.496   5.718  0.7419  1.3510 -0.4022
 8698TIP3   OH247584   2.146   1.931  12.131 -0.1780  0.2197  0.0549
 8698TIP3    H147585   2.158   1.837  12.117  1.2016  0.3183  0.4629
 8698TIP3    H247586   2.128   1.939  12.224 -3.8100  0.0918 -0.4652
 8699TIP3   OH247587   4.885   0.839  12.459 -0.1662  0.4378  0.3768
 8699TIP3    H147588   4.857   0.887  12.538 -1.5444  1.8887 -0.9275
 8699TIP3    H247589   4.833   0.759  12.461 -0.7974  0.8438  0.5305
 8700TIP3   OH247590   2.896   2.998  16.442  0.1544  0.7507 -0.0113
 8700TIP3    H147591   2.822   3.035  16.395 -0.1837 -1.2679 -1.1810
 8700TIP3    H247592   2.949   2.955  16.374 -0.1089 -1.8811  1.3046
 8701TIP3   OH247593   0.575   4.140   5.230 -0.1124 -0.1951 -0.0428
 8701TIP3    H147594   0.595   4.081   5.303  1.7640  0.0039 -0.3288
 8701TIP3    H247595   0.528   4.213   5.271  0.7944 -0.1421  0.9676
 8702TIP3   OH247596   5.334   1.044   3.795  0.3308 -0.6490  0.2333
 8702TIP3    H147597   5.353   1.042   3.889  0.2854  1.4662  0.3391
 8702TIP3    H247598   5.298   1.131   3.780  0.6840 -0.8077 -1.8146
 8703TIP3   OH247599   2.173   3.122  14.513  0.2729 -0.3987 -0.3429
 8703TIP3    H147600   2.192   3.211  14.545  1.3067 -0.6228 -0.2871
 8703TIP3    H247601   2.239   3.067  14.556  0.5589 -0.9754 -1.4702
 8704TIP3   OH247602   6.053   3.893   2.194  0.1527 -0.6190 -0.5150
 8704TIP3    H147603   6.100   3.942   2.262  1.2603 -0.2220 -1.5237
 8704TIP3    H247604   6.121   3.872   2.129 -0.3660 -3.0868 -0.3649
 8705TIP3   OH247605   1.790   1.790   4.926 -0.2264 -0.4151  0.4033
 8705TIP3    H147606   1.786   1.884   4.946 -0.6767 -0.6797  1.5803
 8705TIP3    H247607   1.702   1.768   4.897  0.1551 -0.2611 -0.9699
 8706TIP3   OH247608   4.356   5.630   3.686  0.9578  0.2623  0.1283
 8706TIP3    H147609   4.410   5.555   3.710 -1.4127 -1.1480  1.3182
 8706TIP3    H247610   4.276   5.592   3.649  0.4104  2.2552 -0.9033
 8707TIP3   OH247611   6.203   6.710   5.693 -0.3820  0.2224  1.1195
 8707TIP3    H147612   6.192   6.805   5.689  0.1995  0.3189  1.6747
 8707TIP3    H247613   6.254   6.695   5.773 -0.7313 -0.5796  1.2013
 8708TIP3   OH247614   0.899   2.300  13.974 -0.0323  0.9000  0.3885
 8708TIP3    H147615   0.919   2.261  14.059  0.4580 -1.4310 -0.7272
 8708TIP3    H247616   0.890   2.394  13.992  0.3534  0.5092  2.9346
 8709TIP3   OH247617   3.625   2.628   4.866 -0.4262  0.2330  0.3179
 8709TIP3    H147618   3.661   2.675   4.941 -0.9903  1.5219 -0.1846
 8709TIP3    H247619   3.616   2.538   4.896  0.3100  0.5113  1.4534
 8710TIP3   OH247620   2.739   3.250  14.906  0.9372 -0.2076  0.2947
 8710TIP3    H147621   2.687   3.329  14.921  2.3589  0.9117 -0.4096
 8710TIP3    H247622   2.681   3.178  14.930 -0.2259  1.0605  1.4706
 8711TIP3   OH247623   6.478   3.328   3.359 -0.0473  0.5545 -0.5816
 8711TIP3    H147624   6.530   3.398   3.400 -1.3567  0.6753  0.9913
 8711TIP3    H247625   6.541   3.260   3.338  0.9384  1.2683 -0.0130
 8712TIP3   OH247626   0.942   2.926  15.075 -0.3391 -0.7164 -0.5968
 8712TIP3    H147627   0.945   3.013  15.036  1.1962 -0.3469  0.2785
 8712TIP3    H247628   0.890   2.874  15.014  0.7341  0.2055 -2.3766
 8713TIP3   OH247629   3.552   0.500   0.141 -0.2173 -0.0092  0.4723
 8713TIP3    H147630   3.550   0.410   0.107  2.6526  0.3829 -1.0239
 8713TIP3    H247631   3.481   0.545   0.095 -0.6556 -1.1205  0.0313
 8714TIP3   OH247632   5.598   5.586  15.976 -0.1921  0.0088  0.1981
 8714TIP3    H147633   5.598   5.682  15.980 -2.9722  0.0883  0.1712
 8714TIP3    H247634   5.644   5.559  16.056 -0.7460  1.4031  1.0357
 8715TIP3   OH247635   6.613   5.329  13.644  0.0140 -0.0788 -0.5614
 8715TIP3    H147636   6.680   5.303  13.581  0.1253 -0.7932 -0.1683
 8715TIP3    H247637   6.661   5.346  13.725 -0.1941  0.1622 -0.4881
 8716TIP3   OH247638   1.098   6.674   3.862 -0.4486  0.5276 -0.2753
 8716TIP3    H147639   1.026   6.703   3.807  0.2466 -1.0646 -2.1498
 8716TIP3    H247640   1.149   6.753   3.878 -1.8833  1.4300 -0.0043
 8717TIP3   OH247641   5.361   6.311   0.412 -0.0881  0.2467 -0.1087
 8717TIP3    H147642   5.452   6.312   0.441  0.2408 -2.1516 -0.8619
 8717TIP3    H247643   5.364   6.266   0.327 -2.0268 -0.3048  0.0826
 8718TIP3   OH247644   3.481   4.174  16.297 -0.0443 -0.0892 -0.5628
 8718TIP3    H147645   3.448   4.262  16.278 -0.1008 -0.3386 -1.6395
 8718TIP3    H247646   3.560   4.166  16.245  0.0746 -0.6076 -0.3085
 8719TIP3   OH247647   6.285   0.123  14.263 -0.6267 -0.1992 -0.0508
 8719TIP3    H147648   6.375   0.155  14.261 -0.5474 -0.2777  1.2619
 8719TIP3    H247649   6.291   0.035  14.300 -1.2983  0.0733  0.7408
 8720TIP3   OH247650   2.803   2.157  12.085 -0.1149  0.1670  0.0976
 8720TIP3    H147651   2.728   2.146  12.026  0.1286 -0.1849 -0.1502
 8720TIP3    H247652   2.861   2.084  12.064 -0.9742 -1.2115  2.2186
 8721TIP3   OH247653   1.600   5.717  12.896 -0.5369  0.2642  0.0202
 8721TIP3    H147654   1.512   5.718  12.933 -0.8078  1.6172 -0.6263
 8721TIP3    H247655   1.653   5.766  12.959  0.0643 -1.6245  1.0622
 8722TIP3   OH247656   6.073   5.221  11.798  0.1716 -0.1864  0.0722
 8722TIP3    H147657   6.119   5.194  11.877 -0.2437 -2.2413 -0.3409
 8722TIP3    H247658   6.070   5.317  11.804  2.8033 -0.0746  1.0321
 8723TIP3   OH247659   6.279   1.582  12.252  0.6613  0.5400  0.2283
 8723TIP3    H147660   6.187   1.603  12.233  0.6445  0.4281  0.1907
 8723TIP3    H247661   6.300   1.637  12.328  0.5195  0.4600  0.3270
 8724TIP3   OH247662   1.324   2.658   3.385  0.2001 -0.3835 -0.1642
 8724TIP3    H147663   1.306   2.565   3.391  1.3735 -0.5829  0.6556
 8724TIP3    H247664   1.265   2.690   3.317 -2.7071 -1.0535  1.8450
 8725TIP3   OH247665   6.432   1.857   1.935 -0.6083 -0.2716  0.3152
 8725TIP3    H147666   6.399   1.781   1.887 -0.8061 -0.3539  0.5779
 8725TIP3    H247667   6.361   1.880   1.994  0.7548 -2.1256  2.8626
 8726TIP3   OH247668   1.995   5.996   2.006 -0.5275 -0.1435  0.0495
 8726TIP3    H147669   2.032   6.021   2.090 -1.7896 -1.5593  1.0904
 8726TIP3    H247670   2.054   5.929   1.972 -0.2314  0.1451 -0.0094
 8727TIP3   OH247671   6.662   0.055   0.546 -0.6853  0.6240  0.5353
 8727TIP3    H147672   6.692  -0.030   0.580 -1.2523  0.0696 -0.2886
 8727TIP3    H247673   6.583   0.075   0.596 -0.2904  0.9011  1.0533
 8728TIP3   OH247674   5.905   0.714  15.800  0.6407  0.7204 -0.2843
 8728TIP3    H147675   5.942   0.674  15.879  0.2602 -0.7423 -0.8244
 8728TIP3    H247676   5.812   0.693  15.804  0.7031  0.1893 -1.3816
 8729TIP3   OH247677   3.014   0.577  11.386 -0.0306 -0.3409 -0.2054
 8729TIP3    H147678   3.080   0.535  11.332  0.5906 -0.2309  0.4536
 8729TIP3    H247679   3.019   0.670  11.362  0.1037 -0.3222 -0.1060
 8730TIP3   OH247680   6.683   4.477  16.534 -1.1884  0.2951  0.2877
 8730TIP3    H147681   6.692   4.445  16.445 -2.2286  1.1647 -0.1467
 8730TIP3    H247682   6.771   4.503  16.560 -0.3318 -2.4989  0.5418
 8731TIP3   OH247683   1.843   6.062  14.417 -0.0331  0.2567 -0.5502
 8731TIP3    H147684   1.781   5.997  14.383 -1.2407  1.6490 -1.1025
 8731TIP3    H247685   1.789   6.136  14.444  1.0909  0.1793  2.2522
 8732TIP3   OH247686   4.036   3.953  11.747  0.3718 -0.2703 -0.6406
 8732TIP3    H147687   4.017   3.937  11.839 -0.2795 -2.2722 -1.0619
 8732TIP3    H247688   4.047   4.047  11.740 -1.3833  0.1186  1.1448
 8733TIP3   OH247689   3.917   5.744  11.288 -0.3029 -0.5352  0.5604
 8733TIP3    H147690   4.010   5.751  11.311 -0.7184 -1.5043  2.8391
 8733TIP3    H247691   3.895   5.830  11.254  1.6115 -0.5464 -0.8895
 8734TIP3   OH247692   6.576   1.690   3.833 -0.2907  0.4184  0.3624
 8734TIP3    H147693   6.630   1.692   3.912  1.3656  1.3236 -0.7225
 8734TIP3    H247694   6.588   1.602   3.797  1.1487  0.8479 -0.2781
 8735TIP3   OH247695   0.774   3.896   1.143 -0.2564  0.0966  0.0798
 8735TIP3    H147696   0.833   3.956   1.097  0.7348 -0.4693  0.5904
 8735TIP3    H247697   0.720   3.859   1.073 -1.3109  1.9828 -0.1948
 8736TIP3   OH247698   6.794   0.131  14.114  0.7345  0.1338  0.9282
 8736TIP3    H147699   6.797   0.211  14.167  0.5644  0.0246  1.1005
 8736TIP3    H247700   6.800   0.163  14.024 -1.5212  0.5394  0.8443
 8737TIP3   OH247701   3.611   1.194  11.924  0.4413  0.0576 -0.1421
 8737TIP3    H147702   3.519   1.187  11.899  0.2739  1.4575 -0.0010
 8737TIP3    H247703   3.609   1.206  12.019  0.7683 -0.0043 -0.1276
 8738TIP3   OH247704   6.033   5.342   1.314 -0.1897  0.2162  0.1239
 8738TIP3    H147705   6.033   5.257   1.359  0.6095  0.1733  0.0413
 8738TIP3    H247706   6.106   5.338   1.253 -0.7279  0.6132 -0.5691
 8739TIP3   OH247707   2.619   4.266   1.632 -0.4258  0.2590  0.0448
 8739TIP3    H147708   2.567   4.235   1.707 -0.2265  1.0692  0.5318
 8739TIP3    H247709   2.590   4.212   1.559 -0.9616 -0.2356  0.6072
 8740TIP3   OH247710   3.045   4.758  14.192  0.1504  0.0680  0.4948
 8740TIP3    H147711   3.102   4.688  14.160 -0.2768  0.3530 -0.9402
 8740TIP3    H247712   2.964   4.713  14.216 -0.9228  0.2193 -2.4040
 8741TIP3   OH247713   2.184   3.624   5.823  0.1623  0.2597 -0.4252
 8741TIP3    H147714   2.145   3.676   5.893 -0.2647  0.0554 -0.5126
 8741TIP3    H247715   2.203   3.688   5.754  1.2982  0.5863  0.1737
 8742TIP3   OH247716   6.365   1.150   4.668 -0.1126 -0.3461 -0.0575
 8742TIP3    H147717   6.339   1.201   4.592  1.0785  0.5639  0.1126
 8742TIP3    H247718   6.460   1.162   4.674 -0.4192  1.7868  3.0499
 8743TIP3   OH247719   1.175   0.019   2.826 -0.0685  0.3330  0.5883
 8743TIP3    H147720   1.165   0.097   2.772  2.2680  0.0772 -0.3617
 8743TIP3    H247721   1.112  -0.043   2.790 -0.4752  1.0813 -0.0305
 8744TIP3   OH247722   4.964   6.138  11.937  0.1219  0.1673 -0.6415
 8744TIP3    H147723   4.907   6.215  11.941 -1.0754 -0.7540  0.3514
 8744TIP3    H247724   5.043   6.170  11.892 -0.6596  1.7695 -0.9479
 8745TIP3   OH247725   5.296   2.503   0.331 -0.0815 -0.3753  0.3941
 8745TIP3    H147726   5.260   2.567   0.269 -1.8181 -0.4455  1.2616
 8745TIP3    H247727   5.220   2.451   0.357  0.9588 -1.5187  1.1982
 8746TIP3   OH247728   2.930   0.066  15.124 -0.3004 -0.4077  0.6555
 8746TIP3    H147729   2.864   0.123  15.161  0.2802  0.5967  0.1853
 8746TIP3    H247730   2.943   0.099  15.035  0.5591 -0.8183  0.6209
 8747TIP3   OH247731   4.166   5.973   0.515  0.2777  0.1903  0.1258
 8747TIP3    H147732   4.143   5.897   0.461 -0.4102 -0.2412  0.9885
 8747TIP3    H247733   4.105   6.041   0.487  1.1987  0.6039 -0.9756
 8748TIP3   OH247734   1.835   0.168   3.515  0.1952 -0.0200 -0.0246
 8748TIP3    H147735   1.912   0.118   3.543 -0.1136  0.2135  1.3208
 8748TIP3    H247736   1.830   0.241   3.577 -1.1283 -0.0445 -0.0857
 8749TIP3   OH247737   4.054   3.107   0.542 -0.5666  0.6613  0.1534
 8749TIP3    H147738   3.994   3.035   0.560 -1.1802  0.9356 -0.7611
 8749TIP3    H247739   4.141   3.071   0.562 -0.7692 -0.6476 -1.1779
 8750TIP3   OH247740   2.202   6.018  16.447  0.0782  0.1049 -0.5707
 8750TIP3    H147741   2.249   5.938  16.472 -1.8966 -0.6938  0.8412
 8750TIP3    H247742   2.137   5.989  16.383  0.5759  0.9560 -1.4885
 8751TIP3   OH247743   4.064   4.121  14.310 -0.1447  0.1185 -0.1765
 8751TIP3    H147744   4.083   4.196  14.365 -0.2138 -0.8352  1.1950
 8751TIP3    H247745   4.140   4.113  14.252  0.6214  0.2726  0.7840
 8752TIP3   OH247746   5.580   6.544   1.025  0.3997  0.0149 -0.2615
 8752TIP3    H147747   5.511   6.480   1.045 -0.5711  0.6192 -1.5425
 8752TIP3    H247748   5.559   6.620   1.080  1.1815 -0.4943  0.7780
 8753TIP3   OH247749   1.538   0.705  11.910 -0.1947 -0.0806 -0.5696
 8753TIP3    H147750   1.496   0.719  11.995  0.0269 -1.4826 -0.2064
 8753TIP3    H247751   1.632   0.705  11.929 -0.1206  0.1745 -0.9166
 8754TIP3   OH247752   4.720   2.919  14.766 -0.1323  0.6806 -0.5151
 8754TIP3    H147753   4.698   2.830  14.796 -1.2085  1.5716  1.5091
 8754TIP3    H247754   4.641   2.950  14.723  0.0393  0.8685 -0.6943
 8755TIP3   OH247755   5.684   6.738  15.802  0.0200 -0.4516 -0.0634
 8755TIP3    H147756   5.595   6.719  15.773  0.2812 -1.3307 -0.3115
 8755TIP3    H247757   5.736   6.740  15.721 -0.3850  4.0365 -0.4660
 8756TIP3   OH247758   1.202   4.300   2.353 -0.2702 -0.1803  0.1201
 8756TIP3    H147759   1.223   4.333   2.441 -0.1362  1.2875 -0.4269
 8756TIP3    H247760   1.280   4.320   2.301  0.4159 -2.7506  0.0541
 8757TIP3   OH247761   4.479   1.603   2.804 -0.2459  0.0981 -0.6938
 8757TIP3    H147762   4.454   1.687   2.842  1.3499 -0.5147  1.9128
 8757TIP3    H247763   4.409   1.583   2.742 -1.1195  2.8915 -0.7256
 8758TIP3   OH247764   0.494   0.833  11.110  0.0256 -0.3935 -0.3894
 8758TIP3    H147765   0.532   0.750  11.139  1.3751  0.2627 -0.1862
 8758TIP3    H247766   0.441   0.810  11.034 -0.1181 -1.5200  0.0282
 8759TIP3   OH247767   0.614   6.623  13.548  0.0709  0.1246 -0.2563
 8759TIP3    H147768   0.577   6.668  13.472  1.3946  0.4218 -0.7516
 8759TIP3    H247769   0.629   6.693  13.612  0.5264  0.1400 -0.3743
 8760TIP3   OH247770   6.817   6.178  12.614  0.0512 -0.8706 -0.2945
 8760TIP3    H147771   6.782   6.173  12.525 -0.7921 -1.7234  0.0600
 8760TIP3    H247772   6.751   6.228  12.662 -0.8856 -2.7082  0.4424
 8761TIP3   OH247773   4.159   6.763   4.578  0.3546 -0.0358 -0.4810
 8761TIP3    H147774   4.109   6.835   4.616  0.3769  0.8300 -1.9889
 8761TIP3    H247775   4.225   6.742   4.644 -1.5897 -0.8451  1.3217
 8762TIP3   OH247776   1.628   5.023  15.345  0.6580  0.3622  0.6409
 8762TIP3    H147777   1.641   4.936  15.381 -2.3758  0.3046  1.9045
 8762TIP3    H247778   1.592   5.074  15.418 -0.4008  1.8199 -0.8203
 8763TIP3   OH247779   1.636   1.944   2.045 -0.0565  0.1514  0.2105
 8763TIP3    H147780   1.605   1.877   1.984  0.3913 -0.6668  0.8512
 8763TIP3    H247781   1.678   2.010   1.990  1.0131 -0.9382 -0.3294
 8764TIP3   OH247782   1.201   0.519  14.526 -0.4517 -0.0540 -0.5609
 8764TIP3    H147783   1.134   0.539  14.460 -2.7515 -0.0547  1.6017
 8764TIP3    H247784   1.247   0.443  14.492 -0.3489  0.9866 -2.9214
 8765TIP3   OH247785   0.438   5.848  11.130  0.1144 -0.5346 -0.2642
 8765TIP3    H147786   0.501   5.914  11.160 -0.5817 -0.2275  0.5665
 8765TIP3    H247787   0.483   5.765  11.141  0.7618 -0.2533 -0.7016
 8766TIP3   OH247788   2.741   5.808  14.423  0.5783  0.5664  0.9219
 8766TIP3    H147789   2.690   5.821  14.503 -1.2120  1.3631 -0.2861
 8766TIP3    H247790   2.764   5.897  14.395 -2.1792  0.6396 -1.4796
 8767TIP3   OH247791   1.723   1.869  13.886 -0.1219  0.8817  0.9908
 8767TIP3    H147792   1.636   1.892  13.855 -0.3831  1.2900  1.9897
 8767TIP3    H247793   1.779   1.940  13.856 -0.4992  1.6333  2.0177
 8768TIP3   OH247794   5.592   0.514   3.877  0.2370 -0.6521 -0.3486
 8768TIP3    H147795   5.516   0.485   3.826 -1.1759  2.7486 -0.4532
 8768TIP3    H247796   5.590   0.461   3.956 -0.8927 -2.1551 -1.3212
 8769TIP3   OH247797   6.053   5.897   2.368  0.5624 -0.8502  0.2215
 8769TIP3    H147798   6.098   5.835   2.310 -1.3636 -3.3480  1.2308
 8769TIP3    H247799   6.102   5.894   2.450  1.1579 -0.0707 -0.0880
 8770TIP3   OH247800   0.014   0.247   1.163 -0.0005  0.4942  0.3263
 8770TIP3    H147801  -0.050   0.315   1.141 -3.4842 -3.0790 -1.9760
 8770TIP3    H247802  -0.021   0.207   1.243  1.7555  1.0594  1.4187
 8771TIP3   OH247803   6.416   3.087  15.887 -0.0454  0.1683  0.3617
 8771TIP3    H147804   6.334   3.130  15.911 -0.4561 -0.0205 -0.6602
 8771TIP3    H247805   6.478   3.115  15.954 -1.1782 -0.5025  1.7357
 8772TIP3   OH247806   1.239   2.220   0.338 -0.4203 -0.1446  0.3780
 8772TIP3    H147807   1.268   2.286   0.276 -0.0268 -0.2259  0.4732
 8772TIP3    H247808   1.266   2.253   0.424  1.0412 -1.0689  0.3117
 8773TIP3   OH247809   5.452   4.712   5.692  0.5342 -0.3107 -0.1823
 8773TIP3    H147810   5.459   4.708   5.597  0.8815  0.4881 -0.1961
 8773TIP3    H247811   5.386   4.647   5.714  0.5015 -0.5457 -0.9657
 8774TIP3   OH247812   5.880   3.819  16.405  0.2448 -0.8530 -0.0137
 8774TIP3    H147813   5.829   3.739  16.422 -0.0294 -0.7307 -0.2611
 8774TIP3    H247814   5.821   3.874  16.353  0.6086 -0.6896 -0.2542
 8775TIP3   OH247815   4.167   2.938  14.966 -0.5806  0.1039 -0.5483
 8775TIP3    H147816   4.131   2.903  14.884 -1.9207  0.6386 -0.2050
 8775TIP3    H247817   4.183   3.030  14.948 -1.3634  0.3416 -0.0636
 8776TIP3   OH247818   3.057   3.889  14.202  0.2298 -0.1379 -0.5073
 8776TIP3    H147819   3.014   3.974  14.212 -0.0542 -0.4858  1.7523
 8776TIP3    H247820   2.987   3.826  14.213  0.6729 -0.6847 -0.7861
 8777TIP3   OH247821   5.126   1.536   1.024  0.4001 -0.0001 -0.2313
 8777TIP3    H147822   5.074   1.509   0.948  0.1641 -1.3184  0.3739
 8777TIP3    H247823   5.090   1.484   1.096  2.1653 -0.5041  0.3182
 8778TIP3   OH247824   5.585   1.926  12.938  0.5984  0.6620  0.2536
 8778TIP3    H147825   5.630   1.842  12.941  0.1082  0.4168  1.9169
 8778TIP3    H247826   5.571   1.943  12.845 -0.3148 -1.6759 -0.1137
 8779TIP3   OH247827   6.456   3.297   1.549 -0.5079  0.4254  0.6714
 8779TIP3    H147828   6.546   3.281   1.520 -0.5949 -1.3425  1.2694
 8779TIP3    H247829   6.465   3.341   1.633 -0.2592  2.7925 -0.4970
 8780TIP3   OH247830   1.934   0.225  15.654 -0.1053  0.3465 -0.2893
 8780TIP3    H147831   1.895   0.311  15.639 -0.8941  0.0342 -0.0883
 8780TIP3    H247832   1.989   0.237  15.732 -2.8704 -0.0965  1.8781
 8781TIP3   OH247833   4.373   2.525   3.007 -0.2521  0.4695 -0.3752
 8781TIP3    H147834   4.360   2.532   3.101 -0.4826 -0.7827 -0.3029
 8781TIP3    H247835   4.431   2.598   2.986  1.0050 -0.0843  0.9790
 8782TIP3   OH247836   1.638   6.072   1.834  0.2513  0.3269 -0.3489
 8782TIP3    H147837   1.592   6.156   1.829  0.3492  0.5739  1.9418
 8782TIP3    H247838   1.572   6.009   1.864 -0.0246 -0.6532 -2.8066
 8783TIP3   OH247839   5.791   4.723   4.532  0.2422  0.3052 -0.0141
 8783TIP3    H147840   5.825   4.801   4.575 -0.6630  0.1534  1.0370
 8783TIP3    H247841   5.707   4.706   4.576  0.9535 -1.9217  0.6030
 8784TIP3   OH247842   1.449   6.771  12.876 -0.2767 -0.0549 -0.0481
 8784TIP3    H147843   1.462   6.676  12.872  2.8121  0.3025 -2.1121
 8784TIP3    H247844   1.428   6.796  12.786 -0.8068  1.2526  0.4190
 8785TIP3   OH247845   3.294   2.733   5.669 -0.2311  0.2846 -0.3524
 8785TIP3    H147846   3.262   2.644   5.678 -2.2684  0.9114 -0.9095
 8785TIP3    H247847   3.220   2.788   5.695  0.7789  1.8239 -0.6082
 8786TIP3   OH247848   2.351   6.437  11.988 -0.0910  0.0761 -0.2541
 8786TIP3    H147849   2.258   6.443  11.967  0.0404 -0.0016 -0.8739
 8786TIP3    H247850   2.373   6.522  12.026 -0.2600  0.3423 -0.7486
 8787TIP3   OH247851   5.850   2.982   3.168 -0.0848  0.8201  0.0043
 8787TIP3    H147852   5.802   2.947   3.093  0.9468 -0.2889 -0.1651
 8787TIP3    H247853   5.931   3.015   3.130  0.4517  0.2323  0.6274
 8788TIP3   OH247854   3.659   4.774  14.844 -0.4063 -0.5641  0.3000
 8788TIP3    H147855   3.750   4.748  14.854 -0.3723 -0.7003 -0.3028
 8788TIP3    H247856   3.646   4.844  14.908  0.3651  0.0503 -0.2024
 8789TIP3   OH247857   1.423   3.255  16.130  0.3632 -0.3473  0.3625
 8789TIP3    H147858   1.487   3.307  16.179  0.9595 -0.1995 -0.5635
 8789TIP3    H247859   1.381   3.318  16.071 -1.3178 -0.2437  1.5861
 8790TIP3   OH247860   1.514   4.917   2.346 -0.0449  0.0535  0.0366
 8790TIP3    H147861   1.457   4.843   2.326  0.9983 -0.4999 -1.0466
 8790TIP3    H247862   1.588   4.908   2.285 -0.7599  2.9909 -1.4775
 8791TIP3   OH247863   4.086   4.215  16.406 -0.4692 -0.0219  0.2616
 8791TIP3    H147864   4.059   4.250  16.491 -0.9974  1.6952 -0.5764
 8791TIP3    H247865   4.076   4.120  16.415 -1.0416  0.1667  1.9241
 8792TIP3   OH247866   4.453   5.634  14.758 -0.1315  0.6948 -0.3456
 8792TIP3    H147867   4.417   5.549  14.733  0.5810  0.2052  0.2750
 8792TIP3    H247868   4.469   5.627  14.852  0.5052  1.3045 -0.4016
 8793TIP3   OH247869   2.876   1.606   5.818 -0.4533 -0.1686 -0.4720
 8793TIP3    H147870   2.811   1.676   5.810 -1.7561 -1.2632  0.1996
 8793TIP3    H247871   2.825   1.525   5.820  0.9394 -1.0738  0.0628
 8794TIP3   OH247872   1.439   0.837   6.357  0.0025 -0.2020  0.2667
 8794TIP3    H147873   1.396   0.892   6.422  0.3677  0.9387 -0.4346
 8794TIP3    H247874   1.531   0.837   6.382  0.4609  1.6889 -1.1828
 8795TIP3   OH247875   1.581   3.477   3.173  0.0084 -0.1172 -0.8035
 8795TIP3    H147876   1.647   3.432   3.226 -0.0983  0.2039 -0.3883
 8795TIP3    H247877   1.549   3.411   3.112 -0.6028 -0.7739  0.2149
 8796TIP3   OH247878   4.784   3.071   3.148  0.0702  0.0935  0.1438
 8796TIP3    H147879   4.813   3.079   3.057 -0.4145 -2.1479 -0.2840
 8796TIP3    H247880   4.747   2.983   3.153  1.3062 -0.3603  2.8678
 8797TIP3   OH247881   5.997   4.356  12.439 -0.0151  0.3957 -0.4938
 8797TIP3    H147882   6.007   4.327  12.348 -0.9621 -1.1791 -0.1226
 8797TIP3    H247883   6.082   4.336  12.479  0.1192  0.3073 -0.8133
 8798TIP3   OH247884   4.121   4.276   1.006 -0.0397 -0.4379 -0.1058
 8798TIP3    H147885   4.100   4.234   1.090  1.7625  2.7155  2.1110
 8798TIP3    H247886   4.038   4.315   0.978 -0.5457 -1.0613  0.4857
 8799TIP3   OH247887   4.970   1.131  12.446  0.6283 -0.1654  0.0038
 8799TIP3    H147888   5.001   1.081  12.371 -0.1516 -1.5536  0.5689
 8799TIP3    H247889   5.035   1.114  12.514 -1.2361 -3.1679  1.2245
 8800TIP3   OH247890   2.235   2.253   5.470  0.1625  0.1997  0.3523
 8800TIP3    H147891   2.330   2.257   5.485  0.3197 -0.2093 -0.4404
 8800TIP3    H247892   2.203   2.339   5.495  0.4074 -0.3079  2.6692
 8801TIP3   OH247893   4.144   4.906  10.787  0.0056 -0.0130  0.1286
 8801TIP3    H147894   4.144   4.955  10.869  0.5083 -0.1061  0.1840
 8801TIP3    H247895   4.051   4.895  10.766 -0.1132  1.7675 -0.3871
 8802TIP3   OH247896   0.584   5.712   4.286  0.3741  0.4237  0.6512
 8802TIP3    H147897   0.583   5.805   4.267  3.3399  0.2371 -1.0174
 8802TIP3    H247898   0.525   5.673   4.221  2.2159  0.8460 -1.4044
 8803TIP3   OH247899   4.894   1.441  16.715 -0.0950 -0.6561 -0.5868
 8803TIP3    H147900   4.860   1.378  16.778  1.4737 -0.1420  0.8389
 8803TIP3    H247901   4.970   1.398  16.676  1.7384  0.6720  1.2698
 8804TIP3   OH247902   3.909   0.146   4.059 -0.1201  0.2580  0.1452
 8804TIP3    H147903   3.879   0.210   3.994  0.2271 -0.1384 -0.4152
 8804TIP3    H247904   3.829   0.098   4.084  0.0532 -1.1624 -1.7446
 8805TIP3   OH247905   4.484   4.573  11.523  0.0148  0.2735  0.3958
 8805TIP3    H147906   4.489   4.667  11.506  0.7916  0.1403 -0.1890
 8805TIP3    H247907   4.403   4.546  11.480  0.9380  0.2981 -1.5031
 8806TIP3   OH247908   5.407   3.703  15.917  0.6113  0.2699 -0.1353
 8806TIP3    H147909   5.425   3.777  15.858 -1.1504  1.2903  0.5218
 8806TIP3    H247910   5.432   3.735  16.003 -0.9180  0.4222  0.2685
 8807TIP3   OH247911   4.317   2.402  14.758  0.4579  0.2627  0.4914
 8807TIP3    H147912   4.395   2.350  14.739  1.2082  1.5286 -0.0376
 8807TIP3    H247913   4.245   2.339  14.756  1.2520 -0.6496 -0.7143
 8808TIP3   OH247914   0.704   6.411   7.009 -0.4220  0.0288 -0.4113
 8808TIP3    H147915   0.795   6.392   7.032 -0.3992 -2.3031 -2.0048
 8808TIP3    H247916   0.658   6.329   7.030 -2.3268  1.3834  0.9979
 8809TIP3   OH247917   6.590   3.598  12.955 -0.2242 -0.1333 -0.1613
 8809TIP3    H147918   6.641   3.529  12.913  1.5294  0.6731  0.5419
 8809TIP3    H247919   6.642   3.677  12.944 -0.8950  0.5681  1.3295
 8810TIP3   OH247920   2.974   1.257  12.941  0.0027 -0.7321 -0.1280
 8810TIP3    H147921   2.895   1.207  12.961 -1.8007  2.8591  2.9587
 8810TIP3    H247922   2.955   1.300  12.857 -1.1403 -0.3712  0.2929
 8811TIP3   OH247923   4.866   6.168   4.900  0.4028 -0.1729 -0.0974
 8811TIP3    H147924   4.779   6.148   4.867  0.7479 -1.8552 -0.1050
 8811TIP3    H247925   4.922   6.101   4.860  1.3977 -0.1582  1.2206
 8812TIP3   OH247926   6.629   1.452   3.683  0.1760  0.1556 -0.7327
 8812TIP3    H147927   6.617   1.359   3.702  1.5708  0.3866  1.6124
 8812TIP3    H247928   6.689   1.454   3.608  1.8743 -0.8766  0.5315
 8813TIP3   OH247929   6.627   2.594   3.200  0.2135 -0.4765  0.0840
 8813TIP3    H147930   6.562   2.621   3.135  0.5799  1.5925  0.5125
 8813TIP3    H247931   6.591   2.624   3.284  1.2116 -0.3011  0.4561
 8814TIP3   OH247932   3.934   1.857   5.527 -0.0194  0.2617  0.2713
 8814TIP3    H147933   3.922   1.799   5.603  0.1391  1.9372  1.6384
 8814TIP3    H247934   3.863   1.920   5.535  1.2509  1.7387  0.2621
 8815TIP3   OH247935   0.355   4.859  15.292 -0.1077 -0.1150  0.2942
 8815TIP3    H147936   0.273   4.888  15.331  0.1476 -0.4835  1.1228
 8815TIP3    H247937   0.335   4.848  15.199 -0.4218  1.9581  0.0504
 8816TIP3   OH247938   2.019   2.657  15.374 -0.1139  0.0115  0.7645
 8816TIP3    H147939   2.045   2.617  15.457  1.6401 -0.3144  0.0966
 8816TIP3    H247940   2.012   2.584  15.313 -0.3033  0.3621  0.3584
 8817TIP3   OH247941   0.047   0.052  14.514  0.4123  0.4134 -0.1071
 8817TIP3    H147942   0.113   0.113  14.483 -0.2515  0.7717 -0.8426
 8817TIP3    H247943   0.084  -0.035  14.498  1.7038  0.5682  1.6665
 8818TIP3   OH247944   1.468   5.704  12.412  0.6594  0.1104  0.1603
 8818TIP3    H147945   1.395   5.648  12.437 -0.8735  1.4304 -1.1224
 8818TIP3    H247946   1.531   5.694  12.483 -0.8677 -0.8965  1.4456
 8819TIP3   OH247947   2.612   3.254   4.079 -0.7611 -0.1280  0.0024
 8819TIP3    H147948   2.553   3.323   4.049 -1.1361 -0.3712  0.1750
 8819TIP3    H247949   2.599   3.182   4.017 -0.7491 -0.2316  0.1184
 8820TIP3   OH247950   3.637   5.491  12.705 -0.4517 -0.2318 -0.3245
 8820TIP3    H147951   3.553   5.448  12.716 -0.4897  0.0526  0.6098
 8820TIP3    H247952   3.695   5.424  12.669 -0.5464 -1.0333  0.9799
 8821TIP3   OH247953   5.886   0.153  14.877 -0.0325 -0.2106  0.5349
 8821TIP3    H147954   5.887   0.246  14.856 -0.4680 -0.1745  0.6622
 8821TIP3    H247955   5.976   0.124  14.864 -0.3825 -0.3612 -2.0923
 8822TIP3   OH247956   2.275   0.261  16.218  0.1374 -0.2305 -0.5820
 8822TIP3    H147957   2.193   0.231  16.179  0.5772  0.3286 -2.0237
 8822TIP3    H247958   2.255   0.347  16.255 -0.1511 -0.5223 -0.0496
 8823TIP3   OH247959   5.471   3.247  11.957  0.3113  0.5383 -0.6666
 8823TIP3    H147960   5.549   3.260  11.904  1.0007  1.2125  0.4822
 8823TIP3    H247961   5.462   3.152  11.964  0.6530  0.4563 -1.3268
 8824TIP3   OH247962   1.500   5.016  11.803  0.4664  0.7298  0.0521
 8824TIP3    H147963   1.580   4.969  11.829 -0.2482  0.4225  1.7831
 8824TIP3    H247964   1.429   4.968  11.846 -0.6085  1.3548 -0.9865
 8825TIP3   OH247965   2.478   2.061  17.098 -0.0879  0.0709 -0.0017
 8825TIP3    H147966   2.549   2.099  17.046 -1.1234  0.3763 -1.2387
 8825TIP3    H247967   2.503   1.970  17.111  0.9306  0.3835  0.3332
 8826TIP3   OH247968   3.513   5.616  15.718  0.4596  0.2944  0.0977
 8826TIP3    H147969   3.437   5.604  15.661 -0.4869 -0.2841  1.4400
 8826TIP3    H247970   3.522   5.533  15.764  0.8655  0.9215  1.1785
 8827TIP3   OH247971   5.059   4.707   5.098 -0.6740 -0.0753  0.1470
 8827TIP3    H147972   5.141   4.661   5.116 -0.7096 -0.0295  0.4213
 8827TIP3    H247973   5.063   4.786   5.150 -1.2860 -0.4989  0.8590
 8828TIP3   OH247974   5.514   4.123  14.993 -0.2885 -0.0133  0.2081
 8828TIP3    H147975   5.493   4.030  15.008 -0.1469 -0.3788 -1.6233
 8828TIP3    H247976   5.503   4.135  14.899  1.2375  1.4553  0.1753
 8829TIP3   OH247977   6.516   6.452   1.678  0.5751  0.1168  0.0332
 8829TIP3    H147978   6.431   6.495   1.679  1.4678  1.9869 -0.1038
 8829TIP3    H247979   6.560   6.485   1.757  2.1647  1.3638 -1.3217
 8830TIP3   OH247980   2.714   1.571   2.656 -0.5279 -0.5725 -0.2235
 8830TIP3    H147981   2.805   1.588   2.634  0.0842 -3.3142 -0.1193
 8830TIP3    H247982   2.668   1.651   2.631  1.6439  0.2768 -1.8082
 8831TIP3   OH247983   5.854   6.615   2.613 -0.0888 -0.2260 -0.0073
 8831TIP3    H147984   5.768   6.631   2.573  0.0087 -0.1902 -0.2054
 8831TIP3    H247985   5.835   6.562   2.690 -0.4786  1.2972  0.9844
 8832TIP3   OH247986   3.640   1.966  13.308 -0.0475 -0.7218  0.1465
 8832TIP3    H147987   3.701   1.969  13.234 -0.1182  1.3382  0.1152
 8832TIP3    H247988   3.675   2.030  13.370 -2.8960  1.6469 -0.4981
 8833TIP3   OH247989   5.653   0.979   0.530  0.6816 -0.4998 -0.2640
 8833TIP3    H147990   5.675   0.992   0.437 -1.1161  1.2055 -0.5267
 8833TIP3    H247991   5.559   0.994   0.534  0.7795 -0.2201  1.9041
 8834TIP3   OH247992   0.250   2.567  16.897  0.2028 -0.1405 -0.2619
 8834TIP3    H147993   0.296   2.488  16.926  1.0265  0.6192  0.5361
 8834TIP3    H247994   0.189   2.588  16.968  0.3888  0.2623 -0.2193
 8835TIP3   OH247995   4.850   5.010   5.052  0.3239  0.1299 -0.5190
 8835TIP3    H147996   4.830   4.928   5.007  0.9970 -0.3783  0.0945
 8835TIP3    H247997   4.945   5.020   5.042  0.1284  1.3321 -1.4217
 8836TIP3   OH247998   1.348   3.394   3.735  0.0883 -0.1257  0.1740
 8836TIP3    H147999   1.415   3.378   3.801 -0.7466 -0.5324  0.9392
 8836TIP3    H248000   1.328   3.487   3.743  0.6776  0.0377 -0.1821
 8837TIP3   OH248001   2.889   1.242   4.838  0.2588 -0.0008  0.3929
 8837TIP3    H148002   2.808   1.275   4.876  0.4247  1.0553 -0.1500
 8837TIP3    H248003   2.958   1.271   4.898  0.1763 -1.8875  1.4930
 8838TIP3   OH248004   6.749   3.360  16.268 -0.4390  0.1643  0.6883
 8838TIP3    H148005   6.791   3.440  16.236 -0.0096 -0.2213  0.2685
 8838TIP3    H248006   6.739   3.373  16.362 -0.1644  0.6150  0.6544
 8839TIP3   OH248007   4.318   5.388  14.702 -0.2265 -0.5110 -0.9698
 8839TIP3    H148008   4.321   5.326  14.775  0.1434 -0.2330 -0.7457
 8839TIP3    H248009   4.234   5.370  14.659 -0.1701 -1.0941 -0.8441
 8840TIP3   OH248010   2.344   2.777   3.233  0.6264 -0.0267  1.0777
 8840TIP3    H148011   2.334   2.774   3.328  0.9813 -4.0404  1.1576
 8840TIP3    H248012   2.270   2.727   3.199  2.2452 -1.5412 -0.4679
 8841TIP3   OH248013   4.740   6.572   4.801  0.3685  0.6276 -0.1398
 8841TIP3    H148014   4.689   6.582   4.721 -0.8354  0.5703  0.6030
 8841TIP3    H248015   4.676   6.571   4.871  1.4079  0.7397  0.8477
 8842TIP3   OH248016   2.525   1.125   3.567 -0.6517  0.6683  0.5018
 8842TIP3    H148017   2.604   1.177   3.583  1.2898 -2.6062  2.6541
 8842TIP3    H248018   2.516   1.124   3.472  1.1577  2.0831  0.2550
 8843TIP3   OH248019   3.892   1.406  14.633  0.5113 -0.2078  0.0707
 8843TIP3    H148020   3.953   1.333  14.632  0.1563 -0.5061 -0.5977
 8843TIP3    H248021   3.841   1.396  14.552 -1.4185 -0.8116  1.2936
 8844TIP3   OH248022   3.951   2.451   3.804  0.0542  1.0098 -0.2722
 8844TIP3    H148023   3.880   2.471   3.744 -0.9405  1.2383  0.9330
 8844TIP3    H248024   4.030   2.451   3.750 -1.0800 -1.6370 -2.1165
 8845TIP3   OH248025   2.498   1.256   1.537 -0.0869 -0.3199 -0.0470
 8845TIP3    H148026   2.454   1.311   1.472  0.0254  0.3688  0.4373
 8845TIP3    H248027   2.524   1.318   1.605 -1.1415 -1.1512  1.1702
 8846TIP3   OH248028   5.117   2.954  13.502 -0.9453  0.3886  0.5851
 8846TIP3    H148029   5.064   2.929  13.427  2.6921  0.0748 -2.1914
 8846TIP3    H248030   5.157   3.038  13.477  1.8006 -0.6044  1.2504
 8847TIP3   OH248031   3.480   0.353   0.631 -0.1707 -0.4432 -0.1651
 8847TIP3    H148032   3.458   0.399   0.713 -1.9853 -0.1002 -0.7936
 8847TIP3    H248033   3.411   0.288   0.621 -0.3746 -0.0235 -1.7573
 8848TIP3   OH248034   0.609   2.976  13.163  0.2942 -0.4621  0.1031
 8848TIP3    H148035   0.600   3.069  13.185  0.5899 -0.2087 -0.8124
 8848TIP3    H248036   0.579   2.930  13.241  0.0182  0.4025  0.5169
 8849TIP3   OH248037   2.022   0.099  12.616 -0.0750 -0.5471 -0.0467
 8849TIP3    H148038   1.996   0.143  12.697 -3.7818  2.2701 -2.4322
 8849TIP3    H248039   2.106   0.138  12.593 -1.5921  2.9649 -0.2424
 8850TIP3   OH248040   3.301   0.028   2.186 -0.1805  0.2419 -0.1108
 8850TIP3    H148041   3.320   0.120   2.164  1.2522  0.3466  1.3900
 8850TIP3    H248042   3.380  -0.002   2.232 -0.8169 -1.6161 -0.1795
 8851TIP3   OH248043   6.113   5.235   5.206  0.1185  0.4120 -0.4140
 8851TIP3    H148044   6.045   5.292   5.242  0.4588 -0.3161  1.5077
 8851TIP3    H248045   6.070   5.150   5.195  1.0437 -0.5945  2.6185
 8852TIP3   OH248046   6.330   5.890  16.840 -0.0302 -0.4012  0.5644
 8852TIP3    H148047   6.281   5.946  16.900 -1.6732 -3.4646  2.3740
 8852TIP3    H248048   6.393   5.844  16.895  1.4444 -0.2168 -0.8797
 8853TIP3   OH248049   1.944   6.778  14.060  0.2466  0.2668 -0.0079
 8853TIP3    H148050   1.920   6.868  14.082 -0.5624  0.3542 -1.1872
 8853TIP3    H248051   2.008   6.754  14.127  0.8711  1.8863  0.0268
 8854TIP3   OH248052   4.925   4.438  12.746 -0.1052 -0.5852 -0.0334
 8854TIP3    H148053   4.862   4.508  12.729  1.8586  0.6690 -3.0077
 8854TIP3    H248054   4.879   4.358  12.720 -1.3640 -0.0649  0.5320
 8855TIP3   OH248055   2.079   5.673   5.190  0.1642  0.2525  0.0723
 8855TIP3    H148056   2.006   5.636   5.141 -0.9863  2.3613  0.1103
 8855TIP3    H248057   2.123   5.731   5.129  0.8287  0.2688  0.5464
 8856TIP3   OH248058   6.683   0.091  16.554  0.2992 -0.4305 -0.2034
 8856TIP3    H148059   6.617   0.092  16.485  1.0599  1.5869 -0.9501
 8856TIP3    H248060   6.764   0.118  16.511  0.7048  1.3138  1.5308
 8857TIP3   OH248061   0.180   4.672  12.443 -0.4155  0.7900 -0.4152
 8857TIP3    H148062   0.213   4.588  12.412 -0.3510  0.6032  0.1569
 8857TIP3    H248063   0.259   4.722  12.465 -0.4806  0.7379 -0.0677
 8858TIP3   OH248064   1.759   4.610  12.116  0.7313  0.2633 -0.1619
 8858TIP3    H148065   1.773   4.637  12.206  1.4247 -0.2573 -0.1001
 8858TIP3    H248066   1.715   4.684  12.075 -1.5667 -0.3075  1.1173
 8859TIP3   OH248067   4.054   0.360  16.386 -0.1838 -0.2784  0.0301
 8859TIP3    H148068   3.978   0.373  16.442 -0.6403 -0.3841 -0.5596
 8859TIP3    H248069   4.117   0.315  16.443 -0.1497  0.7339  0.8350
 8860TIP3   OH248070   0.206   5.833   5.952  0.5602  0.3462 -0.0352
 8860TIP3    H148071   0.219   5.823   5.857  1.3157  1.3984 -0.0529
 8860TIP3    H248072   0.283   5.881   5.982  1.4538 -1.8576  1.4871
 8861TIP3   OH248073   5.763   4.755   0.372  0.1519 -0.2427  0.0089
 8861TIP3    H148074   5.705   4.693   0.329  0.5284 -1.3030  0.9866
 8861TIP3    H248075   5.732   4.759   0.462  0.2695  0.8391  0.0169
 8862TIP3   OH248076   3.329   3.719   6.196  0.0046 -0.3960 -0.0461
 8862TIP3    H148077   3.421   3.715   6.170  0.3829 -1.5558  1.3468
 8862TIP3    H248078   3.312   3.813   6.208  0.8633 -0.1361 -0.7497
 8863TIP3   OH248079   2.706   0.390   0.225  0.0973  0.0051 -0.3269
 8863TIP3    H148080   2.790   0.432   0.240  0.6642 -0.8055 -1.1569
 8863TIP3    H248081   2.727   0.305   0.187 -1.1169  0.1699 -1.4444
 8864TIP3   OH248082   2.775   2.819   6.227  0.0933  0.3234 -0.2543
 8864TIP3    H148083   2.725   2.894   6.195  0.4029  0.8231  0.4131
 8864TIP3    H248084   2.712   2.766   6.275  0.4796  1.7929  2.0281
 8865TIP3   OH248085   2.049   2.333   1.042 -0.6251  0.8533 -0.2038
 8865TIP3    H148086   1.974   2.287   1.003 -2.1255  1.8678  1.3537
 8865TIP3    H248087   2.049   2.305   1.134  1.4906  0.1892 -0.3579
 8866TIP3   OH248088   2.092   1.204   0.001 -0.3930  0.3572  0.1628
 8866TIP3    H148089   2.154   1.159  -0.056  0.7763  1.0013  0.8872
 8866TIP3    H248090   2.145   1.234   0.075 -1.6874  0.4336  1.0810
 8867TIP3   OH248091   1.888   1.917   5.635 -0.5162 -0.0710 -0.8113
 8867TIP3    H148092   1.919   1.987   5.692 -0.7062 -0.4766 -0.1940
 8867TIP3    H248093   1.837   1.961   5.567 -1.3179  0.3332  0.0319
 8868TIP3   OH248094   1.831   6.144   0.513  0.2770 -0.1440 -0.1496
 8868TIP3    H148095   1.756   6.190   0.476 -0.1314 -1.2537 -0.7470
 8868TIP3    H248096   1.879   6.110   0.437  1.2643  0.3382  0.2302
 8869TIP3   OH248097   5.446   5.733   2.556  0.0251 -0.7111  0.0579
 8869TIP3    H148098   5.482   5.798   2.495  1.2037 -0.7917  0.6312
 8869TIP3    H248099   5.388   5.680   2.503  0.6821 -0.5031 -0.9024
 8870TIP3   OH248100   2.168   3.252  15.240 -0.4104 -0.4407 -0.1484
 8870TIP3    H148101   2.115   3.219  15.312 -1.4145  1.7099  0.1536
 8870TIP3    H248102   2.139   3.202  15.164 -1.9859 -0.1544  0.2473
 8871TIP3   OH248103   4.255   2.121  15.863  0.1966 -0.0039 -0.1585
 8871TIP3    H148104   4.219   2.127  15.774 -0.5864 -1.2824  0.0450
 8871TIP3    H248105   4.338   2.076  15.853  0.4803  0.5425 -0.3183
 8872TIP3   OH248106   6.451   5.134   2.314  0.5377  0.5099  0.3155
 8872TIP3    H148107   6.377   5.177   2.356  2.2719  3.0290  1.0822
 8872TIP3    H248108   6.486   5.076   2.382 -0.2984 -0.1590  0.1850
 8873TIP3   OH248109   6.511   0.339  14.451  0.0415 -0.1867  0.4766
 8873TIP3    H148110   6.590   0.381  14.486  0.2686 -1.1513  1.1695
 8873TIP3    H248111   6.520   0.345  14.356 -0.5549  2.4554  0.5131
 8874TIP3   OH248112   0.279   2.832   4.847  0.1761 -0.1089  0.1883
 8874TIP3    H148113   0.226   2.841   4.768  2.3933  2.9412 -1.1718
 8874TIP3    H248114   0.339   2.761   4.827 -2.4041 -2.7986  1.2881
 8875TIP3   OH248115   4.282   3.364  11.741 -0.4894 -0.5695 -0.0553
 8875TIP3    H148116   4.329   3.417  11.677 -0.4700  0.1113  0.5085
 8875TIP3    H248117   4.317   3.275  11.729 -0.5644 -0.4722 -1.0433
 8876TIP3   OH248118   2.445   6.486   3.909 -0.0015 -0.0677 -0.1972
 8876TIP3    H148119   2.519   6.478   3.848  0.1723  0.8626 -0.1300
 8876TIP3    H248120   2.438   6.400   3.949  1.0361 -0.1849 -0.2319
 8877TIP3   OH248121   5.733   5.806   0.125  1.0982 -0.0081  0.3698
 8877TIP3    H148122   5.826   5.786   0.137  1.7617  1.0804 -2.1576
 8877TIP3    H248123   5.694   5.722   0.101  1.6089 -0.3292  0.6360
 8878TIP3   OH248124   0.558   0.231  16.242 -0.5365  0.4717 -0.1611
 8878TIP3    H148125   0.576   0.297  16.176 -0.6527 -0.1317 -0.8049
 8878TIP3    H248126   0.643   0.214  16.283 -0.0530 -0.6549 -1.5798
 8879TIP3   OH248127   0.280   4.842  11.105 -0.0890 -0.3524 -0.2883
 8879TIP3    H148128   0.251   4.752  11.116  3.2032 -1.4180  0.8063
 8879TIP3    H248129   0.330   4.841  11.023  0.4464  0.3311  0.0197
 8880TIP3   OH248130   6.731   5.493  13.924  0.1226  0.6002  0.1761
 8880TIP3    H148131   6.778   5.424  13.972  1.9400  0.9669 -0.9881
 8880TIP3    H248132   6.648   5.502  13.971 -0.6673 -3.0659 -0.2163
 8881TIP3   OH248133   6.334   0.940   3.126 -0.2072  0.1763 -0.1861
 8881TIP3    H148134   6.426   0.949   3.148 -0.2498  2.5580 -0.6949
 8881TIP3    H248135   6.293   0.906   3.205  0.8048  1.1493  0.7821
 8882TIP3   OH248136   3.230   6.070   0.465 -0.0551  0.0389 -0.2728
 8882TIP3    H148137   3.184   6.024   0.535  0.7093 -0.9371 -0.3760
 8882TIP3    H248138   3.238   6.004   0.395 -0.9225  1.0249 -1.3378
 8883TIP3   OH248139   4.729   0.933  13.817  0.2300 -0.6706 -0.5794
 8883TIP3    H148140   4.735   0.937  13.912 -0.1201  0.5466 -0.5920
 8883TIP3    H248141   4.818   0.954  13.787  0.8832 -3.0768 -0.5302
 8884TIP3   OH248142   5.688   6.057   4.449 -0.5636  0.1994 -0.0209
 8884TIP3    H148143   5.635   6.136   4.452  0.0091  0.7194 -2.0899
 8884TIP3    H248144   5.767   6.079   4.499 -0.2305  1.1167 -0.9049
 8885TIP3   OH248145   4.866   3.794  10.436 -0.0137 -0.7578  0.1732
 8885TIP3    H148146   4.962   3.795  10.439  0.1073  0.5404 -2.1617
 8885TIP3    H248147   4.845   3.716  10.385 -0.1761 -0.6012  0.0012
 8886TIP3   OH248148   1.991   3.827  12.506 -0.9183 -0.0961  0.4700
 8886TIP3    H148149   1.957   3.799  12.421  0.0466 -0.4882  0.1961
 8886TIP3    H248150   2.027   3.747  12.544  1.3350  0.5870 -0.0570
 8887TIP3   OH248151   6.434   1.178  13.406 -0.0794  0.3038 -0.1195
 8887TIP3    H148152   6.362   1.199  13.466 -0.5432  0.7958 -0.8327
 8887TIP3    H248153   6.512   1.214  13.448 -0.0580 -1.1102  1.1655
 8888TIP3   OH248154   2.518   4.245   5.614 -0.0737 -0.4804 -0.0161
 8888TIP3    H148155   2.467   4.320   5.584  1.6178  0.4922 -0.5728
 8888TIP3    H248156   2.504   4.178   5.546 -0.5242 -0.2046 -0.1997
 8889TIP3   OH248157   1.051   2.172   3.927 -0.2781 -0.1607  0.4226
 8889TIP3    H148158   1.105   2.121   3.987 -0.2598  1.3028  1.7192
 8889TIP3    H248159   1.090   2.259   3.927  0.4174 -0.3421 -2.6721
 8890TIP3   OH248160   1.146   5.625  12.860  0.2384  0.2299  0.8591
 8890TIP3    H148161   1.092   5.619  12.781 -1.8210 -1.2181  2.2524
 8890TIP3    H248162   1.220   5.566  12.844  0.8751  1.3941 -0.6705
 8891TIP3   OH248163   0.434   1.701   4.199 -0.3489  0.2946  0.0001
 8891TIP3    H148164   0.496   1.774   4.196 -1.0355  0.9349  0.8313
 8891TIP3    H248165   0.489   1.623   4.209  0.4355  0.6024 -1.5946
 8892TIP3   OH248166   5.337   2.322   3.831 -0.1132  0.2917 -0.1762
 8892TIP3    H148167   5.389   2.390   3.874  0.8067  0.1853 -1.1006
 8892TIP3    H248168   5.391   2.243   3.836 -0.4530  0.0286 -0.5911
 8893TIP3   OH248169   4.088   2.456  11.292  0.0114 -0.2718 -0.1454
 8893TIP3    H148170   4.132   2.473  11.208 -1.1610  0.0483 -0.7123
 8893TIP3    H248171   4.041   2.537  11.311 -0.6633 -0.7542  0.2450
 8894TIP3   OH248172   2.578   1.350   2.563  0.1525  0.3188  0.2167
 8894TIP3    H148173   2.600   1.432   2.609  0.2113 -0.6502  2.0270
 8894TIP3    H248174   2.655   1.331   2.510  0.5625  0.9099  0.5860
 8895TIP3   OH248175   3.858   0.855  12.445 -0.1745  0.8724 -0.1974
 8895TIP3    H148176   3.931   0.795  12.454 -0.8898 -0.0148 -0.1750
 8895TIP3    H248177   3.871   0.896  12.360 -1.3357 -1.6368 -1.6909
 8896TIP3   OH248178   3.030   5.050  13.916  0.6360 -0.0053  0.4602
 8896TIP3    H148179   3.096   5.043  13.985 -0.2463  0.2785  1.3613
 8896TIP3    H248180   2.958   5.098  13.957 -0.0094 -0.0433 -0.5956
 8897TIP3   OH248181   4.776   2.142  16.769  0.1506 -0.0271 -0.3469
 8897TIP3    H148182   4.728   2.222  16.792 -0.4775 -0.4124 -0.2782
 8897TIP3    H248183   4.715   2.072  16.790  0.8995 -0.5554  0.1053
 8898TIP3   OH248184   3.246   1.204  16.279 -0.2159 -0.1350  0.0405
 8898TIP3    H148185   3.260   1.284  16.227 -0.0157 -0.8604 -1.0519
 8898TIP3    H248186   3.231   1.136  16.214 -2.3555 -0.6503  0.9722
 8899TIP3   OH248187   3.061   6.677   1.293  0.0045  0.3027  0.5842
 8899TIP3    H148188   3.146   6.654   1.255 -0.3675  0.5776 -0.4767
 8899TIP3    H248189   3.057   6.629   1.375  1.6284  1.1048  1.1755
 8900TIP3   OH248190   6.170   2.174   5.977 -0.3083  0.0591  1.0033
 8900TIP3    H148191   6.201   2.263   5.958  0.0602 -0.6449 -2.5530
 8900TIP3    H248192   6.081   2.186   6.010  0.5011  1.7701  2.7665
 8901TIP3   OH248193   0.041   4.770   0.160 -0.1529  0.1987  0.2636
 8901TIP3    H148194   0.069   4.684   0.189  0.3514  0.5119  0.7258
 8901TIP3    H248195  -0.052   4.760   0.139 -0.1374 -0.4081  0.4861
 8902TIP3   OH248196   4.203   6.115  14.137 -0.4517 -0.1751  0.5911
 8902TIP3    H148197   4.202   6.210  14.126  2.2610 -0.1201  0.2488
 8902TIP3    H248198   4.230   6.102  14.228  0.0659 -0.5967  0.3801
 8903TIP3   OH248199   4.558   0.453  12.412 -0.8019 -0.6901 -0.0385
 8903TIP3    H148200   4.499   0.528  12.407  0.3419  0.1819 -3.1243
 8903TIP3    H248201   4.645   0.490  12.397 -0.1941 -2.5708 -1.6273
 8904TIP3   OH248202   5.002   5.475   3.147 -0.1655 -0.5264  0.0735
 8904TIP3    H148203   5.058   5.399   3.131 -0.6638 -0.9046  0.1120
 8904TIP3    H248204   5.062   5.549   3.148  0.2160 -0.8090 -0.8415
 8905TIP3   OH248205   1.754   0.984   4.784  0.5481  0.2705  0.1656
 8905TIP3    H148206   1.727   1.049   4.720 -1.2091 -0.8181 -0.2681
 8905TIP3    H248207   1.695   0.998   4.858  2.4203  1.3844  1.5426
 8906TIP3   OH248208   5.562   3.757  14.767 -0.1990 -0.0120 -0.3878
 8906TIP3    H148209   5.625   3.748  14.695  1.2080  0.4687  0.7239
 8906TIP3    H248210   5.478   3.770  14.724  0.4188 -0.8514 -1.9384
 8907TIP3   OH248211   4.471   2.360  14.136 -0.5023 -0.0799 -0.1738
 8907TIP3    H148212   4.475   2.355  14.040 -0.0888  0.2432 -0.1774
 8907TIP3    H248213   4.384   2.327  14.158  0.6723 -3.7821 -0.3952
 8908TIP3   OH248214   6.678   3.918  16.160 -0.2218  0.6729 -0.2945
 8908TIP3    H148215   6.586   3.912  16.135 -0.1421 -0.0070 -0.4534
 8908TIP3    H248216   6.681   3.882  16.249 -0.3857  2.3887  0.4511
 8909TIP3   OH248217   3.738   1.655  11.796 -0.2710 -0.1239 -0.8498
 8909TIP3    H148218   3.726   1.748  11.779 -1.5674 -0.6457 -3.0437
 8909TIP3    H248219   3.655   1.614  11.774  0.6443 -1.9685 -1.1141
 8910TIP3   OH248220   5.455   4.124   3.682  0.3723  0.1473  0.9409
 8910TIP3    H148221   5.378   4.072   3.706  0.8957 -0.9643  0.2489
 8910TIP3    H248222   5.466   4.185   3.756 -0.5151 -0.3983  1.5507
 8911TIP3   OH248223   3.837   3.216  11.808  0.8077 -1.1567  0.1775
 8911TIP3    H148224   3.827   3.243  11.900  0.9521  0.0629 -0.1512
 8911TIP3    H248225   3.875   3.292  11.765 -0.4613 -1.2495 -1.1687
 8912TIP3   OH248226   1.923   1.377  15.377  0.2099  0.3404 -0.3862
 8912TIP3    H148227   1.911   1.302  15.435  0.3474  0.9924  0.5133
 8912TIP3    H248228   1.844   1.430  15.389  0.3256  0.5756 -0.6475
 8913TIP3   OH248229   6.526   6.211  13.534  0.2183  0.0035 -0.2899
 8913TIP3    H148230   6.453   6.159  13.567 -0.4378 -0.5207 -2.4145
 8913TIP3    H248231   6.599   6.150  13.529 -0.0814 -0.2979 -1.1474
 8914TIP3   OH248232   5.925   1.436   2.818  0.0287 -0.2467 -0.3744
 8914TIP3    H148233   6.012   1.412   2.849 -0.9390 -1.0603  2.0192
 8914TIP3    H248234   5.906   1.519   2.863  0.0243  0.5839 -1.8573
 8915TIP3   OH248235   3.755   2.293   2.379  0.1457 -0.1986 -0.4500
 8915TIP3    H148236   3.772   2.356   2.448 -0.9039 -0.2552 -0.1273
 8915TIP3    H248237   3.820   2.313   2.311  1.5968 -0.5386  0.7971
 8916TIP3   OH248238   3.676   5.032  13.740 -0.4217  0.5239  0.7601
 8916TIP3    H148239   3.623   5.076  13.674  1.4140  1.4192 -0.1872
 8916TIP3    H248240   3.624   4.956  13.766 -1.0300 -0.1252 -2.0676
 8917TIP3   OH248241   4.287   3.054   0.031 -0.0663  0.0649  0.6719
 8917TIP3    H148242   4.198   3.020   0.036 -1.1747  2.0677 -2.5013
 8917TIP3    H248243   4.278   3.140  -0.011  3.5461 -1.1319 -3.2991
 8918TIP3   OH248244   0.120   0.202  16.473 -0.8965 -0.6652 -0.2106
 8918TIP3    H148245   0.154   0.254  16.400  0.0999 -1.2657 -0.2004
 8918TIP3    H248246   0.143   0.112  16.450 -0.3820 -0.8416  0.9324
 8919TIP3   OH248247   4.829   0.718   0.411 -0.3598 -0.1508  0.4327
 8919TIP3    H148248   4.881   0.723   0.331 -0.8109 -1.3547  0.0461
 8919TIP3    H248249   4.755   0.662   0.389 -1.2697  0.6589  1.2830
 8920TIP3   OH248250   6.382   3.956  13.303  0.2615 -0.3206  0.1102
 8920TIP3    H148251   6.462   3.968  13.252  0.0452 -2.5715 -0.9139
 8920TIP3    H248252   6.365   3.861  13.298 -2.1476  0.0123  0.7473
 8921TIP3   OH248253   6.019   1.429  17.180 -0.5638 -0.7677  0.1557
 8921TIP3    H148254   6.008   1.384  17.096  0.1209  1.4749 -1.2237
 8921TIP3    H248255   6.113   1.442  17.189 -0.5248 -1.8582  1.8223
 8922TIP3   OH248256   1.672   3.559   5.945  0.0154  0.0732  0.1166
 8922TIP3    H148257   1.689   3.512   5.863  0.1279 -1.2450  0.8685
 8922TIP3    H248258   1.594   3.517   5.982  0.7441 -0.2634  1.3318
 8923TIP3   OH248259   3.836   6.039   0.059 -0.2054 -0.1252 -0.6479
 8923TIP3    H148260   3.891   6.094   0.114  2.1802  0.8192 -3.6586
 8923TIP3    H248261   3.816   6.094  -0.017 -2.6079 -1.5948 -1.1845
 8924TIP3   OH248262   3.010   1.969  12.735 -0.2525 -0.3549 -0.4180
 8924TIP3    H148263   3.000   1.997  12.644  0.6529 -1.2228 -0.8082
 8924TIP3    H248264   3.089   2.013  12.766 -0.7416  0.1978  0.0615
 8925TIP3   OH248265   5.728   1.266  12.267 -0.3379 -0.4182  0.0911
 8925TIP3    H148266   5.685   1.330  12.210  1.5016 -0.2604 -1.1855
 8925TIP3    H248267   5.752   1.315  12.345  0.6473  0.3682 -0.6840
 8926TIP3   OH248268   6.606   6.814  14.291  0.2272 -0.3117 -0.0055
 8926TIP3    H148269   6.660   6.822  14.213  0.4256 -2.6782 -0.1803
 8926TIP3    H248270   6.669   6.804  14.363  0.0397  0.4838  0.2705
 8927TIP3   OH248271   5.136   5.968   5.145  0.1026 -0.1514  0.4603
 8927TIP3    H148272   5.229   5.977   5.125 -0.0864  1.1944  0.0811
 8927TIP3    H248273   5.112   6.051   5.187 -1.1046 -0.1167 -0.2484
 8928TIP3   OH248274   2.285   4.888  17.092  0.0732 -0.3678 -0.7206
 8928TIP3    H148275   2.194   4.859  17.092  0.3788 -1.3943 -0.1499
 8928TIP3    H248276   2.297   4.930  17.006 -0.5746 -1.4150 -1.3484
 8929TIP3   OH248277   5.346   2.499   0.930  0.1633  0.0901  0.2982
 8929TIP3    H148278   5.360   2.594   0.924 -0.6550  0.1705 -0.7089
 8929TIP3    H248279   5.266   2.490   0.981 -1.0571  0.0823 -1.5253
 8930TIP3   OH248280   3.419   5.108  16.820  0.4086  0.3511 -0.5076
 8930TIP3    H148281   3.483   5.085  16.753 -1.7246 -4.9914 -1.2217
 8930TIP3    H248282   3.335   5.086  16.780 -1.2368  0.4201  2.6543
 8931TIP3   OH248283   1.834   3.420   0.724 -0.4528  0.1382 -0.4550
 8931TIP3    H148284   1.882   3.355   0.673 -0.5066  0.2601 -0.6641
 8931TIP3    H248285   1.889   3.499   0.720  0.8038 -0.5402  1.7723
 8932TIP3   OH248286   6.590   3.071  12.195  0.0504  0.1348  0.2353
 8932TIP3    H148287   6.507   3.055  12.240 -0.6436  0.0280 -1.0266
 8932TIP3    H248288   6.631   3.143  12.243  0.1138 -1.0239  1.9946
 8933TIP3   OH248289   2.290   3.500   4.946 -0.2052  0.3870  0.4006
 8933TIP3    H148290   2.247   3.576   4.985  0.0610  0.0176  1.4642
 8933TIP3    H248291   2.383   3.512   4.968 -0.2444 -0.5388  1.0883
 8934TIP3   OH248292   1.612   2.610   1.790 -0.0804 -0.6861 -0.0517
 8934TIP3    H148293   1.587   2.702   1.779 -2.0931 -1.3428 -1.6256
 8934TIP3    H248294   1.619   2.576   1.701  0.9411 -2.0115  0.4978
 8935TIP3   OH248295   5.689   0.248  14.621 -0.5875 -0.3089 -0.2784
 8935TIP3    H148296   5.666   0.156  14.606 -0.2625 -0.3377 -0.6066
 8935TIP3    H248297   5.782   0.253  14.598 -0.9549  0.4177 -1.6795
 8936TIP3   OH248298   5.413   5.099  15.708  0.3014  0.1872  0.7539
 8936TIP3    H148299   5.505   5.083  15.730  0.9272  1.2486 -0.8659
 8936TIP3    H248300   5.394   5.039  15.637 -0.0962  0.3549  0.7136
 8937TIP3   OH248301   1.666   4.227   0.114 -0.1876  0.3668  0.2227
 8937TIP3    H148302   1.704   4.311   0.139  0.8535  0.1790 -0.6600
 8937TIP3    H248303   1.590   4.217   0.171 -0.1039  1.7244  0.5995
 8938TIP3   OH248304   0.417   0.272  12.931 -0.2429  0.5802  0.1121
 8938TIP3    H148305   0.330   0.250  12.898 -0.4925  0.3191  0.9138
 8938TIP3    H248306   0.409   0.363  12.959 -1.1043 -0.2180  2.7581
 8939TIP3   OH248307   2.993   3.292   2.912 -0.0911  0.3369 -0.2512
 8939TIP3    H148308   2.942   3.283   2.832  1.0917 -0.1238 -0.9735
 8939TIP3    H248309   2.990   3.386   2.932 -0.4083  0.4542 -0.8263
 8940TIP3   OH248310   5.337   0.986  13.952  0.4771  0.3230  0.2593
 8940TIP3    H148311   5.254   0.937  13.946 -0.0736  1.3735 -1.3803
 8940TIP3    H248312   5.404   0.922  13.928  0.2426 -0.6965  2.1558
 8941TIP3   OH248313   1.019   2.166   5.363 -0.3873 -0.1123 -0.3583
 8941TIP3    H148314   1.044   2.225   5.292  1.5059  0.1220  0.4218
 8941TIP3    H248315   1.047   2.080   5.334 -0.9052 -0.2363 -0.4862
 8942TIP3   OH248316   1.332   4.896   4.195  0.8282  0.1334  0.1358
 8942TIP3    H148317   1.301   4.919   4.283 -1.5063 -1.2682 -0.2436
 8942TIP3    H248318   1.338   4.800   4.196 -2.2934 -0.2196 -2.0795
 8943TIP3   OH248319   1.915   4.004  11.935  0.3317 -0.4708  0.6191
 8943TIP3    H148320   1.872   3.921  11.916  0.5215 -0.3761 -0.3018
 8943TIP3    H248321   1.846   4.060  11.970 -0.5877  0.0215 -1.8192
 8944TIP3   OH248322   5.492   3.837  14.058  0.4477 -0.0252 -0.5451
 8944TIP3    H148323   5.456   3.920  14.086  3.7078  1.7050 -0.9346
 8944TIP3    H248324   5.477   3.835  13.963  0.3183  0.1252 -0.5276
 8945TIP3   OH248325   5.862   1.593  11.393  0.8850 -0.3578  0.0520
 8945TIP3    H148326   5.894   1.668  11.343  2.0120 -0.6115  0.3716
 8945TIP3    H248327   5.769   1.612  11.407  1.0921  0.8459 -0.0935
 8946TIP3   OH248328   0.444   5.813  12.279 -0.4063 -0.1879  0.1672
 8946TIP3    H148329   0.435   5.742  12.215  2.2160  0.5418 -1.1847
 8946TIP3    H248330   0.435   5.893  12.227 -0.3063  0.4461  1.1032
 8947TIP3   OH248331   3.173   5.020  16.734 -0.0826 -0.0371  0.4233
 8947TIP3    H148332   3.081   5.027  16.759  0.2709  2.1109  1.3372
 8947TIP3    H248333   3.184   5.087  16.667  1.0537  0.5810  1.1918
 8948TIP3   OH248334   5.743   2.244   2.291 -0.6794  0.3999  0.7092
 8948TIP3    H148335   5.658   2.288   2.291 -0.0495  1.6464  1.1960
 8948TIP3    H248336   5.783   2.271   2.208 -0.7284 -0.1686  0.4916
 8949TIP3   OH248337   5.318   1.482  11.163  0.0983  0.5175  0.9251
 8949TIP3    H148338   5.370   1.468  11.084  1.2273 -0.1537  1.7621
 8949TIP3    H248339   5.257   1.409  11.165 -0.1794  0.7357  0.4849
 8950TIP3   OH248340   5.657   0.799   3.823 -0.7470  0.5885 -0.2784
 8950TIP3    H148341   5.657   0.703   3.819 -3.1703  0.5029  0.1255
 8950TIP3    H248342   5.686   0.827   3.736  0.1108 -0.4881 -0.3576
 8951TIP3   OH248343   6.304   5.894   0.961  0.7946 -0.8454  0.8057
 8951TIP3    H148344   6.366   5.881   0.889  1.0614 -0.4472  0.9606
 8951TIP3    H248345   6.346   5.958   1.018 -0.3273  0.4362  0.2397
 8952TIP3   OH248346   0.128   4.257  16.467 -0.0804 -0.4397  0.2294
 8952TIP3    H148347   0.123   4.167  16.499  1.4564  0.4723  3.3017
 8952TIP3    H248348   0.044   4.296  16.492 -0.4832 -0.7723 -0.5340
 8953TIP3   OH248349   1.207   1.353   2.086 -0.3665 -0.6244 -0.1543
 8953TIP3    H148350   1.151   1.287   2.047 -1.1458  0.7923 -1.5491
 8953TIP3    H248351   1.197   1.430   2.029  4.0567 -0.6771 -1.3319
 8954TIP3   OH248352   1.191   0.022  15.055  0.5382  0.2185  0.3001
 8954TIP3    H148353   1.214  -0.021  15.138 -1.1164 -1.6603 -0.1683
 8954TIP3    H248354   1.259  -0.006  14.994  0.7329  0.1259  0.5577
 8955TIP3   OH248355   5.849   3.485   5.121 -0.8982 -0.0689 -0.2880
 8955TIP3    H148356   5.925   3.529   5.159 -0.7988  0.6122 -1.2261
 8955TIP3    H248357   5.774   3.531   5.159 -0.8483 -0.5142  0.3716
 8956TIP3   OH248358   0.149   1.919   5.632  0.0056  0.2742 -0.4890
 8956TIP3    H148359   0.055   1.905   5.639 -0.3150  0.9410 -2.5797
 8956TIP3    H248360   0.188   1.836   5.660 -1.0520  0.6084  2.2913
 8957TIP3   OH248361   1.381   4.677   5.192 -0.0412 -1.0155  0.0315
 8957TIP3    H148362   1.326   4.681   5.270  0.7350 -0.0294  0.5478
 8957TIP3    H248363   1.465   4.715   5.219  0.1657 -0.4252 -1.3482
 8958TIP3   OH248364   3.717   2.951  15.343 -0.0635  0.2202 -0.3134
 8958TIP3    H148365   3.730   2.884  15.411 -3.0350 -0.1411  0.0319
 8958TIP3    H248366   3.778   3.021  15.367  3.5523 -2.3698 -0.9515
 8959TIP3   OH248367   4.504   2.700   2.801 -0.4625  0.5542 -0.2376
 8959TIP3    H148368   4.436   2.752   2.759 -1.1979 -0.1007  0.1239
 8959TIP3    H248369   4.552   2.661   2.729 -0.4506  1.0349 -0.4946
 8960TIP3   OH248370   1.545   3.865  16.228  0.2114 -0.0504  0.0853
 8960TIP3    H148371   1.618   3.808  16.250 -0.0469 -0.9431 -1.3079
 8960TIP3    H248372   1.469   3.824  16.269  0.0590 -0.6163 -0.7472
 8961TIP3   OH248373   0.982   5.786  14.802 -0.7245  0.0086  0.1148
 8961TIP3    H148374   1.014   5.735  14.728 -0.4677 -0.6297  0.6602
 8961TIP3    H248375   0.958   5.871  14.764 -1.1844 -0.5179 -0.8101
 8962TIP3   OH248376   6.604   1.141  12.820  0.1489 -0.4143  0.3476
 8962TIP3    H148377   6.546   1.095  12.758  1.4258 -0.9917 -0.4519
 8962TIP3    H248378   6.684   1.089  12.822  1.1547  1.0660  0.4213
 8963TIP3   OH248379   5.503   1.436   4.586 -0.5236  0.7508  0.2569
 8963TIP3    H148380   5.552   1.358   4.559  0.1179  0.9481  0.8374
 8963TIP3    H248381   5.569   1.495   4.621 -1.3435  0.3541  2.6716
 8964TIP3   OH248382   3.034   5.952   3.301  1.0435  0.2952  0.1596
 8964TIP3    H148383   3.001   5.862   3.308 -0.5894  0.8648  0.3368
 8964TIP3    H248384   3.053   5.964   3.208  2.6079 -0.6471  0.3266
 8965TIP3   OH248385   2.089   2.021   4.976  0.1318  0.3007  0.3535
 8965TIP3    H148386   2.089   1.936   4.932 -0.5702  1.1806 -1.4332
 8965TIP3    H248387   2.013   2.019   5.034 -1.0704  0.4017 -1.1623
 8966TIP3   OH248388   1.000   6.420   1.877  0.1824  0.1296 -0.5421
 8966TIP3    H148389   1.020   6.416   1.970 -2.4908  1.1686  0.1969
 8966TIP3    H248390   1.016   6.511   1.853 -0.5259  0.2302 -0.6780
 8967TIP3   OH248391   6.163   1.628   2.711  0.8865  0.2903  0.5642
 8967TIP3    H148392   6.155   1.594   2.800  0.2581 -0.1037  0.3585
 8967TIP3    H248393   6.148   1.722   2.721 -1.5938 -0.0450  0.5745
 8968TIP3   OH248394   2.358   1.567   0.701  0.0322 -0.0998  0.1038
 8968TIP3    H148395   2.335   1.500   0.766  2.0830 -2.2204 -1.2160
 8968TIP3    H248396   2.431   1.615   0.740 -0.1281  0.0400  0.2322
 8969TIP3   OH248397   6.583   6.506   0.106  0.1070  0.0147 -0.5325
 8969TIP3    H148398   6.513   6.571   0.109 -0.9193 -1.1107  1.5586
 8969TIP3    H248399   6.559   6.448   0.034 -0.1838  0.6070 -0.9183
 8970TIP3   OH248400   0.727   0.928  16.660 -0.0390  0.4041  0.4945
 8970TIP3    H148401   0.759   0.993  16.722 -1.0852 -0.2781  1.7884
 8970TIP3    H248402   0.689   0.859  16.714 -2.0058  0.3018 -0.9136
 8971TIP3   OH248403   6.133   0.301  15.786 -0.3212  0.0474 -0.0009
 8971TIP3    H148404   6.177   0.331  15.865 -1.8061  0.4340  0.6969
 8971TIP3    H248405   6.053   0.260  15.817 -0.3954 -0.8037 -1.2421
 8972TIP3   OH248406   6.587   3.412   0.725 -0.2716  0.1903  0.4545
 8972TIP3    H148407   6.531   3.430   0.800 -4.1374  2.1853 -2.5214
 8972TIP3    H248408   6.581   3.491   0.671  2.1544 -1.1746 -2.0963
 8973TIP3   OH248409   4.096   5.498   3.705 -0.0960 -0.4426  0.1040
 8973TIP3    H148410   4.110   5.547   3.623 -0.9268  0.9397  0.7659
 8973TIP3    H248411   4.022   5.541   3.747  0.1246 -1.3268  1.4563
 8974TIP3   OH248412   4.880   3.260  14.089 -0.2479 -0.2246  0.1960
 8974TIP3    H148413   4.948   3.205  14.128  0.5693  1.0913  0.6836
 8974TIP3    H248414   4.928   3.332  14.049 -1.4217  2.3877  3.0898
 8975TIP3   OH248415   1.051   2.820   2.706 -0.3280 -0.6201  1.0477
 8975TIP3    H148416   0.961   2.835   2.735 -1.3033 -0.9798 -1.5276
 8975TIP3    H248417   1.090   2.907   2.703 -0.9465 -0.3367  1.1174
 8976TIP3   OH248418   4.523   0.158   5.489 -0.1372  0.2216  0.2945
 8976TIP3    H148419   4.576   0.124   5.417 -0.2397  1.4535 -0.3935
 8976TIP3    H248420   4.460   0.216   5.447 -0.9197  0.1069  1.2760
 8977TIP3   OH248421   3.400   5.452  14.443  0.0728  0.4502  0.2609
 8977TIP3    H148422   3.306   5.436  14.440  0.1343 -0.2244  1.5317
 8977TIP3    H248423   3.410   5.543  14.414 -0.5865 -0.5429 -3.7609
 8978TIP3   OH248424   4.080   4.358   4.034  0.0709  0.7921 -0.3615
 8978TIP3    H148425   4.145   4.292   4.006 -0.8553 -0.4380  0.2978
 8978TIP3    H248426   4.111   4.387   4.119  0.7707  1.6283 -0.8876
 8979TIP3   OH248427   6.448   3.732  13.595 -0.1846 -0.5363 -0.7551
 8979TIP3    H148428   6.519   3.676  13.625  1.4103  0.6929 -1.9809
 8979TIP3    H248429   6.458   3.734  13.500 -0.4831  1.3751 -0.7913
 8980TIP3   OH248430   0.456   5.833  16.878  0.3325  0.2195  0.4474
 8980TIP3    H148431   0.389   5.764  16.870  0.5326  0.0832 -0.1064
 8980TIP3    H248432   0.525   5.794  16.931 -0.1209  0.4396  1.2221
 8981TIP3   OH248433   5.506   2.162  15.081  0.7854 -0.4482  0.2144
 8981TIP3    H148434   5.448   2.191  15.151  0.5297 -1.6467  0.5242
 8981TIP3    H248435   5.565   2.236  15.066  1.6369 -0.5794  2.5489
 8982TIP3   OH248436   0.151   3.130   1.692  0.1898  0.4247 -0.3481
 8982TIP3    H148437   0.212   3.184   1.643  0.3588  0.5976  0.0537
 8982TIP3    H248438   0.084   3.191   1.723  2.6626  1.3461  3.9473
 8983TIP3   OH248439   6.181   0.804   1.776  0.7920 -0.5757  0.7114
 8983TIP3    H148440   6.152   0.718   1.745  1.1005 -1.0409  1.6808
 8983TIP3    H248441   6.191   0.856   1.696 -0.8857 -0.9509  0.2089
 8984TIP3   OH248442   6.087   3.196   5.181  0.3168  0.5355  0.2963
 8984TIP3    H148443   6.007   3.208   5.130  1.5001 -0.2107 -1.9017
 8984TIP3    H248444   6.079   3.258   5.253 -2.1152  0.6354  0.0329
 8985TIP3   OH248445   6.132   6.005   1.858  0.5146 -0.6953 -0.3818
 8985TIP3    H148446   6.125   6.055   1.939 -0.4484 -3.4420  1.3987
 8985TIP3    H248447   6.226   5.988   1.850  0.5557 -1.0638  0.6560
 8986TIP3   OH248448   6.671   2.529  16.141 -0.4570  0.3475  0.3542
 8986TIP3    H148449   6.740   2.592  16.123 -0.0915 -0.3725 -0.8588
 8986TIP3    H248450   6.693   2.453  16.087 -1.2319 -0.5761  1.3014
 8987TIP3   OH248451   6.045   5.650   1.271  0.1389 -0.4234 -0.3158
 8987TIP3    H148452   5.991   5.603   1.335 -1.3839  0.1085 -1.1678
 8987TIP3    H248453   5.982   5.697   1.217  1.5649  2.0019  0.0005
 8988TIP3   OH248454   5.226   2.765  11.144 -0.2152  0.3291 -0.2516
 8988TIP3    H148455   5.167   2.815  11.199  0.6540  0.5672  0.4802
 8988TIP3    H248456   5.186   2.769  11.057 -1.4060  0.2577  0.2722
 8989TIP3   OH248457   0.703   6.449  16.827  0.2993  0.0669  0.2093
 8989TIP3    H148458   0.692   6.539  16.857  0.2390  0.0716  0.1723
 8989TIP3    H248459   0.614   6.416  16.816  0.3110 -0.3391  1.2473
 8990TIP3   OH248460   6.518   5.785   4.165  0.0366  0.5176  0.0478
 8990TIP3    H148461   6.486   5.803   4.253 -1.9633  1.3511 -0.7911
 8990TIP3    H248462   6.479   5.701   4.141  0.3755  0.4093 -0.1268
 8991TIP3   OH248463   3.416   5.780  12.280  0.2677  0.1726  0.3863
 8991TIP3    H148464   3.374   5.852  12.327 -0.8177  0.4932 -0.9895
 8991TIP3    H248465   3.374   5.781  12.194  1.0090 -1.4302 -0.0220
 8992TIP3   OH248466   2.376   1.118  11.739 -0.1688 -0.4471 -0.4977
 8992TIP3    H148467   2.460   1.080  11.761 -1.2480 -0.8905  3.8733
 8992TIP3    H248468   2.317   1.043  11.727 -0.5811 -0.1823 -0.1953
 8993TIP3   OH248469   4.291   0.755  14.322 -0.2844  0.2276  0.5654
 8993TIP3    H148470   4.330   0.676  14.358  0.4649  0.2888 -0.0713
 8993TIP3    H248471   4.196   0.744  14.334 -0.1794 -0.7240  0.5605
 8994TIP3   OH248472   5.593   4.448   5.234  0.1745 -0.4489 -0.5359
 8994TIP3    H148473   5.598   4.354   5.220  0.0326 -0.4367 -0.6637
 8994TIP3    H248474   5.579   4.458   5.328  0.3081 -0.5520 -0.5051
 8995TIP3   OH248475   3.097   4.730  17.234 -0.3967  0.0896  0.1896
 8995TIP3    H148476   3.058   4.644  17.250 -3.6127  1.6097  1.3784
 8995TIP3    H248477   3.112   4.732  17.139  0.7474 -2.0754  0.2561
 8996TIP3   OH248478   3.706   0.419  13.191 -0.0153  0.1268  0.5847
 8996TIP3    H148479   3.676   0.509  13.200  0.2252  0.1979  0.6572
 8996TIP3    H248480   3.628   0.366  13.208 -0.9223  0.3554 -2.2429
 8997TIP3   OH248481   6.426   5.757   3.760 -0.2639  0.4246  0.2155
 8997TIP3    H148482   6.420   5.790   3.671  0.2290 -0.5529 -0.1991
 8997TIP3    H248483   6.475   5.675   3.752 -1.6832 -0.5741  1.1562
 8998TIP3   OH248484   2.858   6.762   4.850  0.7331  0.3151  0.0942
 8998TIP3    H148485   2.856   6.814   4.770  1.1141  0.7617  0.3734
 8998TIP3    H248486   2.881   6.674   4.820  0.3450  0.3618 -0.3485
 8999TIP3   OH248487   2.299   5.443   5.072  0.0366  0.3254 -0.6315
 8999TIP3    H148488   2.246   5.490   5.136 -0.2240 -0.7498 -0.0274
 8999TIP3    H248489   2.238   5.382   5.030  0.5384 -0.1069 -0.7554
 9000TIP3   OH248490   1.712   1.292  14.717 -0.3409  0.0183 -0.3368
 9000TIP3    H148491   1.792   1.239  14.715 -0.8107 -0.6784 -1.2015
 9000TIP3    H248492   1.678   1.279  14.806  1.4746  1.8400  0.7013
 9001TIP3   OH248493   1.092   2.801  11.703 -0.3632 -0.0842 -0.3419
 9001TIP3    H148494   1.123   2.776  11.616 -0.8479 -0.0970 -0.5180
 9001TIP3    H248495   1.102   2.896  11.706 -2.5721  0.2635 -1.3554
 9002TIP3   OH248496   1.783   6.599  13.043 -0.2634 -0.7149  0.0569
 9002TIP3    H148497   1.742   6.627  12.961  1.1731 -0.4541 -0.5902
 9002TIP3    H248498   1.854   6.541  13.016  0.4345 -0.3741  1.0949
 9003TIP3   OH248499   3.111   1.412  11.345  0.3669 -0.1043 -0.4902
 9003TIP3    H148500   3.039   1.467  11.312  0.6341  0.7006  0.2269
 9003TIP3    H248501   3.149   1.373  11.266  0.3193  0.9317 -1.0499
 9004TIP3   OH248502   0.132   2.721   1.143 -0.5559 -0.0597  0.3056
 9004TIP3    H148503   0.151   2.633   1.110 -0.0843  0.3302 -0.5231
 9004TIP3    H248504   0.096   2.767   1.067 -0.6599  0.4972  0.6882
 9005TIP3   OH248505   3.790   4.418   5.697 -0.0191  0.8739 -0.2961
 9005TIP3    H148506   3.816   4.507   5.671 -0.9212  1.1610 -0.2409
 9005TIP3    H248507   3.802   4.417   5.792  0.1142  0.8905 -0.3122
 9006TIP3   OH248508   6.018   0.725  12.491 -0.0363  0.1149  0.5322
 9006TIP3    H148509   6.078   0.683  12.553 -0.0850  2.7033  2.5258
 9006TIP3    H248510   5.931   0.696  12.519 -0.0391  1.0449  1.5866
 9007TIP3   OH248511   5.892   3.501   2.632  0.7621 -0.1740 -0.4323
 9007TIP3    H148512   5.835   3.500   2.554  0.4691 -0.0434 -0.2232
 9007TIP3    H248513   5.835   3.471   2.703  0.5957  1.1280  0.0153
 9008TIP3   OH248514   4.901   6.120   5.967  0.2920 -0.4422 -0.5875
 9008TIP3    H148515   4.848   6.119   6.047  0.2787 -2.0532 -0.5718
 9008TIP3    H248516   4.902   6.029   5.938  1.3380 -0.0979 -1.7426
 9009TIP3   OH248517   2.637   0.082   6.540 -0.5811 -0.7185 -0.3553
 9009TIP3    H148518   2.669   0.111   6.454  0.0719  0.5988  0.3025
 9009TIP3    H248519   2.645   0.159   6.596  2.9741 -2.4968  1.9855
 9010TIP3   OH248520   1.730   3.813   5.195  0.4872 -0.1112  0.2112
 9010TIP3    H148521   1.824   3.832   5.185  0.5106 -0.4695 -0.3063
 9010TIP3    H248522   1.720   3.791   5.287  0.6397  1.3711  0.6064
 9011TIP3   OH248523   4.346   0.951   4.527 -0.7799  0.2826  0.6675
 9011TIP3    H148524   4.375   0.945   4.618  1.0565  1.5380  0.2455
 9011TIP3    H248525   4.407   1.014   4.488 -1.1014 -0.7369 -1.5962
 9012TIP3   OH248526   6.580   3.026   3.983 -0.0095  0.1025  0.2377
 9012TIP3    H148527   6.654   3.021   3.923  0.5196  0.6976  0.8226
 9012TIP3    H248528   6.590   3.110   4.027 -0.6571 -0.1033  0.8016
 9013TIP3   OH248529   5.521   5.231   0.344 -0.2886  1.0273 -0.2136
 9013TIP3    H148530   5.471   5.157   0.310  1.6022 -0.0372 -0.8188
 9013TIP3    H248531   5.454   5.294   0.373 -1.9769 -0.9921  0.5685
 9014TIP3   OH248532   0.964   1.535   3.080 -0.2085  0.4232  0.1055
 9014TIP3    H148533   1.021   1.542   3.156 -1.5667  1.0423  1.1139
 9014TIP3    H248534   0.880   1.505   3.115 -0.3878 -1.0783 -1.4048
 9015TIP3   OH248535   5.094   6.573   5.676 -0.3442  0.1204  0.0222
 9015TIP3    H148536   5.117   6.500   5.732  2.0882  0.2487 -0.6928
 9015TIP3    H248537   5.027   6.621   5.724 -0.1492 -1.1602  1.6385
 9016TIP3   OH248538   5.116   3.837  14.019 -0.2138 -0.7662  0.0144
 9016TIP3    H148539   5.192   3.891  14.040 -1.0209  0.2534  0.4393
 9016TIP3    H248540   5.151   3.765  13.966  1.1691 -0.8386  0.9763
 9017TIP3   OH248541   2.762   0.174   6.306  0.3473 -0.0593  0.0412
 9017TIP3    H148542   2.806   0.258   6.321  0.8452 -0.6003  1.8584
 9017TIP3    H248543   2.834   0.113   6.289  0.1541 -0.5381  0.9115
 9018TIP3   OH248544   3.510   5.762  11.587  0.1330 -0.3072  0.3296
 9018TIP3    H148545   3.513   5.722  11.674 -0.7162  0.0039  0.5096
 9018TIP3    H248546   3.587   5.727  11.543  0.5253 -0.5447  1.1736
 9019TIP3   OH248547   6.661   6.003   4.072 -0.2178  0.3302 -1.1785
 9019TIP3    H148548   6.743   5.964   4.042  0.1262  0.4940 -0.4802
 9019TIP3    H248549   6.609   5.929   4.102  0.3948  0.3733  0.0503
 9020TIP3   OH248550   5.770   4.962  16.144 -0.0132 -0.6722  0.5194
 9020TIP3    H148551   5.700   4.917  16.098 -1.3329  2.5642 -0.9207
 9020TIP3    H248552   5.842   4.967  16.081 -0.4691  0.5651  0.0743
 9021TIP3   OH248553   4.552   2.976   5.917 -0.6175 -0.3450  0.3996
 9021TIP3    H148554   4.587   2.912   5.979 -2.2967  0.9113  2.8043
 9021TIP3    H248555   4.620   3.043   5.911 -1.0708  0.3480  2.2812
 9022TIP3   OH248556   3.797   3.376   0.125  0.4136 -0.1875  0.6487
 9022TIP3    H148557   3.876   3.352   0.174 -0.1321 -0.8083  1.2424
 9022TIP3    H248558   3.760   3.292   0.097  0.6062  0.1476 -0.6795
 9023TIP3   OH248559   5.109   4.133  12.352 -0.9424 -0.6229  0.0233
 9023TIP3    H148560   5.051   4.116  12.426 -1.3741 -2.4754 -0.6780
 9023TIP3    H248561   5.055   4.180  12.289 -0.9092 -0.0421  0.4303
 9024TIP3   OH248562   5.100   0.854   0.544 -0.0356  0.1140 -0.2437
 9024TIP3    H148563   5.039   0.781   0.548 -1.3320  1.1526 -0.4942
 9024TIP3    H248564   5.130   0.856   0.453  0.6902 -0.6213 -0.0357
 9025TIP3   OH248565   5.150   2.581  15.823 -0.0165  0.2311 -0.4482
 9025TIP3    H148566   5.154   2.581  15.727  1.0872 -1.3320 -0.4422
 9025TIP3    H248567   5.056   2.573  15.842 -0.2749  0.8210 -1.3787
 9026TIP3   OH248568   1.670   0.386   1.254  0.3561  0.2638 -0.3108
 9026TIP3    H148569   1.729   0.384   1.329  1.3379 -1.1325 -1.0686
 9026TIP3    H248570   1.713   0.443   1.191 -1.0185  2.3738  0.5461
 9027TIP3   OH248571   1.055   1.160   0.825  0.2377 -0.6816 -0.4182
 9027TIP3    H148572   1.049   1.065   0.829  2.2377 -0.8164  0.2900
 9027TIP3    H248573   1.146   1.178   0.802  0.6429  1.0468  2.0662
 9028TIP3   OH248574   4.507   3.724  11.374  0.6044  0.1671 -0.3027
 9028TIP3    H148575   4.576   3.782  11.341  1.2886 -2.2781 -3.5948
 9028TIP3    H248576   4.548   3.638  11.381 -1.5422 -0.9300 -0.2080
 9029TIP3   OH248577   4.734   0.756  14.677 -0.0291 -0.3241  0.0179
 9029TIP3    H148578   4.736   0.703  14.597 -0.3111 -0.7433  0.2812
 9029TIP3    H248579   4.644   0.790  14.681  0.6305  1.7177 -1.1245
 9030TIP3   OH248580   0.561   6.074  13.097 -0.2241  0.1104  0.0460
 9030TIP3    H148581   0.529   5.990  13.064 -0.5829  0.0794  0.4724
 9030TIP3    H248582   0.617   6.051  13.171 -0.6468  0.2741  0.4139
 9031TIP3   OH248583   4.430   1.190  15.505 -0.3255  0.5757  0.4097
 9031TIP3    H148584   4.496   1.252  15.536  0.3972 -0.3300  0.7261
 9031TIP3    H248585   4.430   1.201  15.410  2.4167 -1.4132  0.0766
 9032TIP3   OH248586   1.886   5.065   1.967 -0.0510  0.2557  0.5732
 9032TIP3    H148587   1.972   5.094   1.998 -0.8531  2.0038  1.3212
 9032TIP3    H248588   1.871   5.116   1.887  0.2752 -1.2648 -0.5030
 9033TIP3   OH248589   2.368   5.975  17.227  0.0681 -0.3874  0.1533
 9033TIP3    H148590   2.309   6.032  17.276 -1.7258 -1.9938 -0.0368
 9033TIP3    H248591   2.343   5.988  17.135  0.8132 -0.2320 -0.0348
 9034TIP3   OH248592   6.283   1.102   0.494 -0.5397  0.0499  0.3985
 9034TIP3    H148593   6.269   1.121   0.587 -0.5995  0.8243  0.2418
 9034TIP3    H248594   6.377   1.090   0.485 -0.5795 -0.4379  0.6305
 9035TIP3   OH248595   4.503   6.448   2.051  0.1370  0.0847  0.4843
 9035TIP3    H148596   4.589   6.412   2.072 -0.3491 -2.3420 -1.1879
 9035TIP3    H248597   4.506   6.465   1.957 -1.0564  0.4282  0.4876
 9036TIP3   OH248598   0.562   4.961  14.448  0.7913 -0.4031  0.7308
 9036TIP3    H148599   0.644   4.926  14.484  0.6387 -1.7465 -0.1460
 9036TIP3    H248600   0.522   5.007  14.521  2.2861  0.2181  1.1984
 9037TIP3   OH248601   6.650   6.066   2.113  0.8857  0.4158 -0.1661
 9037TIP3    H148602   6.715   6.041   2.180 -1.2806  0.7320  2.2128
 9037TIP3    H248603   6.681   6.150   2.080  1.6147  0.6437  1.0388
 9038TIP3   OH248604   5.769   6.450   2.072  0.3739  0.1808 -0.1655
 9038TIP3    H148605   5.769   6.546   2.066  2.5671  0.2264 -0.3693
 9038TIP3    H248606   5.772   6.432   2.166  1.3304  0.3737 -0.1466
 9039TIP3   OH248607   5.965   4.473  13.511  0.0748 -0.4332  0.1257
 9039TIP3    H148608   5.904   4.399  13.505 -0.1649 -0.2088 -0.2306
 9039TIP3    H248609   6.032   4.454  13.446 -0.5328  0.1633 -0.6842
 9040TIP3   OH248610   2.156   1.995  11.787  0.1207  0.1514  0.4940
 9040TIP3    H148611   2.188   1.963  11.872  1.9513 -1.6519 -0.7750
 9040TIP3    H248612   2.123   1.916  11.744 -2.0991  1.2720  0.0072
 9041TIP3   OH248613   0.045   3.787  14.794 -0.2864  0.5457 -0.1665
 9041TIP3    H148614   0.059   3.766  14.702 -0.4627  0.0807 -0.0908
 9041TIP3    H248615   0.104   3.727  14.841 -0.1290  0.8417  0.0213
 9042TIP3   OH248616   5.190   5.882  10.490 -0.6236  0.3707 -0.4543
 9042TIP3    H148617   5.263   5.860  10.432  0.3657  0.5745  0.6686
 9042TIP3    H248618   5.138   5.802  10.494  1.2728 -0.9080  1.1844
 9043TIP3   OH248619   5.322   3.807  16.971  0.0191  0.1932 -0.4450
 9043TIP3    H148620   5.316   3.851  16.886  2.4955 -0.2765 -0.9256
 9043TIP3    H248621   5.384   3.860  17.021 -0.4383 -0.2524  0.6206
 9044TIP3   OH248622   3.452   2.426  12.016  0.3670  0.1915 -0.4404
 9044TIP3    H148623   3.382   2.487  12.038 -0.3031 -0.8958  0.5479
 9044TIP3    H248624   3.531   2.480  12.013 -0.0282  0.9650  1.4685
 9045TIP3   OH248625   6.104   2.095  14.044  0.0454 -0.1346 -0.2931
 9045TIP3    H148626   6.067   2.137  13.966 -0.0027  0.9681  0.3043
 9045TIP3    H248627   6.187   2.057  14.014  0.0797  0.3773 -0.8547
 9046TIP3   OH248628   4.420   5.802  11.999 -0.1897 -0.3354 -0.2752
 9046TIP3    H148629   4.434   5.834  12.089  1.2255 -0.1107 -0.5556
 9046TIP3    H248630   4.478   5.856  11.945 -0.5614 -0.8909 -1.2544
 9047TIP3   OH248631   3.873   3.132   2.097  0.1423  0.0646 -0.3994
 9047TIP3    H148632   3.858   3.046   2.138 -0.3759  0.0130 -0.6797
 9047TIP3    H248633   3.960   3.126   2.059  1.4952  0.7730  2.3299
 9048TIP3   OH248634   3.227   5.140   3.313 -0.1312  0.1834  0.0560
 9048TIP3    H148635   3.245   5.099   3.228 -0.5524 -0.4353  0.2601
 9048TIP3    H248636   3.211   5.232   3.292 -0.5389 -0.0258 -0.5750
 9049TIP3   OH248637   6.678   3.730  16.385  0.2554  0.3337  0.4502
 9049TIP3    H148638   6.640   3.729  16.473 -1.2332 -0.0856 -0.1776
 9049TIP3    H248639   6.622   3.673  16.333  2.0711 -0.7892 -0.4109
 9050TIP3   OH248640   4.450   4.935  16.614  0.0975 -0.4089  0.3285
 9050TIP3    H148641   4.386   4.994  16.572  0.9582 -0.0320 -0.4902
 9050TIP3    H248642   4.513   4.915  16.545  0.4915 -1.3398  0.9347
 9051TIP3   OH248643   1.427   0.049   4.150  0.1445 -0.0963  0.3751
 9051TIP3    H148644   1.379   0.073   4.070 -0.4188 -1.6903  0.1831
 9051TIP3    H248645   1.461  -0.039   4.131  0.1293 -0.4336  1.8215
 9052TIP3   OH248646   2.903   4.892   2.521 -0.1747  0.1924 -0.1207
 9052TIP3    H148647   2.971   4.955   2.497 -0.5593  0.9563  0.7652
 9052TIP3    H248648   2.849   4.938   2.585 -0.2784 -1.1517  0.7876
 9053TIP3   OH248649   3.725   3.380  11.370  0.3439  0.4353  0.2485
 9053TIP3    H148650   3.668   3.456  11.358 -1.4463 -0.5593  1.7946
 9053TIP3    H248651   3.702   3.321  11.298  0.1015  0.4381  0.3224
 9054TIP3   OH248652   6.095   0.155   5.613 -0.4796 -0.2220 -0.1759
 9054TIP3    H148653   6.120   0.237   5.656 -1.9984 -0.1795  0.7177
 9054TIP3    H248654   6.000   0.162   5.603 -0.9964 -2.7191  1.8397
 9055TIP3   OH248655   2.485   6.314  13.612  0.2174  0.0614 -0.3602
 9055TIP3    H148656   2.450   6.388  13.562 -0.8222 -0.8339 -1.0191
 9055TIP3    H248657   2.484   6.344  13.703  0.1727  0.9849 -0.6517
 9056TIP3   OH248658   2.331   4.994  12.840  0.2851  0.0964 -0.2256
 9056TIP3    H148659   2.420   4.975  12.870  0.5958  1.3671 -0.2676
 9056TIP3    H248660   2.279   4.994  12.920 -0.0317 -2.2365 -0.3570
 9057TIP3   OH248661   4.901   5.187  11.126 -0.2536 -0.3218  0.6352
 9057TIP3    H148662   4.843   5.224  11.059  0.7330 -0.5754 -0.4125
 9057TIP3    H248663   4.937   5.108  11.085 -1.1369 -1.6144  2.2403
 9058TIP3   OH248664   1.034   2.710  13.163 -0.3337  0.0676 -0.7302
 9058TIP3    H148665   0.965   2.651  13.132 -0.1483 -0.9112  0.5988
 9058TIP3    H248666   0.991   2.795  13.170 -1.7118 -0.6944  0.9032
 9059TIP3   OH248667   4.991   0.971  11.905 -0.0764  0.6220 -0.2824
 9059TIP3    H148668   5.023   0.946  11.991 -0.8727  0.2272 -0.0910
 9059TIP3    H248669   4.945   0.893  11.872  1.8835  0.0737 -1.9219
 9060TIP3   OH248670   5.010   5.156   2.150  0.0072  0.6311  0.2139
 9060TIP3    H148671   5.018   5.157   2.055  0.0868 -0.0954  0.2038
 9060TIP3    H248672   4.982   5.244   2.173  2.4116  1.6071 -0.2678
 9061TIP3   OH248673   2.849   5.460  13.874 -0.6281 -0.4304 -0.4472
 9061TIP3    H148674   2.892   5.474  13.958  0.5958 -0.4801 -1.0503
 9061TIP3    H248675   2.796   5.381  13.887 -0.1805 -0.6363  0.1800
 9062TIP3   OH248676   1.648   3.335   2.293  0.9256  0.0766 -0.7550
 9062TIP3    H148677   1.571   3.356   2.346  1.8480 -0.1025  0.7167
 9062TIP3    H248678   1.634   3.245   2.264  1.4265 -0.6882  1.1776
 9063TIP3   OH248679   2.637   3.964   4.862  0.0861 -0.4563  0.0370
 9063TIP3    H148680   2.583   3.984   4.786 -0.7251  0.5381  0.8462
 9063TIP3    H248681   2.726   3.986   4.835 -0.0193 -1.2564 -1.0115
 9064TIP3   OH248682   1.043   2.974   3.017 -0.6249  0.0589 -0.5456
 9064TIP3    H148683   1.106   3.013   2.957 -0.1448 -0.0908 -0.1443
 9064TIP3    H248684   1.000   3.049   3.059  2.0596  0.2920  2.1153
 9065TIP3   OH248685   4.570   6.102  13.153  0.1659 -0.5890 -0.9345
 9065TIP3    H148686   4.588   6.140  13.239 -0.4877 -0.8097 -0.6951
 9065TIP3    H248687   4.476   6.115  13.140 -0.5220 -3.8558  0.0176
 9066TIP3   OH248688   0.463   4.869   5.678  0.4568 -0.0514 -0.1423
 9066TIP3    H148689   0.458   4.932   5.750 -0.9201  0.8555 -0.9646
 9066TIP3    H248690   0.507   4.793   5.714  1.4968  1.1069  1.1078
 9067TIP3   OH248691   4.227   4.406   0.775 -0.6521 -0.9605  0.1969
 9067TIP3    H148692   4.245   4.338   0.711 -0.6158 -0.2815 -0.5318
 9067TIP3    H248693   4.225   4.360   0.859 -2.0166 -2.0841 -0.4044
 9068TIP3   OH248694   4.702   4.978  12.687  0.1212 -0.2163  0.1298
 9068TIP3    H148695   4.709   5.040  12.616 -0.8602 -0.0613  0.1478
 9068TIP3    H248696   4.652   5.024  12.755 -0.4749 -0.9567  0.2068
 9069TIP3   OH248697   2.987   0.291  15.866  0.1201 -0.0531 -0.5182
 9069TIP3    H148698   2.993   0.376  15.911  1.5778 -1.4025  2.0519
 9069TIP3    H248699   2.935   0.309  15.788 -0.7803  2.9184  0.6338
 9070TIP3   OH248700   5.121   5.924  16.134  0.5132  0.5381 -0.2574
 9070TIP3    H148701   5.089   5.908  16.045  3.1162  1.0836 -1.4083
 9070TIP3    H248702   5.091   6.012  16.155 -1.9178 -0.3664  0.3399
 9071TIP3   OH248703   2.099   4.959  11.971 -0.0333 -0.1225  0.0507
 9071TIP3    H148704   2.005   4.945  11.986  0.3904 -1.1813  2.0938
 9071TIP3    H248705   2.130   4.999  12.052  1.6370 -1.7270  0.2683
 9072TIP3   OH248706   1.495   0.697  11.639 -0.2965 -0.0969 -0.3177
 9072TIP3    H148707   1.513   0.705  11.733  0.9374 -1.7691 -0.3630
 9072TIP3    H248708   1.401   0.683  11.634 -0.4394  0.3986  0.6360
 9073TIP3   OH248709   2.075   4.808  11.193  0.4426 -0.3861  0.4454
 9073TIP3    H148710   2.099   4.892  11.233 -1.0371  0.8431 -1.1068
 9073TIP3    H248711   2.049   4.831  11.104 -0.6166 -2.4157  0.1879
 9074TIP3   OH248712   2.843   4.145   5.443 -0.2593 -0.1634 -0.2768
 9074TIP3    H148713   2.798   4.064   5.421  0.7839 -0.5941 -0.9146
 9074TIP3    H248714   2.932   4.117   5.465 -0.0986  0.7334  0.2674
 9075TIP3   OH248715   6.028   2.886   2.733  0.1607  0.6945  0.1651
 9075TIP3    H148716   5.976   2.813   2.766  0.7367 -0.1349 -0.7214
 9075TIP3    H248717   6.118   2.854   2.734  0.4408  1.4619 -0.0547
 9076TIP3   OH248718   0.260   2.078   4.722  0.8898 -0.3633  0.1005
 9076TIP3    H148719   0.175   2.036   4.715 -0.7171  2.1247  2.7171
 9076TIP3    H248720   0.266   2.132   4.643 -0.6024  0.4250  0.4884
 9077TIP3   OH248721   5.229   5.431  12.688  0.6795  0.6175  0.0690
 9077TIP3    H148722   5.149   5.457  12.643  0.0372 -1.4741 -0.1402
 9077TIP3    H248723   5.284   5.394  12.618  1.0629  0.4028  0.4817
 9078TIP3   OH248724   0.056   1.110   3.720  0.0079  0.5020  0.3464
 9078TIP3    H148725   0.117   1.183   3.718 -0.2791  0.8352  2.0281
 9078TIP3    H248726   0.018   1.114   3.808 -3.4447  1.1716 -1.0097
 9079TIP3   OH248727   4.908   0.880  12.948  0.1195  0.3494 -0.0411
 9079TIP3    H148728   4.872   0.929  12.874 -1.3780 -2.1540 -1.1264
 9079TIP3    H248729   5.002   0.879  12.933  0.0749  1.8724 -0.5836
 9080TIP3   OH248730   2.218   1.081   2.252  0.6216  0.3052  0.2103
 9080TIP3    H148731   2.286   1.026   2.292  2.7408  2.5559 -0.0333
 9080TIP3    H248732   2.255   1.105   2.166 -1.2987  0.1875 -0.6891
 9081TIP3   OH248733   6.485   0.935  12.679 -0.4195 -0.3858 -0.2833
 9081TIP3    H148734   6.436   0.963  12.602 -1.1500 -1.4036 -0.1975
 9081TIP3    H248735   6.556   0.882  12.644 -0.4931 -0.4856 -0.2803
 9082TIP3   OH248736   4.858   1.961  14.287  0.3419 -0.4578 -0.1384
 9082TIP3    H148737   4.890   2.050  14.302  1.0704 -0.9274  1.2586
 9082TIP3    H248738   4.833   1.930  14.374 -1.7756 -0.9472 -0.8699
 9083TIP3   OH248739   4.325   4.304   6.210  0.7132 -0.3298 -1.0215
 9083TIP3    H148740   4.258   4.318   6.144  0.7812 -2.1910 -1.5396
 9083TIP3    H248741   4.280   4.317   6.294  0.2030  0.3195 -1.3864
 9084TIP3   OH248742   4.712   1.780  11.530 -0.0287  0.1595  0.3763
 9084TIP3    H148743   4.740   1.707  11.475 -4.1995  0.4643 -2.6196
 9084TIP3    H248744   4.632   1.749  11.573  0.1079  1.8055  1.9289
 9085TIP3   OH248745   0.552   1.161   4.130  0.7040  0.1058 -0.2494
 9085TIP3    H148746   0.525   1.098   4.197 -0.5652  0.6447 -0.2282
 9085TIP3    H248747   0.646   1.172   4.144  0.7099 -0.8054  0.5672
 9086TIP3   OH248748   4.090   6.430   4.350  0.2370  0.2042 -0.2788
 9086TIP3    H148749   4.161   6.473   4.303  0.0953  1.9566  1.0057
 9086TIP3    H248750   4.014   6.486   4.336  0.0561  0.4606  1.5182
 9087TIP3   OH248751   3.842   0.096   0.674 -0.1132  0.0508 -0.2120
 9087TIP3    H148752   3.766   0.131   0.627 -0.0794  1.6800  0.8497
 9087TIP3    H248753   3.863   0.015   0.628 -1.7870  0.1394 -1.2371
 9088TIP3   OH248754   2.842   2.480   0.568 -0.0114 -0.0734  0.8352
 9088TIP3    H148755   2.761   2.429   0.576 -1.0150  1.0272 -1.4191
 9088TIP3    H248756   2.826   2.539   0.494  2.4171  1.0475  1.1075
 9089TIP3   OH248757   6.724   6.291  12.951 -0.2338 -0.3260 -0.8588
 9089TIP3    H148758   6.804   6.344  12.946  0.3838 -0.9041  1.6025
 9089TIP3    H248759   6.659   6.349  12.989 -0.4521 -0.4097 -1.1032
 9090TIP3   OH248760   1.178   5.998   4.649  0.1128  0.0215  0.0868
 9090TIP3    H148761   1.124   6.003   4.727 -0.7651  2.1511 -0.5821
 9090TIP3    H248762   1.216   6.086   4.640  1.6795 -0.7050 -0.8713
 9091TIP3   OH248763   5.806   0.297  14.012  0.0868 -0.1048  0.2736
 9091TIP3    H148764   5.719   0.256  14.017  0.7046 -1.5195 -0.0797
 9091TIP3    H248765   5.867   0.227  14.036  1.1777  0.7072 -0.0514
 9092TIP3   OH248766   3.122   3.689   5.712 -0.4138  0.4490 -0.4399
 9092TIP3    H148767   3.141   3.682   5.805 -2.3759 -1.9139 -0.1152
 9092TIP3    H248768   3.044   3.743   5.707 -1.0001 -0.3892 -0.5748
 9093TIP3   OH248769   2.636   6.425   3.035 -0.1982 -0.0362  1.1801
 9093TIP3    H148770   2.619   6.467   2.951 -1.5615 -1.5762  0.6537
 9093TIP3    H248771   2.713   6.371   3.020 -0.5142 -0.4062  0.8856
 9094TIP3   OH248772   1.737   3.373  12.162 -0.3414 -0.0816 -0.3157
 9094TIP3    H148773   1.658   3.403  12.206 -0.7484 -0.5817 -0.6905
 9094TIP3    H248774   1.753   3.286  12.198  0.2698  0.1791  0.0514
 9095TIP3   OH248775   2.375   2.915   5.862 -0.0249  0.7631  0.2002
 9095TIP3    H148776   2.303   2.931   5.923 -0.4611 -1.5595  0.3853
 9095TIP3    H248777   2.378   2.819   5.853  2.1139  0.8788 -0.9285
 9096TIP3   OH248778   0.274   2.083   4.431 -0.1079  0.0266  0.0550
 9096TIP3    H148779   0.369   2.084   4.446 -0.1068 -0.4807  0.1020
 9096TIP3    H248780   0.265   2.106   4.338  0.0612  0.1237  0.0627
 9097TIP3   OH248781   4.585   1.458   5.762  0.2636  0.0215 -0.1689
 9097TIP3    H148782   4.670   1.416   5.748  0.5552  0.1910  0.9520
 9097TIP3    H248783   4.531   1.389   5.801  0.1993  0.1894  0.0395
 9098TIP3   OH248784   3.330   2.728  13.343 -0.3697 -0.5675  0.3722
 9098TIP3    H148785   3.273   2.749  13.416 -1.0697 -0.4852 -0.1872
 9098TIP3    H248786   3.271   2.699  13.273  0.1624  0.5458 -0.5813
 9099TIP3   OH248787   2.028   3.378   4.151 -0.1895  0.1311  0.3113
 9099TIP3    H148788   2.064   3.454   4.196  2.1330 -0.5108 -0.3512
 9099TIP3    H248789   2.072   3.303   4.190  0.7292 -0.5544 -1.8680
 9100TIP3   OH248790   4.353   5.584  13.224 -0.1730  0.0009 -0.1789
 9100TIP3    H148791   4.337   5.517  13.291  1.2542  0.6296  0.8197
 9100TIP3    H248792   4.448   5.596  13.224 -0.2834  1.0068 -1.3562
 9101TIP3   OH248793   1.096   4.170  17.008  0.2285  0.0435 -0.1560
 9101TIP3    H148794   1.023   4.196  17.064 -0.0378 -1.0027 -0.0051
 9101TIP3    H248795   1.061   4.100  16.953  0.8895  0.0874 -0.6527
 9102TIP3   OH248796   3.759   5.729   0.895  0.3346 -0.0323  0.1672
 9102TIP3    H148797   3.766   5.709   0.989 -2.9338  1.4252  0.8585
 9102TIP3    H248798   3.820   5.801   0.881 -1.2199  1.7767  1.9844
 9103TIP3   OH248799   4.636   1.372  17.072 -0.1599 -0.1814  0.0681
 9103TIP3    H148800   4.621   1.348  17.163  0.7762 -0.8284  0.0673
 9103TIP3    H248801   4.686   1.453  17.076  1.6508 -1.2446  0.2059
 9104TIP3   OH248802   4.428   2.965   5.686 -0.1086  0.2614 -0.7965
 9104TIP3    H148803   4.395   2.875   5.682  1.6483 -0.3868 -2.2192
 9104TIP3    H248804   4.469   2.971   5.772 -0.4480 -0.2356 -0.5935
 9105TIP3   OH248805   3.967   2.329   4.628 -1.0168  0.5204  0.1350
 9105TIP3    H148806   4.015   2.289   4.701  1.1327  3.1533  0.2842
 9105TIP3    H248807   4.003   2.417   4.620 -1.8020  0.6617 -3.5868
 9106TIP3   OH248808   2.602   2.332   5.804 -0.2458  0.4363  0.0957
 9106TIP3    H148809   2.668   2.387   5.847 -1.6476  0.8258  1.8759
 9106TIP3    H248810   2.638   2.244   5.807  1.4175  1.0168 -1.5338
 9107TIP3   OH248811   0.036   2.013  12.542  0.0915 -0.1298  0.7587
 9107TIP3    H148812   0.010   1.946  12.478 -0.8969  0.0486  0.9554
 9107TIP3    H248813   0.119   1.981  12.578  1.4047  0.4255 -1.5614
 9108TIP3   OH248814   0.049   4.933   2.069  0.2153 -0.0942 -0.3497
 9108TIP3    H148815  -0.035   4.978   2.057  0.3095 -0.3150 -2.0230
 9108TIP3    H248816   0.030   4.864   2.132 -1.5446 -1.8008 -2.5864
 9109TIP3   OH248817   0.627   6.217  15.152 -0.4594 -0.4518  0.4728
 9109TIP3    H148818   0.645   6.140  15.099 -1.2863 -0.1583 -0.2515
 9109TIP3    H248819   0.713   6.244  15.185 -0.1586 -1.6119  0.6528
 9110TIP3   OH248820   3.131   1.757   5.102  0.0001  0.3615 -0.1309
 9110TIP3    H148821   3.138   1.663   5.117  0.8961  0.3883 -0.3394
 9110TIP3    H248822   3.036   1.774   5.097 -0.1634 -0.5223 -0.1064
 9111TIP3   OH248823   3.159   0.643   5.387 -0.4788  0.6555  0.2248
 9111TIP3    H148824   3.154   0.554   5.351 -2.6243  1.0037 -0.4627
 9111TIP3    H248825   3.205   0.693   5.319  0.4468  0.1644  0.4704
 9112TIP3   OH248826   6.320   5.373  14.097  0.3175  0.4232 -0.2190
 9112TIP3    H148827   6.360   5.323  14.026 -1.0415 -0.6929 -0.2608
 9112TIP3    H248828   6.345   5.326  14.177 -0.2772  0.1282 -0.1931
 9113TIP3   OH248829   5.828   6.628   4.546  0.3100 -0.2315  0.4543
 9113TIP3    H148830   5.767   6.622   4.473 -0.1480 -0.9439  0.8846
 9113TIP3    H248831   5.801   6.706   4.594  0.5735  0.2039 -0.0918
 9114TIP3   OH248832   2.762   4.266  16.535  0.0137  0.0943  0.1034
 9114TIP3    H148833   2.747   4.171  16.531  2.3483 -0.6364  3.7348
 9114TIP3    H248834   2.745   4.289  16.626  3.7847  2.1994  0.4824
 9115TIP3   OH248835   4.106   3.318   3.680  0.1626  0.4258  0.4419
 9115TIP3    H148836   4.115   3.385   3.612  1.9958 -0.0562  0.1439
 9115TIP3    H248837   4.104   3.235   3.631  1.9841  0.0433  0.9358
 9116TIP3   OH248838   6.133   3.348  15.461 -0.6396  0.1164 -0.3174
 9116TIP3    H148839   6.138   3.382  15.372 -1.5055 -1.8403 -1.1660
 9116TIP3    H248840   6.040   3.351  15.483 -0.7189 -1.4571 -0.3575
 9117TIP3   OH248841   1.311   0.066   3.884 -0.7661 -0.0782  0.3426
 9117TIP3    H148842   1.391   0.013   3.881  0.6071  1.8703  0.3032
 9117TIP3    H248843   1.298   0.093   3.793 -1.4665 -0.3695  0.3559
 9118TIP3   OH248844   5.395   0.430   3.041 -0.1867  0.3596  0.3381
 9118TIP3    H148845   5.349   0.405   2.961 -0.4619  0.2129  0.5370
 9118TIP3    H248846   5.487   0.427   3.018 -0.1824 -1.1484  0.4261
 9119TIP3   OH248847   6.577   4.774   0.917  0.1006 -0.0640 -0.4151
 9119TIP3    H148848   6.497   4.820   0.942  0.4064  0.1732  0.1220
 9119TIP3    H248849   6.564   4.685   0.949 -0.2289 -0.1955 -0.9116
 9120TIP3   OH248850   5.015   6.794   3.588 -0.3918 -0.2930  0.2758
 9120TIP3    H148851   5.012   6.888   3.601 -1.6795 -0.1248 -0.9390
 9120TIP3    H248852   5.045   6.758   3.671 -0.3575  1.1498  0.8989
 9121TIP3   OH248853   2.794   6.416  15.946 -0.0377  0.1563 -0.2830
 9121TIP3    H148854   2.844   6.434  15.866  0.4636  1.3243  0.2748
 9121TIP3    H248855   2.786   6.321  15.948 -0.9438  0.1294 -2.2527
 9122TIP3   OH248856   5.832   4.733  12.631  0.1653  0.3403  0.1168
 9122TIP3    H148857   5.759   4.761  12.575  0.3926  1.7522  0.4855
 9122TIP3    H248858   5.881   4.671  12.577 -0.9452 -0.1433 -0.3671
 9123TIP3   OH248859   0.512   5.986   3.212  0.1732  0.4846  0.2742
 9123TIP3    H148860   0.433   6.036   3.232 -0.1000 -0.7872  2.8317
 9123TIP3    H248861   0.483   5.921   3.147 -0.2957  1.4411 -0.4950
 9124TIP3   OH248862   3.256   3.206  11.376  0.2452 -0.7279 -0.0341
 9124TIP3    H148863   3.350   3.192  11.382  0.1454 -1.3970 -0.0177
 9124TIP3    H248864   3.243   3.244  11.288  0.5261 -0.6035 -0.0230
 9125TIP3   OH248865   3.567   5.424  15.465  0.2362 -0.2142  0.3619
 9125TIP3    H148866   3.514   5.403  15.542 -1.9985  0.7724 -0.8265
 9125TIP3    H248867   3.514   5.395  15.391  1.8970 -0.2302 -0.8718
 9126TIP3   OH248868   0.018   5.090  14.610  0.1570 -0.1178 -0.2532
 9126TIP3    H148869  -0.031   5.039  14.674  0.3527  0.3986  0.3226
 9126TIP3    H248870   0.077   5.027  14.568 -2.5154 -1.2816 -2.6004
 9127TIP3   OH248871   1.834   4.791  11.554  0.2939 -0.0062 -0.0548
 9127TIP3    H148872   1.927   4.775  11.540  0.0904 -0.0265 -1.5331
 9127TIP3    H248873   1.809   4.853  11.486 -1.1304 -1.2748 -0.7637
 9128TIP3   OH248874   5.185   1.298  11.754 -0.1894 -0.5575 -0.8036
 9128TIP3    H148875   5.209   1.345  11.835  1.6618 -1.3104 -0.8743
 9128TIP3    H248876   5.091   1.285  11.762 -0.4884  1.6441  0.0235
 9129TIP3   OH248877   6.638   4.391  13.572  0.4969 -0.5070  0.2605
 9129TIP3    H148878   6.605   4.341  13.647 -1.1145 -1.1098 -0.7870
 9129TIP3    H248879   6.593   4.352  13.496  0.2077  1.6483 -0.7499
 9130TIP3   OH248880   4.432   2.199   5.741 -0.2021 -0.1613 -0.0437
 9130TIP3    H148881   4.349   2.151   5.751 -0.7769  1.1685  2.0338
 9130TIP3    H248882   4.497   2.130   5.724 -1.6424 -1.2622 -1.5032
 9131TIP3   OH248883   0.498   4.414   2.382 -0.2703 -0.6267  0.5462
 9131TIP3    H148884   0.451   4.497   2.388  1.0878  0.3089 -1.1590
 9131TIP3    H248885   0.590   4.437   2.393 -0.0020 -2.2189  2.1526
 9132TIP3   OH248886   2.960   3.782  12.965 -0.2002  0.3434  0.1099
 9132TIP3    H148887   3.049   3.815  12.970  0.3225 -0.8902 -0.5444
 9132TIP3    H248888   2.953   3.720  13.038  0.3563 -1.4932 -1.3364
 9133TIP3   OH248889   6.061   5.973   0.022 -0.2333 -0.3681 -0.7225
 9133TIP3    H148890   5.970   5.970  -0.009  0.1859 -2.5336 -1.8876
 9133TIP3    H248891   6.055   5.953   0.116 -0.8929 -1.4856 -0.9861
 9134TIP3   OH248892   5.279   2.077  11.735  0.5226  0.5045 -0.1912
 9134TIP3    H148893   5.238   2.151  11.689 -0.1841 -0.7301 -1.6186
 9134TIP3    H248894   5.337   2.038  11.671  2.3161  0.8683  1.1258
 9135TIP3   OH248895   6.609   2.542   5.593  0.1991  0.0749 -0.3468
 9135TIP3    H148896   6.656   2.460   5.606  0.8070  0.3904 -0.4922
 9135TIP3    H248897   6.596   2.576   5.681 -0.8413 -0.6013 -0.2301
 9136TIP3   OH248898   4.758   5.846  17.064 -0.0562 -0.2957 -0.2175
 9136TIP3    H148899   4.829   5.783  17.053 -1.1160 -1.4101 -0.9162
 9136TIP3    H248900   4.768   5.908  16.992  0.1042 -0.5576 -0.4209
 9137TIP3   OH248901   2.668   4.999  14.024 -0.0803  0.0561  0.2333
 9137TIP3    H148902   2.607   5.020  14.094  0.5302 -2.6187  1.7028
 9137TIP3    H248903   2.754   4.995  14.066  0.2838 -1.7421 -0.5567
 9138TIP3   OH248904   5.568   0.170  16.073  0.1207  0.6744  0.4080
 9138TIP3    H148905   5.503   0.155  16.141 -0.3543  1.4906  0.1467
 9138TIP3    H248906   5.640   0.214  16.118  0.2058  0.3861  0.5601
 9139TIP3   OH248907   5.941   4.013  16.837 -0.1486 -0.7754 -0.4269
 9139TIP3    H148908   6.006   3.994  16.770 -0.9469  1.4202 -1.9429
 9139TIP3    H248909   5.977   4.087  16.885  0.1161 -1.9151  1.2035
 9140TIP3   OH248910   2.502   1.177   2.793  0.2948 -0.1051  0.6934
 9140TIP3    H148911   2.592   1.145   2.795  0.5837  0.6957  0.5059
 9140TIP3    H248912   2.486   1.198   2.701  1.0377  2.8572  1.1344
 9141TIP3   OH248913   1.117   0.257  11.604  0.2603 -0.1503 -0.1258
 9141TIP3    H148914   1.174   0.232  11.677  0.1564 -0.8630 -0.2822
 9141TIP3    H248915   1.140   0.197  11.533  2.0475  2.0439 -1.5392
 9142TIP3   OH248916   4.729   4.694   0.062  0.0697 -0.0327  0.2318
 9142TIP3    H148917   4.650   4.693   0.008 -0.2354  0.7489  0.6517
 9142TIP3    H248918   4.700   4.660   0.147  0.7115 -1.9985 -0.2815
 9143TIP3   OH248919   6.419   6.177  13.989 -0.1470 -0.1336  0.1527
 9143TIP3    H148920   6.446   6.242  13.924  1.7717 -0.5916  0.4403
 9143TIP3    H248921   6.394   6.229  14.066 -1.0407  0.3425 -0.4356
 9144TIP3   OH248922   4.442   2.964  13.123  1.0133 -0.7906 -0.5301
 9144TIP3    H148923   4.445   3.045  13.073 -2.4137  0.8060  1.4947
 9144TIP3    H248924   4.518   2.969  13.182  1.2953  0.5290 -0.9772
 9145TIP3   OH248925   6.163   3.401   0.183 -0.0455 -0.9705  0.0744
 9145TIP3    H148926   6.114   3.471   0.139 -0.8549 -2.5339 -1.6641
 9145TIP3    H248927   6.137   3.321   0.137  1.2371 -2.3716  1.6474
 9146TIP3   OH248928   2.412   1.701  14.780  0.1216 -0.2686 -0.3469
 9146TIP3    H148929   2.362   1.645  14.839  0.2212 -1.6040 -1.4811
 9146TIP3    H248930   2.410   1.788  14.821 -1.3005 -0.7705  0.6975
 9147TIP3   OH248931   2.706   5.690   5.014  0.1837  0.4042  0.2918
 9147TIP3    H148932   2.714   5.783   5.033 -1.3921  0.7277 -0.5303
 9147TIP3    H248933   2.615   5.677   4.989 -0.0941 -1.7012  2.0881
 9148TIP3   OH248934   4.214   3.802   6.414  0.1332 -0.4585 -1.1710
 9148TIP3    H148935   4.258   3.745   6.351  0.2132  0.1792 -1.6951
 9148TIP3    H248936   4.208   3.749   6.494  3.8679  0.1493 -0.2928
 9149TIP3   OH248937   3.912   4.369  13.502  0.4395 -0.0834  0.8955
 9149TIP3    H148938   3.864   4.399  13.579  0.1173 -0.5401  0.8836
 9149TIP3    H248939   3.881   4.279  13.489  0.5620 -0.0429  0.2920
 9150TIP3   OH248940   2.743   3.699  15.950  0.0691 -0.8254  0.0544
 9150TIP3    H148941   2.668   3.709  16.009 -0.3880 -0.5968 -0.5633
 9150TIP3    H248942   2.777   3.612  15.969 -0.8695 -1.2724 -0.2550
 9151TIP3   OH248943   5.887   6.527  14.433  0.0478 -0.2942 -0.0598
 9151TIP3    H148944   5.946   6.499  14.363  2.3009  1.7195  0.8898
 9151TIP3    H248945   5.839   6.601  14.396  1.1364  0.6780  0.3755
 9152TIP3   OH248946   2.714   6.352   0.178 -0.3237  0.6408 -0.2915
 9152TIP3    H148947   2.765   6.353   0.097 -1.5229  1.0385 -1.0642
 9152TIP3    H248948   2.655   6.277   0.169 -0.7262  0.9097  0.0342
 9153TIP3   OH248949   2.039   1.861   3.579  0.0616 -0.6815 -0.6876
 9153TIP3    H148950   2.013   1.949   3.605 -3.1808 -1.6720  0.0004
 9153TIP3    H248951   2.092   1.829   3.652 -0.5040  0.0039  0.0385
 9154TIP3   OH248952   5.828   2.791  14.794  0.2288  0.5771  0.6566
 9154TIP3    H148953   5.828   2.805  14.888 -0.9341  1.0012  0.6151
 9154TIP3    H248954   5.745   2.746  14.776 -0.5030  2.2211 -0.3661
 9155TIP3   OH248955   0.615   3.698  13.052 -0.0310 -0.2284 -0.3825
 9155TIP3    H148956   0.540   3.651  13.016 -1.1163  0.6944  0.5816
 9155TIP3    H248957   0.611   3.785  13.012  1.1403 -0.4877 -1.1031
 9156TIP3   OH248958   6.350   5.872  11.736 -0.3478  0.5662 -0.3455
 9156TIP3    H148959   6.279   5.877  11.672 -0.8568  0.8716  0.2384
 9156TIP3    H248960   6.397   5.955  11.727 -0.4349  0.6199 -0.3034
 9157TIP3   OH248961   2.579   3.262  13.404  0.1914  0.3280  0.0768
 9157TIP3    H148962   2.655   3.207  13.382 -1.2773 -1.6464 -0.3801
 9157TIP3    H248963   2.550   3.297  13.319 -0.9413 -1.1068 -0.1761
 9158TIP3   OH248964   0.710   2.645  16.434 -0.3318 -0.5242  0.3017
 9158TIP3    H148965   0.625   2.643  16.389 -0.5412  1.1370  0.5430
 9158TIP3    H248966   0.688   2.658  16.526  0.1689  1.5139  0.1797
 9159TIP3   OH248967   1.412   2.934  15.298 -0.6169  0.0379 -0.2757
 9159TIP3    H148968   1.477   2.999  15.270 -0.8747 -0.8921 -3.3659
 9159TIP3    H248969   1.337   2.948  15.240 -1.7670 -1.2730  0.8103
 9160TIP3   OH248970   0.618   0.833   4.903 -0.5257 -0.1209 -0.5612
 9160TIP3    H148971   0.713   0.825   4.913 -0.7016 -0.5431  1.0518
 9160TIP3    H248972   0.582   0.792   4.981 -1.9572  2.3502  0.1780
 9161TIP3   OH248973   0.105   2.224  12.965  0.6037 -0.8967  0.1240
 9161TIP3    H148974   0.139   2.158  12.904 -1.4974 -2.0384  0.0761
 9161TIP3    H248975   0.104   2.305  12.915 -1.5042 -1.8909 -1.6418
 9162TIP3   OH248976   4.378   2.271   3.679 -0.3450 -0.4083 -0.2735
 9162TIP3    H148977   4.382   2.235   3.767  0.8029 -0.7658 -0.4593
 9162TIP3    H248978   4.442   2.221   3.629  0.7448  1.3527 -0.7219
 9163TIP3   OH248979   3.014   2.832  15.932  0.7044 -0.5616 -0.2512
 9163TIP3    H148980   3.091   2.839  15.876  1.7504 -1.9924  0.9627
 9163TIP3    H248981   2.943   2.807  15.871  1.0922  1.0108 -1.4095
 9164TIP3   OH248982   3.803   2.989   5.033 -0.0556  0.1264 -0.2151
 9164TIP3    H148983   3.842   2.907   5.003  0.1067  0.4648 -0.9495
 9164TIP3    H248984   3.809   3.047   4.958 -0.7515  0.6148  0.0962
 9165TIP3   OH248985   5.825   6.721  11.444 -0.1446 -0.0812 -0.1571
 9165TIP3    H148986   5.741   6.678  11.460  0.0224 -0.9135 -1.4029
 9165TIP3    H248987   5.804   6.815  11.439 -0.8321 -0.1915  0.5433
 9166TIP3   OH248988   1.138   2.092  13.757 -0.2755 -0.4596  0.8526
 9166TIP3    H148989   1.160   2.162  13.819 -0.3578 -1.3842  1.9541
 9166TIP3    H248990   1.085   2.031  13.807  0.1917 -1.5677  0.0500
 9167TIP3   OH248991   2.607   6.387   3.502  0.5504 -0.1201 -0.4132
 9167TIP3    H148992   2.553   6.309   3.492 -1.9969  1.4559  0.0248
 9167TIP3    H248993   2.591   6.416   3.592  3.4457 -0.4297  0.2836
 9168TIP3   OH248994   0.982   5.849   0.172  0.2531 -0.1505  0.3816
 9168TIP3    H148995   0.965   5.943   0.172  0.8656  0.0889 -3.1975
 9168TIP3    H248996   0.935   5.816   0.095  1.3025 -2.5020  0.6698
 9169TIP3   OH248997   5.246   2.501  14.285 -0.6129 -0.0341 -0.2133
 9169TIP3    H148998   5.290   2.462  14.210 -1.2514 -0.7773 -0.2201
 9169TIP3    H248999   5.272   2.446  14.359  1.4441  1.7218  0.4787
 9170TIP3   OH249000   5.102   1.479   4.365  0.2510 -0.6137  0.3801
 9170TIP3    H149001   5.013   1.448   4.383  0.2325 -0.9913 -0.3180
 9170TIP3    H249002   5.136   1.505   4.450 -0.5673 -0.3672  0.6419
 9171TIP3   OH249003   5.163   3.313   1.351 -0.0644  0.6101  0.0246
 9171TIP3    H149004   5.161   3.247   1.281 -0.4295  0.6332  0.0110
 9171TIP3    H249005   5.247   3.298   1.395 -0.4319 -0.2920  0.4415
 9172TIP3   OH249006   1.274   0.362   3.928 -0.4241  0.6996  0.1900
 9172TIP3    H149007   1.246   0.304   3.857  3.1308 -0.5477 -0.4077
 9172TIP3    H249008   1.224   0.333   4.004 -1.7112 -0.3629 -1.0079
 9173TIP3   OH249009   2.630   6.441  12.235  0.7108 -0.3470  0.5815
 9173TIP3    H149010   2.600   6.485  12.314  2.2371  2.8780 -0.4675
 9173TIP3    H249011   2.587   6.488  12.164  1.2316 -1.5939 -0.6014
 9174TIP3   OH249012   1.425   0.411   4.434 -0.0583 -0.0172 -0.3775
 9174TIP3    H149013   1.346   0.425   4.381 -0.7596 -1.2393  0.2968
 9174TIP3    H249014   1.408   0.457   4.516  0.1960  0.2221 -0.4560
 9175TIP3   OH249015   1.999   2.958   6.514 -0.3585 -0.1552  0.1312
 9175TIP3    H149016   2.012   2.871   6.550 -0.1325  0.1576  0.8250
 9175TIP3    H249017   1.904   2.969   6.510 -0.5209 -1.6255 -2.9294
 9176TIP3   OH249018   2.945   0.320   5.388  0.2309 -0.0743  0.8855
 9176TIP3    H149019   2.920   0.412   5.391 -0.8989 -0.2460 -1.1708
 9176TIP3    H249020   2.866   0.272   5.411 -0.2881 -0.5381 -1.5388
 9177TIP3   OH249021   4.978   5.307  14.222 -0.2043  0.4578  0.3767
 9177TIP3    H149022   4.968   5.239  14.289  2.3282  0.1506  0.5214
 9177TIP3    H249023   4.907   5.369  14.240 -0.6413 -0.5084  2.2276
 9178TIP3   OH249024   0.332   6.272   1.748 -0.5851  0.0050 -0.3656
 9178TIP3    H149025   0.292   6.186   1.757 -1.1561  0.2915 -0.0956
 9178TIP3    H249026   0.274   6.331   1.798  0.2309  0.4124  0.1141
 9179TIP3   OH249027   0.585   5.302   1.798 -0.4905 -0.0380  0.1593
 9179TIP3    H149028   0.679   5.291   1.782 -0.4041  0.3619  0.3886
 9179TIP3    H249029   0.574   5.395   1.818 -0.9549 -0.0557  0.0065
 9180TIP3   OH249030   3.052   2.695  13.825  0.4117 -0.0794 -0.4509
 9180TIP3    H149031   3.016   2.772  13.868 -2.4727 -1.3884 -0.3218
 9180TIP3    H249032   2.981   2.631  13.824  2.1016 -2.1287 -2.1721
 9181TIP3   OH249033   0.818   5.472   0.296 -0.0999 -0.2495  0.1834
 9181TIP3    H149034   0.831   5.420   0.217 -3.4701 -0.1633 -0.5792
 9181TIP3    H249035   0.829   5.410   0.368 -1.9283 -1.5739 -0.6188
 9182TIP3   OH249036   6.267   4.803   0.558 -0.3610 -0.2974  0.0814
 9182TIP3    H149037   6.324   4.839   0.490 -0.2181  3.0193  1.7477
 9182TIP3    H249038   6.301   4.715   0.573  1.9761  0.2150 -1.5247
 9183TIP3   OH249039   3.412   0.879  16.872 -0.0680  0.4117 -0.4849
 9183TIP3    H149040   3.360   0.799  16.879 -0.9049  1.0281  0.4104
 9183TIP3    H249041   3.360   0.936  16.816  0.2459  0.5771 -0.6121
 9184TIP3   OH249042   5.791   0.880  16.130  0.6542 -0.7375 -0.0556
 9184TIP3    H149043   5.798   0.787  16.106  0.6378 -0.6320 -0.4850
 9184TIP3    H249044   5.751   0.921  16.053  0.6698 -0.3743  0.1302
 9185TIP3   OH249045   1.527   4.228   6.087 -0.0525 -0.0345  0.0566
 9185TIP3    H149046   1.497   4.187   6.006 -1.1041 -0.2457  0.5395
 9185TIP3    H249047   1.588   4.164   6.125 -1.2429 -0.9432  0.5158
 9186TIP3   OH249048   5.821   6.741  13.205 -0.7434 -0.3100 -0.3694
 9186TIP3    H149049   5.849   6.687  13.279 -2.9337 -0.3877  0.4792
 9186TIP3    H249050   5.808   6.828  13.243 -2.3357 -0.4587 -0.5262
 9187TIP3   OH249051   6.447   2.234   2.205 -0.3249 -0.6170 -0.5126
 9187TIP3    H149052   6.351   2.228   2.197 -0.2559 -2.0903 -0.6323
 9187TIP3    H249053   6.467   2.325   2.183 -1.6668 -0.3677 -0.8413
 9188TIP3   OH249054   4.956   0.449  14.627  0.0466  0.0819 -0.1223
 9188TIP3    H149055   5.028   0.392  14.600 -0.2094 -1.1985  1.6812
 9188TIP3    H249056   4.991   0.538  14.617  0.9768 -0.4275 -1.6194
 9189TIP3   OH249057   4.528   0.853  15.594 -0.2517  0.9855 -0.5667
 9189TIP3    H149058   4.454   0.908  15.620  0.5448  1.5814  0.5089
 9189TIP3    H249059   4.548   0.801  15.672  0.6461  1.0338 -0.7597
 9190TIP3   OH249060   0.349   2.255  10.753  0.5037 -0.4857  0.4831
 9190TIP3    H149061   0.420   2.290  10.807 -0.8775 -0.2443  2.2281
 9190TIP3    H249062   0.299   2.333  10.727  0.6007 -0.6942 -0.3508
 9191TIP3   OH249063   4.842   0.524  11.940 -0.1068 -0.3457 -0.0856
 9191TIP3    H149064   4.759   0.522  11.988 -0.0919  0.1106 -0.0378
 9191TIP3    H249065   4.852   0.435  11.906  1.3507 -1.6494  3.2547
 9192TIP3   OH249066   3.650   2.304   0.749  0.2981  0.1117 -0.4666
 9192TIP3    H149067   3.597   2.231   0.780  0.8603 -0.1040  0.0004
 9192TIP3    H249068   3.719   2.313   0.814  0.2049  1.1017 -0.4947
 9193TIP3   OH249069   3.217   2.906  11.894  0.3735 -0.3852 -0.4826
 9193TIP3    H149070   3.122   2.896  11.881  0.3638  0.0664 -0.7879
 9193TIP3    H249071   3.243   2.827  11.942 -0.1515 -0.5288 -0.4248
 9194TIP3   OH249072   1.323   3.131   1.445 -0.3218  0.1759  0.2539
 9194TIP3    H149073   1.350   3.172   1.528 -0.8177  1.7878 -0.3412
 9194TIP3    H249074   1.403   3.127   1.393 -0.3482  0.7951  0.1619
 9195TIP3   OH249075   0.730   1.730  13.388  0.3638  0.1477 -0.1074
 9195TIP3    H149076   0.769   1.737  13.301  2.2704  0.0684  0.7027
 9195TIP3    H249077   0.785   1.667  13.434 -0.4837  0.3553  1.2365
 9196TIP3   OH249078   4.229   3.430   4.704 -0.0662  0.3503 -0.4240
 9196TIP3    H149079   4.253   3.407   4.794 -2.0966 -0.6506 -0.0680
 9196TIP3    H249080   4.215   3.524   4.707 -2.3597  0.0473  0.9764
 9197TIP3   OH249081   2.304   3.287   2.339 -0.7813 -0.3028 -0.4310
 9197TIP3    H149082   2.338   3.278   2.428 -0.0427 -2.0463 -0.8360
 9197TIP3    H249083   2.222   3.334   2.348  0.7178  2.2552  0.8288
 9198TIP3   OH249084   0.331   4.590   4.449  0.0828 -0.1514  0.6504
 9198TIP3    H149085   0.334   4.652   4.377 -2.7042  0.6755  1.1352
 9198TIP3    H249086   0.315   4.505   4.408 -0.3691  0.1366  0.2224
 9199TIP3   OH249087   4.527   1.204  14.077  0.2247  0.6209  0.1972
 9199TIP3    H149088   4.575   1.122  14.066  0.1874  0.4017  1.4676
 9199TIP3    H249089   4.595   1.267  14.102  0.5832  1.5067 -2.6632
 9200TIP3   OH249090   0.316   1.803  13.527 -0.3458  0.0054 -0.0189
 9200TIP3    H149091   0.304   1.897  13.536  2.1519  0.6544 -2.1833
 9200TIP3    H249092   0.263   1.765  13.597 -2.8868  2.8806 -0.1498
 9201TIP3   OH249093   3.137   3.525   0.544 -0.0848 -0.0579 -0.2039
 9201TIP3    H149094   3.148   3.521   0.449  0.7504 -0.9143 -0.0890
 9201TIP3    H249095   3.044   3.505   0.558 -0.2750  0.3537 -0.8556
 9202TIP3   OH249096   3.157   0.300  12.141  0.4687 -0.0079 -0.3778
 9202TIP3    H149097   3.208   0.319  12.063  0.2897  0.5849 -0.3531
 9202TIP3    H249098   3.180   0.369  12.203  0.3761 -0.2949 -0.0167
 9203TIP3   OH249099   5.551   0.094   1.482 -0.3306  0.0593  0.0301
 9203TIP3    H149100   5.496   0.125   1.409 -2.6831 -1.0328  1.2491
 9203TIP3    H249101   5.565   0.002   1.463 -0.0397  0.0262  0.4127
 9204TIP3   OH249102   0.234   5.502  15.228  0.3384  0.1300  0.6048
 9204TIP3    H149103   0.226   5.510  15.133 -0.7990 -0.7199  0.6152
 9204TIP3    H249104   0.307   5.560  15.250  0.0532  1.0126 -0.6691
 9205TIP3   OH249105   6.359   4.803   4.473 -0.5242  1.2125  0.6369
 9205TIP3    H149106   6.344   4.720   4.518 -0.8246  1.3111  0.7191
 9205TIP3    H249107   6.453   4.820   4.485  0.3367 -0.7679 -2.2269
 9206TIP3   OH249108   2.108   2.120   2.927 -0.1100 -0.5914  0.3529
 9206TIP3    H149109   2.104   2.215   2.934  0.3296 -0.3812 -1.7407
 9206TIP3    H249110   2.189   2.096   2.973 -0.2324  0.0318  0.9091
 9207TIP3   OH249111   1.413   6.361  11.670 -0.3064 -0.0762 -0.1236
 9207TIP3    H149112   1.403   6.423  11.598 -0.5639 -0.0741 -0.0874
 9207TIP3    H249113   1.388   6.276  11.632  0.3384 -0.2133 -0.2563
 9208TIP3   OH249114   5.455   1.392   0.266  0.4379  0.4456  0.2164
 9208TIP3    H149115   5.508   1.469   0.245  1.1353 -0.4375 -1.4219
 9208TIP3    H249116   5.366   1.418   0.241  0.8250  0.4132 -1.3209
 9209TIP3   OH249117   2.044   5.309   5.663 -0.1788 -0.2069  0.2891
 9209TIP3    H149118   2.061   5.283   5.754 -0.3395  0.6411  0.5751
 9209TIP3    H249119   1.954   5.280   5.646 -0.6424  0.8423  0.8686
 9210TIP3   OH249120   1.723   1.610  15.403 -0.0642  0.0834  0.8630
 9210TIP3    H149121   1.630   1.588  15.411 -0.0263  0.2336  1.7877
 9210TIP3    H249122   1.732   1.693  15.449  1.1070 -1.4937  3.7312
 9211TIP3   OH249123   1.822   3.853  16.122 -0.2723 -0.6488 -0.0989
 9211TIP3    H149124   1.880   3.776  16.124  0.2762 -0.2548 -0.4174
 9211TIP3    H249125   1.842   3.900  16.202 -0.7847 -0.9595  0.2157
 9212TIP3   OH249126   0.721   6.582  15.722  0.1303 -0.0541 -0.0425
 9212TIP3    H149127   0.667   6.508  15.752  1.8727 -1.0483  0.7720
 9212TIP3    H249128   0.747   6.558  15.633 -1.8936  1.1194 -1.0255
 9213TIP3   OH249129   5.241   3.067   2.735  0.1977  0.2726 -0.0694
 9213TIP3    H149130   5.274   2.999   2.677  0.9500  0.3244  0.2807
 9213TIP3    H249131   5.160   3.032   2.771 -0.9288  0.7163 -2.0459
 9214TIP3   OH249132   3.085   6.026  16.906 -0.2219 -0.2142 -0.4433
 9214TIP3    H149133   3.013   6.076  16.945  0.0922 -0.0026 -0.1297
 9214TIP3    H249134   3.086   6.052  16.814 -1.3421 -1.1464 -0.7417
 9215TIP3   OH249135   5.680   3.128  14.470 -0.2213  0.0852  0.3942
 9215TIP3    H149136   5.629   3.067  14.416 -1.4058 -0.1012  1.6751
 9215TIP3    H249137   5.639   3.125  14.556  1.1666  0.9373  1.1284
 9216TIP3   OH249138   5.614   2.593   3.057  0.0407 -0.3629 -0.3720
 9216TIP3    H149139   5.700   2.559   3.032  0.2495 -0.0053 -0.1557
 9216TIP3    H249140   5.577   2.628   2.976  0.4946  0.3226 -0.2870
 9217TIP3   OH249141   4.601   1.221   5.474 -0.1613 -0.2395 -0.0243
 9217TIP3    H149142   4.662   1.239   5.545 -1.6057 -0.1456  1.2499
 9217TIP3    H249143   4.525   1.275   5.494 -0.6265 -0.2501 -1.6382
 9218TIP3   OH249144   4.971   0.137  12.624 -0.6455 -0.4459 -0.1344
 9218TIP3    H149145   4.903   0.205  12.628  0.2591  0.5211 -0.7948
 9218TIP3    H249146   5.009   0.136  12.712 -0.2734  0.3087 -0.2870
 9219TIP3   OH249147   1.083   5.149  16.870 -0.4941  0.1359 -0.0112
 9219TIP3    H149148   1.127   5.074  16.830  0.2778  0.5673  0.0166
 9219TIP3    H249149   0.990   5.125  16.871 -0.3181 -0.5786 -0.5219
 9220TIP3   OH249150   4.422   2.199  12.746 -0.7452 -0.2714 -0.0823
 9220TIP3    H149151   4.451   2.137  12.680 -1.2525 -2.1355  1.3722
 9220TIP3    H249152   4.427   2.151  12.829 -0.8770  1.7273  1.1570
 9221TIP3   OH249153   3.707   5.459   3.030  0.0192 -0.1737 -0.4689
 9221TIP3    H149154   3.636   5.407   2.994  0.0348 -0.8329  0.4006
 9221TIP3    H249155   3.772   5.463   2.960 -0.8090  0.3350 -1.2235
 9222TIP3   OH249156   0.390   3.327  15.385 -0.1369 -0.0317  0.2589
 9222TIP3    H149157   0.432   3.246  15.413  0.9950  0.9760  1.5951
 9222TIP3    H249158   0.330   3.349  15.456  0.1418  0.7029  0.2797
 9223TIP3   OH249159   1.470   3.965   0.192  0.5375  0.5750 -0.5240
 9223TIP3    H149160   1.379   3.990   0.177  0.1500 -1.1212 -1.2379
 9223TIP3    H249161   1.511   3.970   0.106  1.0907  1.2138 -0.2264
 9224TIP3   OH249162   3.475   5.295   2.498  0.0478 -0.0536  0.1885
 9224TIP3    H149163   3.501   5.242   2.423  0.3427  0.6093 -0.1813
 9224TIP3    H249164   3.436   5.232   2.559  0.5203 -0.7209 -0.1817
 9225TIP3   OH249165   1.527   2.693  15.388 -0.4604 -0.0692 -0.1969
 9225TIP3    H149166   1.535   2.699  15.484 -1.4802  0.0940 -0.1094
 9225TIP3    H249167   1.510   2.783  15.360  0.0501 -0.0836 -0.5599
 9226TIP3   OH249168   3.295   3.868  12.724  0.3029  0.0607  0.4317
 9226TIP3    H149169   3.279   3.962  12.731 -0.9104  0.1944 -2.7165
 9226TIP3    H249170   3.225   3.835  12.667  0.1229 -2.9788  2.1620
 9227TIP3   OH249171   1.902   0.716  11.061 -0.5992 -0.3166  0.3712
 9227TIP3    H149172   1.916   0.622  11.074  2.5508 -0.1282 -0.8853
 9227TIP3    H249173   1.891   0.725  10.966  1.3477  0.7578  0.2064
 9228TIP3   OH249174   3.057   6.185  12.449  0.4928 -0.0083  0.5861
 9228TIP3    H149175   3.133   6.198  12.392  0.5028  0.4111  0.6928
 9228TIP3    H249176   3.000   6.260  12.431  0.4617  0.0918  1.0705
 9229TIP3   OH249177   6.289   6.570  11.581  0.4329  0.0901  0.7732
 9229TIP3    H149178   6.200   6.585  11.549  0.8420 -0.9889 -1.0238
 9229TIP3    H249179   6.294   6.619  11.663 -1.6041  0.6885  0.5885
 9230TIP3   OH249180   3.754   3.607  16.295  0.2792 -0.2494  0.3727
 9230TIP3    H149181   3.664   3.634  16.284 -0.4995 -2.7351 -0.0598
 9230TIP3    H249182   3.800   3.686  16.323 -1.5321  1.6258 -1.6241
 9231TIP3   OH249183   2.667   4.888  12.037 -0.9160 -0.3012  0.8435
 9231TIP3    H149184   2.666   4.977  12.074 -1.2761 -0.2553  0.7240
 9231TIP3    H249185   2.747   4.885  11.985 -0.3724 -0.3840  1.6662
 9232TIP3   OH249186   3.834   5.057  11.778 -0.4797 -0.1657  0.2580
 9232TIP3    H149187   3.814   5.077  11.687  0.4024 -0.4950 -0.0262
 9232TIP3    H249188   3.892   4.980  11.773 -0.6474 -0.3560  1.1053
 9233TIP3   OH249189   2.951   5.465   3.891 -0.2323  0.1952  0.2804
 9233TIP3    H149190   2.999   5.538   3.850  2.7575 -0.6839  1.9348
 9233TIP3    H249191   2.987   5.387   3.850 -1.9962 -0.4746 -0.0696
 9234TIP3   OH249192   6.310   6.686   2.686 -0.0886 -0.6683 -0.4042
 9234TIP3    H149193   6.299   6.778   2.711  0.3126 -0.1435 -2.0754
 9234TIP3    H249194   6.405   6.674   2.680 -0.1439 -1.1453 -0.3796
 9235TIP3   OH249195   5.699   6.430  10.895  0.0717 -0.1244  0.0961
 9235TIP3    H149196   5.786   6.459  10.868 -0.3503 -1.6430 -3.3395
 9235TIP3    H249197   5.642   6.504  10.876  0.2829  0.0764  0.2341
 9236TIP3   OH249198   0.505   5.382   2.913  0.2058  0.7375  0.6793
 9236TIP3    H149199   0.438   5.328   2.872  2.0117 -0.5131 -0.7760
 9236TIP3    H249200   0.506   5.463   2.862  1.5650 -0.3052 -1.0488
 9237TIP3   OH249201   5.259   3.114   2.128  0.2023 -0.2555 -0.4649
 9237TIP3    H149202   5.317   3.078   2.196 -0.2336 -0.9272 -0.4443
 9237TIP3    H249203   5.307   3.102   2.046  1.0026  1.1166 -0.2354
 9238TIP3   OH249204   5.991   2.493   1.483 -0.8234 -0.5024 -0.7658
 9238TIP3    H149205   6.085   2.493   1.497 -1.0301 -0.2739  0.8363
 9238TIP3    H249206   5.967   2.401   1.481 -0.5201 -0.5684 -1.6061
 9239TIP3   OH249207   1.003   3.849   4.946 -0.4467  0.3367  0.0194
 9239TIP3    H149208   1.056   3.885   5.017  0.6461 -1.3863  0.1416
 9239TIP3    H249209   1.064   3.838   4.874 -0.6107 -1.5486  0.1060
 9240TIP3   OH249210   1.619   0.819   4.185  0.2586 -0.4601  0.3447
 9240TIP3    H149211   1.627   0.837   4.279 -1.0145  1.7112  0.0992
 9240TIP3    H249212   1.559   0.745   4.179 -1.8187  1.0695  1.2197
 9241TIP3   OH249213   0.065   5.868  10.867  0.3192  0.7459 -0.2920
 9241TIP3    H149214   0.063   5.773  10.871  1.5801  0.6541 -1.2120
 9241TIP3    H249215   0.150   5.889  10.827 -0.3034  2.2083 -0.9363
 9242TIP3   OH249216   2.603   3.688   0.845  0.2502 -0.2974  0.1595
 9242TIP3    H149217   2.574   3.766   0.798 -1.6548 -0.5051  0.9163
 9242TIP3    H249218   2.633   3.628   0.777 -0.1472  0.3325 -0.5911
 9243TIP3   OH249219   0.632   3.492  13.420  0.6837  0.4420 -0.0581
 9243TIP3    H149220   0.721   3.494  13.383  0.6937 -0.1868 -0.0835
 9243TIP3    H249221   0.600   3.582  13.411  0.4659  0.1980 -2.1412
 9244TIP3   OH249222   6.619   1.635  15.912 -0.4477  0.4853  0.3937
 9244TIP3    H149223   6.605   1.540  15.916 -0.3937  0.3684 -1.2923
 9244TIP3    H249224   6.624   1.654  15.818  3.5738  1.5276  0.6086
 9245TIP3   OH249225   0.457   1.516  13.689  0.6397  0.2998 -0.1611
 9245TIP3    H149226   0.428   1.537  13.600 -0.3163  1.1061  0.3208
 9245TIP3    H249227   0.385   1.545  13.745  1.4921  0.3721  0.9284
 9246TIP3   OH249228   5.138   4.155  15.575  0.0046  0.3045  0.2807
 9246TIP3    H149229   5.217   4.141  15.627  0.2010  1.5841  0.3475
 9246TIP3    H249230   5.163   4.222  15.511 -2.0532  3.8113  2.8186
 9247TIP3   OH249231   5.635   4.614   4.096  0.5277  0.1006  0.4359
 9247TIP3    H149232   5.606   4.531   4.059 -3.3208  0.1721  2.7441
 9247TIP3    H249233   5.691   4.589   4.170 -2.6643 -0.7903  2.7597
 9248TIP3   OH249234   1.468   3.388  15.327 -0.4696 -0.2934  0.0233
 9248TIP3    H149235   1.398   3.444  15.363 -1.3558 -1.2585 -0.1511
 9248TIP3    H249236   1.522   3.365  15.403  1.2503  2.5339 -0.1770
 9249TIP3   OH249237   5.801   2.789  15.069 -0.3098  0.1335  0.1508
 9249TIP3    H149238   5.788   2.709  15.120  0.2703  0.5358  0.9534
 9249TIP3    H249239   5.739   2.852  15.105 -0.4496  0.1878 -0.1763
 9250TIP3   OH249240   1.089   0.881   1.066 -0.0007 -0.0343  0.4410
 9250TIP3    H149241   1.065   0.855   1.155  2.1570  0.1124  1.1247
 9250TIP3    H249242   1.009   0.867   1.014 -1.2039 -0.4348  2.3139
 9251TIP3   OH249243   2.437   0.279   3.516 -0.1972 -0.2891 -0.2368
 9251TIP3    H149244   2.371   0.219   3.551  0.8390  0.3760  3.3191
 9251TIP3    H249245   2.485   0.227   3.451  0.3370 -3.2679  2.2806
 9252TIP3   OH249246   1.864   5.865  16.843 -0.5490 -0.5668 -0.3402
 9252TIP3    H149247   1.784   5.894  16.886  0.0896  0.4926  0.1588
 9252TIP3    H249248   1.835   5.794  16.785 -1.7671 -0.5174  0.1704
 9253TIP3   OH249249   0.121   1.066   0.442  0.0345  0.1564 -0.4046
 9253TIP3    H149250   0.073   0.995   0.401 -2.0147  1.0504  0.3038
 9253TIP3    H249251   0.214   1.044   0.429 -0.5061 -2.8928  0.2682
 9254TIP3   OH249252   0.739   5.923  13.543  0.4486  0.5221 -0.4757
 9254TIP3    H149253   0.692   5.997  13.582 -1.3598 -0.1499 -1.2961
 9254TIP3    H249254   0.742   5.857  13.612  1.6805  1.1563  0.1125
 9255TIP3   OH249255   2.315   1.022   1.937 -0.1224  0.4093  0.0157
 9255TIP3    H149256   2.402   1.060   1.951  0.9446 -0.4991 -3.2429
 9255TIP3    H249257   2.277   1.075   1.867  0.0342 -2.2291 -2.2486
 9256TIP3   OH249258   6.700   1.199   3.013  0.6159 -0.1220 -0.3602
 9256TIP3    H149259   6.716   1.148   2.933  2.9470  0.2568 -0.2072
 9256TIP3    H249260   6.766   1.268   3.010  0.0893  0.4934  1.4215
 9257TIP3   OH249261   0.183   4.423  14.414  0.7553  0.3823 -0.0193
 9257TIP3    H149262   0.172   4.405  14.321 -0.3736  0.0670  0.1551
 9257TIP3    H249263   0.235   4.350  14.447 -0.4307 -0.5155 -0.0686
 9258TIP3   OH249264   6.629   1.375  13.745  0.3693 -0.0945 -0.0449
 9258TIP3    H149265   6.553   1.319  13.761  0.2865  0.0177 -0.0349
 9258TIP3    H249266   6.683   1.326  13.683  0.3223 -0.2049  0.0014
 9259TIP3   OH249267   1.388   2.380  11.675 -0.2207 -0.0465 -0.4316
 9259TIP3    H149268   1.326   2.444  11.710 -1.4982 -0.7998 -1.2474
 9259TIP3    H249269   1.336   2.302  11.660  0.9223 -0.6872 -1.2333
 9260TIP3   OH249270   6.354   5.961   1.505  0.7458 -0.3956  0.1843
 9260TIP3    H149271   6.394   5.880   1.536  0.6939 -0.2459  0.6492
 9260TIP3    H249272   6.314   5.937   1.421  0.2105 -1.0082  0.6007
 9261TIP3   OH249273   3.202   2.830   2.771 -0.4658  0.5597  0.1662
 9261TIP3    H149274   3.217   2.741   2.739 -1.3555  0.4054  0.1368
 9261TIP3    H249275   3.253   2.835   2.852  0.3005  0.3250 -0.2959
 9262TIP3   OH249276   0.676   1.807  15.117 -0.0387 -0.3482 -0.7390
 9262TIP3    H149277   0.591   1.813  15.159  0.5092  2.6987  0.1489
 9262TIP3    H249278   0.669   1.863  15.040  1.0500 -0.2904 -0.8169
 9263TIP3   OH249279   2.001   6.302  11.464 -0.1201 -0.0319  0.5787
 9263TIP3    H149280   1.939   6.373  11.450  1.5917  1.5444  0.6554
 9263TIP3    H249281   1.963   6.250  11.536 -1.5361  0.6142  0.3220
 9264TIP3   OH249282   0.409   6.638   3.378  0.0381  0.3855  0.2959
 9264TIP3    H149283   0.480   6.695   3.348  0.3873  0.3579  1.0617
 9264TIP3    H249284   0.357   6.693   3.436 -0.9976  0.6214 -0.8121
 9265TIP3   OH249285   2.578   3.891  14.731 -0.0345  0.3336  0.4952
 9265TIP3    H149286   2.618   3.970  14.769  1.0552 -0.1862  0.4623
 9265TIP3    H249287   2.484   3.909  14.734  0.1278  1.1560  1.5621
 9266TIP3   OH249288   3.492   4.794  15.484 -0.1102 -0.0168 -0.2612
 9266TIP3    H149289   3.413   4.747  15.510  0.3524 -1.5087 -1.4054
 9266TIP3    H249290   3.462   4.861  15.422 -0.4963 -0.4527 -0.5463
 9267TIP3   OH249291   3.883   2.735  16.682  0.1820  0.4422 -0.6746
 9267TIP3    H149292   3.941   2.660  16.697  1.3086  1.7165  1.9412
 9267TIP3    H249293   3.862   2.731  16.589  3.1131 -1.0789 -1.3843
 9268TIP3   OH249294   0.765   6.247   2.582  0.0838 -0.7635 -0.4381
 9268TIP3    H149295   0.697   6.180   2.590 -0.1219 -0.4618  0.5492
 9268TIP3    H249296   0.846   6.202   2.603 -0.1245 -0.6014  0.8051
 9269TIP3   OH249297   6.510   6.156  13.124 -0.4822 -0.0719 -0.3235
 9269TIP3    H149298   6.437   6.189  13.071 -1.1737 -0.6736  0.2380
 9269TIP3    H249299   6.588   6.193  13.082 -1.0929  0.4702 -1.0186
 9270TIP3   OH249300   2.258   6.243   0.340 -0.1643  0.0892  0.6285
 9270TIP3    H149301   2.167   6.271   0.346 -0.4567  0.1935 -2.6733
 9270TIP3    H249302   2.306   6.322   0.314  0.7674 -0.1484  1.5563
 9271TIP3   OH249303   2.097   5.051   1.381  0.7059 -0.0582 -0.0823
 9271TIP3    H149304   2.173   5.088   1.425  1.4377  0.6791 -1.8440
 9271TIP3    H249305   2.129   4.970   1.341  0.2395 -0.3840  0.2058
 9272TIP3   OH249306   3.791   3.801  14.428  0.2932  0.2541 -0.2280
 9272TIP3    H149307   3.713   3.803  14.484  0.7939  0.3146  0.4751
 9272TIP3    H249308   3.772   3.731  14.365  0.0456 -0.3680  0.5078
 9273TIP3   OH249309   5.785   3.572   6.078  0.0649 -0.3467  0.4302
 9273TIP3    H149310   5.843   3.521   6.134 -0.6457  0.0901  1.5967
 9273TIP3    H249311   5.822   3.660   6.078  0.9956 -0.6892 -1.1625
 9274TIP3   OH249312   1.800   4.274   4.694  0.3748  0.6363  0.0848
 9274TIP3    H149313   1.735   4.336   4.661  0.5168  0.8557  0.2123
 9274TIP3    H249314   1.750   4.196   4.718  0.1781  0.7548  0.0568
 9275TIP3   OH249315   4.198   1.806  11.532 -0.3933  0.4179 -0.6552
 9275TIP3    H149316   4.257   1.858  11.476 -0.1706  0.2319 -0.5955
 9275TIP3    H249317   4.133   1.869  11.563 -0.2372  0.6219 -0.7395
 9276TIP3   OH249318   6.585   4.811  12.216 -0.2361  0.3176  0.3645
 9276TIP3    H149319   6.636   4.798  12.137 -0.0970 -0.3598  0.5545
 9276TIP3    H249320   6.524   4.882  12.195  0.3501  0.7008 -0.0705
 9277TIP3   OH249321   1.462   2.834  17.184  0.0086 -0.6639  0.0061
 9277TIP3    H149322   1.493   2.802  17.269  0.8414  0.7326  0.2546
 9277TIP3    H249323   1.374   2.797  17.175 -0.8909  0.6687  2.3956
 9278TIP3   OH249324   1.999   4.417  17.075  0.3126  0.1054  0.3650
 9278TIP3    H149325   2.054   4.348  17.037  1.5737  0.0029  2.2030
 9278TIP3    H249326   1.922   4.421  17.018 -0.1212 -3.2570  0.5014
 9279TIP3   OH249327   2.668   5.241  11.372 -0.1236  0.2849 -0.8421
 9279TIP3    H149328   2.702   5.231  11.283  0.4357 -1.4318 -0.4718
 9279TIP3    H249329   2.735   5.201  11.428 -2.2565 -2.4676 -0.0142
 9280TIP3   OH249330   0.700   3.003   6.696  0.4658  0.4185 -0.0835
 9280TIP3    H149331   0.679   2.972   6.608 -2.3504  0.1318  0.6179
 9280TIP3    H249332   0.666   3.093   6.699  1.2892  0.7276  0.4728
 9281TIP3   OH249333   1.833   4.688  10.327 -0.6077  0.4869  0.3468
 9281TIP3    H149334   1.906   4.750  10.333 -0.3376  0.2284 -0.2502
 9281TIP3    H249335   1.870   4.604  10.354 -1.1468  0.6953  1.8466
 9282TIP3   OH249336   2.561   4.047  11.829  0.7095 -0.1782 -0.1231
 9282TIP3    H149337   2.565   4.140  11.854 -0.6015  0.1159 -0.9261
 9282TIP3    H249338   2.496   4.010  11.887  0.5764 -0.3927 -0.4089
 9283TIP3   OH249339   2.428   6.525   4.379 -0.0037 -0.0572  0.3789
 9283TIP3    H149340   2.342   6.498   4.347  0.9004 -1.2205 -1.1757
 9283TIP3    H249341   2.411   6.559   4.467 -2.2595  1.1743 -0.4537
 9284TIP3   OH249342   4.945   4.832   4.723 -0.7044 -0.7389 -0.4110
 9284TIP3    H149343   5.022   4.855   4.776 -1.5304  2.9563 -0.5480
 9284TIP3    H249344   4.981   4.795   4.643  1.0126  0.8550 -0.4581
 9285TIP3   OH249345   3.331   0.008  15.456  0.6019  0.0009  0.4042
 9285TIP3    H149346   3.289   0.043  15.378  1.6338  4.2067  1.4911
 9285TIP3    H249347   3.423   0.030  15.446  1.2007 -1.6517  1.7486
 9286TIP3   OH249348   3.088   2.392   6.767 -0.5734  0.1153  0.3533
 9286TIP3    H149349   3.139   2.326   6.720  0.8072  0.4399  1.3260
 9286TIP3    H249350   2.997   2.364   6.757 -0.1120 -1.2336 -0.3071
 9287TIP3   OH249351   6.569   2.064   0.947 -0.1362 -0.0386  0.0492
 9287TIP3    H149352   6.538   2.000   1.012 -1.0301  0.0424 -0.2764
 9287TIP3    H249353   6.498   2.128   0.941 -0.2994 -0.3134 -1.3729
 9288TIP3   OH249354   0.504   4.719   2.128 -0.4772  0.2293  0.5133
 9288TIP3    H149355   0.430   4.687   2.077  0.4257 -3.1682  1.1311
 9288TIP3    H249356   0.481   4.699   2.219  0.9089 -0.3021  0.7702
 9289TIP3   OH249357   5.955   3.414   1.499  0.0815  0.2199  0.5170
 9289TIP3    H149358   5.862   3.393   1.488  0.2344 -0.6689  0.8745
 9289TIP3    H249359   5.976   3.386   1.588  0.8256 -0.0994  0.2464
 9290TIP3   OH249360   6.140   3.370  13.532 -0.0119  0.5878 -0.2746
 9290TIP3    H149361   6.123   3.343  13.622 -0.6487 -0.3511 -0.6620
 9290TIP3    H249362   6.210   3.312  13.502 -0.1292  0.5812 -0.5381
 9291TIP3   OH249363   1.762   4.421  13.497 -0.4888  0.2090  0.5422
 9291TIP3    H149364   1.698   4.436  13.566 -0.2799  2.8151  0.2670
 9291TIP3    H249365   1.815   4.501  13.495  0.6875 -0.5358 -1.4013
 9292TIP3   OH249366   5.676   4.989   0.269 -0.0850 -0.2691 -0.1836
 9292TIP3    H149367   5.580   4.984   0.270 -0.3390  1.9652 -2.3983
 9292TIP3    H249368   5.705   4.904   0.302 -2.7858 -0.4942  1.9058
 9293TIP3   OH249369   5.185   2.711   0.170 -0.1103 -0.3333 -0.5438
 9293TIP3    H149370   5.159   2.739   0.082  0.4245 -0.4018 -0.7275
 9293TIP3    H249371   5.127   2.760   0.228  0.0309  0.2927 -0.9109
 9294TIP3   OH249372   2.242   6.609  12.189 -0.5955 -0.0958  0.2782
 9294TIP3    H149373   2.249   6.601  12.284 -0.3157  0.6663  0.3245
 9294TIP3    H249374   2.172   6.672  12.175 -1.3031 -0.9320 -0.0477
 9295TIP3   OH249375   6.683   2.954  17.160 -0.4389  0.5002 -0.0478
 9295TIP3    H149376   6.778   2.945  17.162 -0.5613 -0.9969 -0.0215
 9295TIP3    H249377   6.650   2.875  17.203 -1.7100  0.6274 -0.7435
 9296TIP3   OH249378   0.667   4.865  15.027 -0.2716  0.1161 -0.4362
 9296TIP3    H149379   0.746   4.812  15.035 -0.1314  0.5357  1.2149
 9296TIP3    H249380   0.609   4.835  15.097 -0.5754  1.4528 -0.0795
 9297TIP3   OH249381   0.391   5.094  14.644 -0.3849  0.0528 -0.2792
 9297TIP3    H149382   0.394   5.025  14.710 -1.3367  0.1550 -0.1195
 9297TIP3    H249383   0.302   5.089  14.607  0.2352 -0.2513 -1.8265
 9298TIP3   OH249384   2.462   2.524   4.800  0.4215  0.0723  0.0214
 9298TIP3    H149385   2.485   2.501   4.891  1.4931 -0.3767 -0.3509
 9298TIP3    H249386   2.366   2.526   4.800  0.3365 -1.7361  0.7378
 9299TIP3   OH249387   3.226   4.823   4.594  0.3385  0.0236  0.2422
 9299TIP3    H149388   3.211   4.893   4.532  1.8727  0.7397  0.6263
 9299TIP3    H249389   3.271   4.755   4.544 -0.5312 -0.4084  0.0327
 9300TIP3   OH249390   0.569   1.649  14.763 -0.1245  0.2530  0.2965
 9300TIP3    H149391   0.640   1.662  14.701  1.5723 -1.3492  1.7834
 9300TIP3    H249392   0.594   1.702  14.839 -0.1533 -0.8109  1.0767
 9301TIP3   OH249393   3.987   2.976   5.862 -0.4673  0.8144  0.4002
 9301TIP3    H149394   3.958   3.065   5.846  1.7481  1.2540 -1.6473
 9301TIP3    H249395   4.024   2.947   5.779  1.2736 -1.0446  1.7139
 9302TIP3   OH249396   4.691   3.457  16.225  0.0475 -0.0432 -0.2195
 9302TIP3    H149397   4.662   3.530  16.171  1.4604  0.9857  0.3583
 9302TIP3    H249398   4.658   3.379  16.180 -1.5929  0.9298 -0.7764
 9303TIP3   OH249399   0.681   3.059  16.443 -0.1011  0.0551  0.3461
 9303TIP3    H149400   0.747   3.028  16.505  0.4948  0.3094 -0.1400
 9303TIP3    H249401   0.602   3.010  16.465  0.1914 -0.1053  1.0782
 9304TIP3   OH249402   3.930   1.451   3.311  0.1811  0.4494 -0.1206
 9304TIP3    H149403   3.923   1.377   3.250 -0.8490 -0.5384  1.1245
 9304TIP3    H249404   3.875   1.519   3.272 -0.5236 -0.1924 -0.2954
 9305TIP3   OH249405   4.711   5.763  14.979 -0.1068 -0.0837 -0.9304
 9305TIP3    H149406   4.701   5.851  14.942 -0.6651 -1.4921 -4.4547
 9305TIP3    H249407   4.747   5.711  14.908  0.6903 -2.6642  1.2121
 9306TIP3   OH249408   0.112   0.106  10.276  0.3494 -0.0949  0.1301
 9306TIP3    H149409   0.108   0.011  10.278  2.2324 -0.3117 -2.0666
 9306TIP3    H249410   0.173   0.130  10.345 -1.5359 -0.2557  1.9567
 9307TIP3   OH249411   2.460   0.108   3.300 -0.0893  0.3922 -0.4929
 9307TIP3    H149412   2.503   0.051   3.236  0.4167 -1.3426  1.2742
 9307TIP3    H249413   2.367   0.086   3.293 -0.1530  0.8425 -1.1927
 9308TIP3   OH249414   5.159   4.695  12.089 -0.0684 -0.4153 -0.6300
 9308TIP3    H149415   5.098   4.690  12.163  0.3616  0.4482 -0.1990
 9308TIP3    H249416   5.244   4.676  12.127  0.6924  3.2016 -0.1334
 9309TIP3   OH249417   0.787   2.816   0.793  0.3717 -0.4164 -0.5926
 9309TIP3    H149418   0.712   2.817   0.734  0.3053  1.7018 -0.5447
 9309TIP3    H249419   0.857   2.859   0.743  0.3357  1.3625  0.7863
 9310TIP3   OH249420   2.933   4.482  13.358  0.6777  0.2141  0.6388
 9310TIP3    H149421   2.969   4.566  13.331  1.1805 -0.4117 -0.7430
 9310TIP3    H249422   2.995   4.417  13.325 -0.8379 -0.8086 -0.3744
 9311TIP3   OH249423   6.295   3.829  15.259  0.1162 -0.0318 -0.1384
 9311TIP3    H149424   6.315   3.790  15.174 -0.1100 -2.3668  0.7968
 9311TIP3    H249425   6.204   3.858  15.251 -0.2276 -1.1153 -0.4282
 9312TIP3   OH249426   0.689   1.083  13.057  0.0626  0.2500 -0.5214
 9312TIP3    H149427   0.611   1.034  13.029  1.3025 -1.6125 -0.8933
 9312TIP3    H249428   0.679   1.093  13.151  1.1040 -3.4409  0.1378
 9313TIP3   OH249429   5.699   0.136  11.444 -0.2651 -0.1253  0.3895
 9313TIP3    H149430   5.619   0.109  11.400 -0.4624  1.9362 -0.5983
 9313TIP3    H249431   5.681   0.223  11.478  2.5263  1.9283 -2.8121
 9314TIP3   OH249432   3.449   4.699   3.960 -0.2251  0.1514  0.3561
 9314TIP3    H149433   3.373   4.735   4.005 -1.3915 -2.2016  0.4541
 9314TIP3    H249434   3.411   4.637   3.897  1.5751 -0.2684 -0.3644
 9315TIP3   OH249435   3.751   3.242   2.499 -0.3101 -0.1875 -0.0250
 9315TIP3    H149436   3.737   3.253   2.593  0.4475 -0.9483  0.1999
 9315TIP3    H249437   3.839   3.277   2.484 -0.6996  0.5734 -0.5863
 9316TIP3   OH249438   4.467   3.272   3.050 -0.0851  0.0013  0.1502
 9316TIP3    H149439   4.543   3.217   3.068 -1.2022 -0.5240  4.2672
 9316TIP3    H249440   4.420   3.227   2.980  2.7520 -0.1534 -1.8292
 9317TIP3   OH249441   2.161   3.924   3.794  0.4989 -0.4466  0.2114
 9317TIP3    H149442   2.120   3.992   3.848  0.5556 -0.3319  0.1118
 9317TIP3    H249443   2.244   3.907   3.837  0.2386 -0.8597  0.5550
 9318TIP3   OH249444   5.100   0.147   1.110 -0.1153  0.6969  0.3190
 9318TIP3    H149445   5.081   0.070   1.163 -0.8714  0.4716 -0.2415
 9318TIP3    H249446   5.102   0.114   1.020 -2.6846  1.6287 -0.1831
 9319TIP3   OH249447   3.335   6.210  16.241  0.1495  0.0267 -0.1126
 9319TIP3    H149448   3.351   6.233  16.333  0.7442 -0.4010 -0.1029
 9319TIP3    H249449   3.285   6.129  16.244 -1.2516  0.8495 -0.1585
 9320TIP3   OH249450   4.202   0.187   4.198 -0.4623 -0.8534 -0.4332
 9320TIP3    H149451   4.262   0.243   4.150  0.5956 -0.8248  0.8664
 9320TIP3    H249452   4.130   0.171   4.137  1.3097 -1.7130 -2.4192
 9321TIP3   OH249453   1.237   4.763  15.906 -0.4084 -0.1592 -0.0915
 9321TIP3    H149454   1.243   4.685  15.852 -0.8554 -0.5275  0.3870
 9321TIP3    H249455   1.211   4.833  15.845 -2.0872 -0.8052 -0.1607
 9322TIP3   OH249456   4.877   1.587  15.881  0.0595 -0.0243  0.0677
 9322TIP3    H149457   4.813   1.516  15.874 -2.4172  1.8958  1.5241
 9322TIP3    H249458   4.828   1.666  15.860  1.7320  1.6369  1.9663
 9323TIP3   OH249459   5.097   6.794   1.730  0.2021  0.3422 -0.0135
 9323TIP3    H149460   5.154   6.742   1.673  0.5061  0.1565  0.4547
 9323TIP3    H249461   5.128   6.884   1.718  0.1380  0.3283 -0.2883
 9324TIP3   OH249462   2.129   2.493  11.928 -0.7364  0.3279 -0.0792
 9324TIP3    H149463   2.088   2.575  11.956  0.6932  1.1526 -0.3093
 9324TIP3    H249464   2.109   2.487  11.835 -0.3174  0.7542 -0.2017
 9325TIP3   OH249465   2.299   3.415   3.665 -0.3598 -0.6029  0.0905
 9325TIP3    H149466   2.332   3.464   3.589 -0.9948  0.7948  0.6796
 9325TIP3    H249467   2.377   3.389   3.712 -0.0064  0.9393  0.4100
 9326TIP3   OH249468   5.567   6.452  13.373 -0.7798 -0.4178 -0.2852
 9326TIP3    H149469   5.486   6.410  13.403  0.4380 -2.1197  0.8608
 9326TIP3    H249470   5.580   6.417  13.285 -1.6084  0.3720 -0.7312
 9327TIP3   OH249471   5.493   6.641  15.999 -0.3911  0.1030  0.5619
 9327TIP3    H149472   5.472   6.567  16.057  1.1896  0.7554  2.0525
 9327TIP3    H249473   5.582   6.666  16.023 -1.0119  2.7620  0.4256
 9328TIP3   OH249474   6.262   4.590  15.508  0.3632 -0.3365 -0.1080
 9328TIP3    H149475   6.176   4.633  15.501  0.8268  0.9929  1.6778
 9328TIP3    H249476   6.256   4.537  15.587  1.5272  0.6486  0.6644
 9329TIP3   OH249477   4.016   2.020   6.166 -0.3240  0.1962 -0.5392
 9329TIP3    H149478   3.956   2.030   6.091 -1.1503  0.6878  0.1655
 9329TIP3    H249479   4.034   1.926   6.170  1.1227  0.3311 -2.3918
 9330TIP3   OH249480   3.027   0.382   2.811  0.3283  0.2329  0.2711
 9330TIP3    H149481   2.989   0.371   2.899 -1.0757  0.4873 -0.2754
 9330TIP3    H249482   2.973   0.450   2.771  1.1783  0.3640 -0.6861
 9331TIP3   OH249483   2.060   6.448   6.765  0.6789  0.3401  0.4822
 9331TIP3    H149484   2.025   6.536   6.780  1.2532  0.4736  1.0690
 9331TIP3    H249485   1.993   6.404   6.713 -0.3799  0.5791  1.6191
 9332TIP3   OH249486   3.302   0.324   1.683  0.4630 -0.5368 -0.0703
 9332TIP3    H149487   3.300   0.257   1.751  0.8539  1.7031  2.2865
 9332TIP3    H249488   3.369   0.386   1.712 -0.6505  1.4708 -1.5415
 9333TIP3   OH249489   1.468   5.116   3.967  0.3236 -0.0057  0.4857
 9333TIP3    H149490   1.491   5.023   3.963  1.5979  0.3055  0.0813
 9333TIP3    H249491   1.393   5.119   4.025 -0.0806 -1.3536  0.0786
 9334TIP3   OH249492   0.431   4.089   2.229  0.1473 -0.1007  0.3990
 9334TIP3    H149493   0.343   4.107   2.195  0.9216  1.6341 -0.7996
 9334TIP3    H249494   0.424   4.001   2.268 -1.8466 -0.4128 -0.5530
 9335TIP3   OH249495   1.099   2.519  14.316 -0.4105  0.6387 -0.2136
 9335TIP3    H149496   1.018   2.534  14.365 -0.0521 -1.1097  0.9866
 9335TIP3    H249497   1.160   2.583  14.352 -0.5841  0.3693  0.5850
 9336TIP3   OH249498   0.789   0.991  12.459 -0.1282 -0.8827  0.0555
 9336TIP3    H149499   0.819   0.945  12.538  0.4803 -2.6425 -1.1546
 9336TIP3    H249500   0.700   1.020  12.482 -0.1555 -1.7926  1.2364
 9337TIP3   OH249501   2.417   5.514  11.029 -0.0600 -0.4073 -0.5972
 9337TIP3    H149502   2.506   5.513  10.994  0.1419  0.1386 -0.1168
 9337TIP3    H249503   2.429   5.514  11.124 -0.5960 -1.9495 -0.5002
 9338TIP3   OH249504   4.997   0.710   0.187 -0.2788  0.5500 -0.2996
 9338TIP3    H149505   5.055   0.786   0.186  1.3556 -0.6605 -0.8371
 9338TIP3    H249506   4.985   0.687   0.095 -0.7861  0.1537 -0.1437
 9339TIP3   OH249507   2.622   2.750  15.887  0.0043  0.0334  0.2289
 9339TIP3    H149508   2.617   2.818  15.955 -2.6526 -0.7024  0.8782
 9339TIP3    H249509   2.531   2.734  15.862  0.6661 -2.2306 -1.0141
 9340TIP3   OH249510   2.494   5.935   5.940  0.4400 -0.3477 -0.1954
 9340TIP3    H149511   2.403   5.922   5.914 -0.3854  1.1157  1.6759
 9340TIP3    H249512   2.529   5.995   5.874 -0.1186 -0.4740 -0.6193
 9341TIP3   OH249513   3.365   1.360   3.074 -0.0712 -0.1130 -0.0386
 9341TIP3    H149514   3.330   1.272   3.088 -2.0323  0.7992  1.2282
 9341TIP3    H249515   3.381   1.393   3.162  0.2237  0.9448 -0.4826
 9342TIP3   OH249516   3.662   4.639   3.289 -0.0893  0.3599  0.2503
 9342TIP3    H149517   3.699   4.613   3.205  1.2638  2.0229  0.2697
 9342TIP3    H249518   3.639   4.557   3.332  0.2478 -0.5654 -1.2737
 9343TIP3   OH249519   3.214   5.572   5.214  0.1311  0.4824  0.0936
 9343TIP3    H149520   3.279   5.636   5.184 -1.8699  1.9021 -1.4977
 9343TIP3    H249521   3.181   5.531   5.134 -1.6101  0.5259  0.7345
 9344TIP3   OH249522   1.215   1.012   4.756 -0.0342  0.0392  0.3814
 9344TIP3    H149523   1.171   1.067   4.821  1.4533  1.3994  0.3138
 9344TIP3    H249524   1.159   1.016   4.679  0.5964  2.4983 -0.0203
 9345TIP3   OH249525   5.493   2.871  13.252  0.1468  0.0836  0.3256
 9345TIP3    H149526   5.445   2.793  13.224  2.2574 -0.6178 -1.6091
 9345TIP3    H249527   5.556   2.838  13.316  0.7424  0.2650 -0.1623
 9346TIP3   OH249528   1.909   3.538   5.715 -0.2995  0.3054 -0.2647
 9346TIP3    H149529   1.864   3.622   5.720  1.0505  1.3968 -3.6544
 9346TIP3    H249530   1.845   3.479   5.674 -0.2418  0.5351 -0.6886
 9347TIP3   OH249531   1.186   5.727  16.031  0.1042  0.6757 -0.6253
 9347TIP3    H149532   1.171   5.708  16.124 -0.1062 -1.2502 -1.0136
 9347TIP3    H249533   1.274   5.765  16.029 -0.0190  1.0596  0.3923
 9348TIP3   OH249534   1.011   3.671  10.739 -0.3570 -0.2608 -0.1983
 9348TIP3    H149535   1.054   3.756  10.744 -0.0714 -0.4451  0.5609
 9348TIP3    H249536   1.053   3.627  10.665 -0.4989  0.2494 -0.5838
 9349TIP3   OH249537   1.845   0.962  12.503 -1.0303  1.2835 -0.1860
 9349TIP3    H149538   1.774   1.013  12.463 -1.2822  1.0720 -0.0153
 9349TIP3    H249539   1.905   0.944  12.431 -1.2288  1.3335 -0.3665
 9350TIP3   OH249540   4.751   2.583   3.768 -0.2802  0.0146 -0.0887
 9350TIP3    H149541   4.836   2.602   3.808 -0.6838  1.3507  0.1910
 9350TIP3    H249542   4.710   2.519   3.826  2.4540 -4.7626 -2.7408
 9351TIP3   OH249543   5.121   2.273  11.965 -0.3301  0.0202 -0.1946
 9351TIP3    H149544   5.083   2.323  11.893  0.4030 -0.5360 -0.9999
 9351TIP3    H249545   5.199   2.323  11.990 -0.2143 -0.1344 -0.2446
 9352TIP3   OH249546   4.722   5.997   5.617  0.9039 -0.0142  0.2532
 9352TIP3    H149547   4.653   6.041   5.667 -1.9980 -1.4506 -2.1779
 9352TIP3    H249548   4.727   5.910   5.657  0.5585 -0.2438 -0.1982
 9353TIP3   OH249549   0.143   2.932   4.605  0.1904 -0.2319 -0.1504
 9353TIP3    H149550   0.069   2.967   4.653 -0.0078 -2.7098  1.5563
 9353TIP3    H249551   0.155   2.992   4.531 -3.3740  0.3731 -0.4092
 9354TIP3   OH249552   4.995   1.379   1.904 -0.0893 -0.5308  0.2883
 9354TIP3    H149553   4.978   1.429   1.984 -2.8372 -2.1634  0.8745
 9354TIP3    H249554   4.916   1.393   1.850  0.5197 -1.6149 -0.9341
 9355TIP3   OH249555   1.255   2.662  16.330 -0.4213  0.6199 -0.4664
 9355TIP3    H149556   1.342   2.665  16.370  0.4010 -0.2745 -2.0960
 9355TIP3    H249557   1.269   2.687  16.239 -1.1157 -3.1658 -1.8087
 9356TIP3   OH249558   0.032   2.069   2.210 -0.4407  0.4535 -0.8563
 9356TIP3    H149559   0.076   2.153   2.199 -1.0764  0.6159 -2.4876
 9356TIP3    H249560   0.074   2.012   2.145 -0.0028 -0.5050  0.2449
 9357TIP3   OH249561   0.043   5.324   3.290  0.1290 -0.3282  0.1202
 9357TIP3    H149562   0.133   5.301   3.265  0.1401 -1.3424  1.0074
 9357TIP3    H249563   0.048   5.416   3.315  0.3952  0.3351 -2.1740
 9358TIP3   OH249564   0.917   3.416  14.380  0.2924  0.4713 -0.2500
 9358TIP3    H149565   0.856   3.472  14.428  0.5730  0.3908  0.2086
 9358TIP3    H249566   0.953   3.473  14.312 -1.1834  0.1892 -1.3073
 9359TIP3   OH249567   0.099   2.654   1.952  0.1571 -0.3653  0.3330
 9359TIP3    H149568   0.138   2.576   1.912 -1.7600 -0.8787 -0.6536
 9359TIP3    H249569   0.114   2.724   1.888 -0.7950 -0.6385 -0.2015
 9360TIP3   OH249570   2.489   5.574   4.890 -0.1297  0.4346 -0.1575
 9360TIP3    H149571   2.417   5.529   4.934  0.6299  0.1935  0.8603
 9360TIP3    H249572   2.528   5.507   4.834  0.0821  0.2287  0.2381
 9361TIP3   OH249573   4.075   3.140   1.357 -0.1412 -0.4536 -0.4649
 9361TIP3    H149574   4.158   3.103   1.326  0.0157  0.1270 -0.7499
 9361TIP3    H249575   4.048   3.082   1.428  0.2138 -0.9859 -0.7518
 9362TIP3   OH249576   6.004   2.485   3.625  0.1566  0.0172  0.3309
 9362TIP3    H149577   6.011   2.542   3.702  0.7651 -0.5297  0.6862
 9362TIP3    H249578   5.987   2.398   3.661  0.8979 -0.3269 -0.1190
 9363TIP3   OH249579   3.671   1.369  15.084 -0.3325 -0.0115  0.7207
 9363TIP3    H149580   3.701   1.412  15.004  2.2685  0.1668  1.6956
 9363TIP3    H249581   3.638   1.440  15.139  1.4063  0.4641  1.2325
 9364TIP3   OH249582   0.659   5.952  12.705  0.3832  0.3054  0.0320
 9364TIP3    H149583   0.581   6.007  12.695 -1.1940 -1.5103  1.5816
 9364TIP3    H249584   0.625   5.866  12.728  2.8472 -0.8197 -0.2245
 9365TIP3   OH249585   4.163   0.018  16.364 -0.8871  0.6503 -0.0403
 9365TIP3    H149586   4.210   0.058  16.290 -0.5039 -0.5261 -0.4440
 9365TIP3    H249587   4.209  -0.064  16.381 -1.5571  0.4542  0.8993
 9366TIP3   OH249588   4.617   2.640  15.286 -0.0089  0.5313 -0.2668
 9366TIP3    H149589   4.611   2.711  15.222  0.3140 -0.0711 -0.9905
 9366TIP3    H249590   4.548   2.658  15.350 -2.3618 -0.3788 -2.3596
 9367TIP3   OH249591   2.328   1.905   5.979 -0.2392 -0.0184  0.2710
 9367TIP3    H149592   2.329   1.961   5.902 -1.0132 -0.1772  0.1360
 9367TIP3    H249593   2.419   1.901   6.008  0.0853 -0.1249 -0.7478
 9368TIP3   OH249594   3.202   4.127   5.293  0.1386 -0.2577 -0.6896
 9368TIP3    H149595   3.204   4.192   5.364  0.3475  1.4165 -2.1668
 9368TIP3    H249596   3.216   4.043   5.338 -0.6313  0.6303  1.3446
 9369TIP3   OH249597   6.292   4.137   4.932  0.2878 -0.4396 -0.3986
 9369TIP3    H149598   6.359   4.134   4.864  0.0884  1.9161 -0.8053
 9369TIP3    H249599   6.298   4.053   4.977  3.7905 -0.1644 -0.1410
 9370TIP3   OH249600   2.265   5.433  12.514  0.4299  0.1502 -0.0190
 9370TIP3    H149601   2.302   5.446  12.426 -0.2568  0.7081 -0.2363
 9370TIP3    H249602   2.342   5.430  12.571  0.8748  0.0603 -0.6040
 9371TIP3   OH249603   0.856   2.626  11.183 -0.2303 -0.7870  0.1869
 9371TIP3    H149604   0.916   2.695  11.211  0.6232 -0.1491 -2.7861
 9371TIP3    H249605   0.773   2.671  11.167 -0.3937 -0.9319  0.6218
 9372TIP3   OH249606   1.483   1.441   5.791 -0.5452 -0.3499  0.2344
 9372TIP3    H149607   1.446   1.521   5.828 -1.1761 -0.9797  1.0005
 9372TIP3    H249608   1.527   1.470   5.711  1.4038  1.1603  1.7498
 9373TIP3   OH249609   5.331   2.111  14.753 -0.7265 -0.3014 -0.0999
 9373TIP3    H149610   5.306   2.204  14.750  1.3768  0.3339  0.2917
 9373TIP3    H249611   5.388   2.104  14.829  1.1080 -1.3509 -1.4733
 9374TIP3   OH249612   0.307   6.336  15.690 -0.1545 -0.0490  0.2041
 9374TIP3    H149613   0.260   6.342  15.773  0.3417  0.3291  0.4715
 9374TIP3    H249614   0.254   6.279  15.636 -1.7606  1.5897 -0.0669
 9375TIP3   OH249615   4.072   1.030   4.107 -0.5858 -0.0502  0.0137
 9375TIP3    H149616   4.007   1.095   4.136 -1.7856 -1.2115 -0.0264
 9375TIP3    H249617   4.022   0.966   4.057  0.6306 -0.8751 -0.1767
 9376TIP3   OH249618   6.702   1.642   2.214  0.0657 -0.3658 -0.7258
 9376TIP3    H149619   6.761   1.674   2.283  1.5776  0.0816 -2.1608
 9376TIP3    H249620   6.733   1.553   2.196 -0.7592 -0.7312 -0.3813
 9377TIP3   OH249621   6.166   3.215  14.502  0.2585  0.3206 -0.5149
 9377TIP3    H149622   6.118   3.298  14.508  0.8993  0.6866 -0.2446
 9377TIP3    H249623   6.257   3.240  14.520  0.5320 -0.3676 -0.9205
 9378TIP3   OH249624   1.049   1.400   2.312  0.2841  0.4014 -0.4585
 9378TIP3    H149625   1.087   1.352   2.239  1.8839  0.0967  0.5155
 9378TIP3    H249626   0.983   1.341   2.348 -0.6289  0.6184 -1.7049
 9379TIP3   OH249627   4.674   1.762   3.210  0.3043  0.1377  0.1633
 9379TIP3    H149628   4.682   1.668   3.224  1.3588  0.3955  1.4079
 9379TIP3    H249629   4.755   1.788   3.167 -0.1475  0.4364 -0.5393
 9380TIP3   OH249630   4.789   0.478  17.273  0.4644  0.1624 -0.0060
 9380TIP3    H149631   4.858   0.425  17.314 -0.1584  0.5124  1.5512
 9380TIP3    H249632   4.829   0.510  17.192  1.1724 -1.8983 -0.5353
 9381TIP3   OH249633   4.012   6.205   3.571  0.1042 -0.4427 -0.1819
 9381TIP3    H149634   3.994   6.279   3.514 -2.4294  1.1806  2.4779
 9381TIP3    H249635   4.096   6.226   3.613  0.0834  0.2001 -0.4553
 9382TIP3   OH249636   4.162   1.986   5.158 -0.3714  0.3613  0.1612
 9382TIP3    H149637   4.249   2.009   5.190 -0.4392  0.6413  0.1502
 9382TIP3    H249638   4.156   2.027   5.072  0.0889 -1.0169 -0.5483
 9383TIP3   OH249639   1.354   4.127   3.180 -0.2213  0.2835 -0.3332
 9383TIP3    H149640   1.423   4.062   3.195  0.0441  0.3341 -1.2564
 9383TIP3    H249641   1.368   4.193   3.248 -1.8431 -1.6628  2.0673
 9384TIP3   OH249642   5.540   4.273  15.939  0.2653 -0.2451  0.5919
 9384TIP3    H149643   5.539   4.366  15.914  3.2051 -0.2652 -0.0034
 9384TIP3    H249644   5.626   4.242  15.911 -0.8543 -3.3609  0.2006
 9385TIP3   OH249645   4.634   5.678   0.515  0.4553 -0.6332 -0.1765
 9385TIP3    H149646   4.550   5.688   0.470  0.5512 -1.9596 -0.6650
 9385TIP3    H249647   4.627   5.737   0.591 -0.6820 -0.3005 -0.5197
 9386TIP3   OH249648   4.881   5.007  11.886 -0.3512 -0.2232 -0.1366
 9386TIP3    H149649   4.808   4.956  11.921 -0.4037  0.9132  1.4958
 9386TIP3    H249650   4.897   4.968  11.800 -3.4064 -0.0130 -0.9321
 9387TIP3   OH249651   6.683   4.364   0.146 -0.0710 -0.0675 -0.3837
 9387TIP3    H149652   6.713   4.446   0.185 -0.1878 -0.3768  0.3702
 9387TIP3    H249653   6.715   4.367   0.055  3.0852 -0.7804  0.5587
 9388TIP3   OH249654   2.632   2.062   0.084  0.8178 -0.0851  0.0029
 9388TIP3    H149655   2.641   2.050  -0.010 -0.8828  1.2492 -0.3710
 9388TIP3    H249656   2.677   2.145   0.102  1.6493 -0.6213  0.5000
 9389TIP3   OH249657   4.020   2.918  12.617  0.2084 -0.1397 -0.4337
 9389TIP3    H149658   3.983   2.872  12.542  1.3253  0.2432 -1.2505
 9389TIP3    H249659   4.013   3.011  12.594  0.4295 -0.0114  0.0048
 9390TIP3   OH249660   5.476   2.709  11.259 -0.4837  0.1546 -0.2456
 9390TIP3    H149661   5.499   2.669  11.175  0.0075  0.4406 -0.2512
 9390TIP3    H249662   5.394   2.756  11.241 -0.9153 -0.5956 -0.3094
 9391TIP3   OH249663   6.767   2.644   1.696 -0.5119  0.6788  0.4804
 9391TIP3    H149664   6.725   2.651   1.610 -0.3632 -1.1278  0.2298
 9391TIP3    H249665   6.854   2.682   1.683 -1.0019  1.7456  0.2305
 9392TIP3   OH249666   1.628   6.433  13.335 -0.0901  0.2864 -0.2317
 9392TIP3    H149667   1.601   6.431  13.427 -1.1629  0.7992 -0.5154
 9392TIP3    H249668   1.723   6.421  13.337 -0.3120 -1.5218  0.8228
 9393TIP3   OH249669   0.335   5.084  11.232 -0.2748 -0.1460  0.2094
 9393TIP3    H149670   0.376   5.135  11.162  0.5285 -0.8539  0.1374
 9393TIP3    H249671   0.331   4.995  11.196 -0.8216 -0.3119  0.6695
 9394TIP3   OH249672   5.074   4.912  12.420  0.0623 -0.6381  0.5061
 9394TIP3    H149673   5.039   4.906  12.509  1.0803 -2.6770  0.8394
 9394TIP3    H249674   5.167   4.890  12.429  0.3741 -0.0578 -0.9649
 9395TIP3   OH249675   6.631   1.749   5.142 -0.2650  0.1562  0.2525
 9395TIP3    H149676   6.641   1.673   5.199 -0.7630 -0.4233 -0.4153
 9395TIP3    H249677   6.673   1.723   5.060  1.0857  1.2446  0.5687
 9396TIP3   OH249678   0.282   3.923   3.073 -0.2452  0.0766  0.0060
 9396TIP3    H149679   0.349   3.883   3.019 -0.5840 -0.7172  0.1538
 9396TIP3    H249680   0.216   3.854   3.085 -1.2198  0.9115 -0.3625
 9397TIP3   OH249681   1.955   4.345  16.591  0.1054  0.6200 -0.6938
 9397TIP3    H149682   1.862   4.364  16.605  0.2109  1.9944 -1.6901
 9397TIP3    H249683   1.965   4.341  16.496  1.4659  2.9011 -0.7366
 9398TIP3   OH249684   2.898   3.937  13.832 -0.2931  0.2974  0.0625
 9398TIP3    H149685   2.899   4.003  13.764 -1.0320  0.1133 -0.1278
 9398TIP3    H249686   2.989   3.905  13.836 -0.5663 -0.8813 -2.0009
 9399TIP3   OH249687   5.192   1.190  14.711 -0.1337 -0.5972 -0.2688
 9399TIP3    H149688   5.098   1.208  14.707 -0.0885  0.4157  1.8099
 9399TIP3    H249689   5.199   1.099  14.739 -0.5460 -0.2880  0.8924
 9400TIP3   OH249690   4.660   6.761   6.558 -0.7055  0.0971 -0.5041
 9400TIP3    H149691   4.598   6.794   6.492  1.4283  0.3049 -2.5298
 9400TIP3    H249692   4.640   6.668   6.565 -1.0174  0.0877 -1.4087
 9401TIP3   OH249693   6.451   4.423   5.205 -0.6810 -0.7592  0.0650
 9401TIP3    H149694   6.410   4.430   5.291 -0.2015 -0.2172  0.2508
 9401TIP3    H249695   6.543   4.443   5.220 -1.0359  2.1539 -0.9939
 9402TIP3   OH249696   5.769   0.161  12.203 -0.2352  0.2825 -0.2312
 9402TIP3    H149697   5.833   0.154  12.132  1.1147 -1.8816  1.0443
 9402TIP3    H249698   5.718   0.080  12.197 -1.6495  1.1339 -0.0921
 9403TIP3   OH249699   5.810   1.388   4.238  0.7532 -0.4273 -0.3806
 9403TIP3    H149700   5.806   1.480   4.264  1.1084 -0.9422  1.7176
 9403TIP3    H249701   5.865   1.387   4.159 -0.9739  1.3440 -1.6895
 9404TIP3   OH249702   3.133   1.919   0.198  0.8445  0.8289 -0.0281
 9404TIP3    H149703   3.171   1.997   0.237  0.8769  0.6019  0.4053
 9404TIP3    H249704   3.040   1.922   0.222  0.8840  0.6380  0.1492
 9405TIP3   OH249705   0.732   6.177   0.741  0.2596  0.3048  0.0159
 9405TIP3    H149706   0.647   6.133   0.740 -0.1782  1.1302  0.0938
 9405TIP3    H249707   0.711   6.270   0.733  1.2122  0.4495 -1.0739
 9406TIP3   OH249708   1.673   3.591   0.894  0.6994  0.6129  0.2741
 9406TIP3    H149709   1.758   3.591   0.938 -0.1342 -0.7339  2.0251
 9406TIP3    H249710   1.664   3.503   0.857  0.1128  0.7595  0.0486
 9407TIP3   OH249711   0.505   4.416  13.242  0.6310 -0.0599 -0.5903
 9407TIP3    H149712   0.580   4.470  13.218  3.2592 -1.4223  3.5857
 9407TIP3    H249713   0.441   4.478  13.276  1.2278  0.8626 -1.1088
 9408TIP3   OH249714   0.095   5.015  16.305  0.1331 -0.3005  0.5560
 9408TIP3    H149715   0.066   5.074  16.236 -0.4638 -0.8956  0.2836
 9408TIP3    H249716   0.029   5.024  16.374  0.3602 -0.2126  0.7623
 9409TIP3   OH249717   6.606   1.953   0.665  0.1825  0.4490  0.5397
 9409TIP3    H149718   6.523   1.981   0.626  1.5020  2.7275 -0.8687
 9409TIP3    H249719   6.597   1.973   0.758 -0.7256  0.9697  0.3551
 9410TIP3   OH249720   5.241   0.140   4.642 -0.2875 -0.0456 -0.0944
 9410TIP3    H149721   5.316   0.115   4.588  0.3726 -1.0950  1.2605
 9410TIP3    H249722   5.277   0.151   4.730 -1.9163 -1.9485  0.8934
 9411TIP3   OH249723   1.217   4.288   6.637 -0.0453 -0.3923  0.4910
 9411TIP3    H149724   1.195   4.280   6.730 -1.2086 -1.0564  0.1848
 9411TIP3    H249725   1.304   4.248   6.629  0.6454  0.8620  1.4969
 9412TIP3   OH249726   2.407   6.740  12.541 -0.2382 -0.2950  0.4135
 9412TIP3    H149727   2.326   6.701  12.507 -0.7887  0.7569  0.5055
 9412TIP3    H249728   2.432   6.805  12.475 -0.3059  0.4609  1.1187
 9413TIP3   OH249729   3.251   4.303   1.043  0.3387  0.6387 -0.6380
 9413TIP3    H149730   3.327   4.346   1.084 -0.6687  1.3386  0.5586
 9413TIP3    H249731   3.236   4.225   1.096  0.1240  0.5962 -0.7611
 9414TIP3   OH249732   4.807   3.038  11.521 -0.1836 -0.2591 -0.1154
 9414TIP3    H149733   4.750   2.963  11.540 -1.0048  0.7037  1.4002
 9414TIP3    H249734   4.846   3.061  11.605 -0.9567  1.7929 -0.2579
 9415TIP3   OH249735   4.778   3.112  16.759  0.4389 -0.5365  0.3919
 9415TIP3    H149736   4.847   3.172  16.788 -0.4696  0.6107  0.2945
 9415TIP3    H249737   4.813   3.025  16.775  2.2450 -0.0119 -0.4334
 9416TIP3   OH249738   4.091   6.397  10.410 -0.1856  0.2400  0.4883
 9416TIP3    H149739   4.041   6.385  10.491  0.0142 -0.0385  0.5671
 9416TIP3    H249740   4.155   6.326  10.409  1.4462  1.6235  1.2959
 9417TIP3   OH249741   5.179   1.654  11.341 -0.6304  1.2268  0.7953
 9417TIP3    H149742   5.187   1.613  11.255  0.5813  2.8612  0.0759
 9417TIP3    H249743   5.223   1.593  11.401 -2.2573 -0.3534  0.4618
 9418TIP3   OH249744   5.913   4.019   2.387 -0.4176 -0.1280 -0.2733
 9418TIP3    H149745   6.001   4.032   2.421 -0.8279 -0.8446  1.1657
 9418TIP3    H249746   5.919   3.942   2.331 -0.1189 -0.1220 -0.2480
 9419TIP3   OH249747   0.345   1.048   3.460 -0.2003 -0.3783  0.2301
 9419TIP3    H149748   0.372   1.083   3.375 -0.4515  0.1364  0.3567
 9419TIP3    H249749   0.425   1.009   3.496  0.1394  0.2372  0.1635
 9420TIP3   OH249750   6.360   1.056   5.424  0.1329 -0.0924 -0.5390
 9420TIP3    H149751   6.290   0.992   5.416  1.4055 -1.9283  1.7904
 9420TIP3    H249752   6.325   1.125   5.480 -1.2178  1.3617 -2.9979
 9421TIP3   OH249753   5.508   4.863  17.077  0.2663 -0.0465 -0.0970
 9421TIP3    H149754   5.484   4.819  16.996 -2.1278 -0.1330  0.5747
 9421TIP3    H249755   5.467   4.949  17.071  1.2251  0.4740  0.4625
 9422TIP3   OH249756   1.398   6.502  15.543  0.0880 -0.5107  0.0556
 9422TIP3    H149757   1.432   6.578  15.591 -0.1940 -0.8721  0.8456
 9422TIP3    H249758   1.437   6.509  15.456  2.3518 -1.0023  0.9650
 9423TIP3   OH249759   1.626   5.089  12.528 -0.2569 -0.3101  0.2824
 9423TIP3    H149760   1.717   5.092  12.498 -0.2356  0.2516  0.3823
 9423TIP3    H249761   1.604   4.996  12.531 -0.1453 -0.4023 -1.1299
 9424TIP3   OH249762   2.125   3.983  13.241 -0.6695  0.7811  0.1734
 9424TIP3    H149763   2.188   3.966  13.170 -1.6023 -0.5142 -0.3866
 9424TIP3    H249764   2.044   4.007  13.196 -1.0914  0.5900  0.8189
 9425TIP3   OH249765   2.914   5.114   1.397 -0.3642 -0.3260 -0.4072
 9425TIP3    H149766   2.909   5.052   1.469 -0.2405 -1.3743 -1.2669
 9425TIP3    H249767   3.007   5.133   1.387 -0.3840 -0.1564 -0.2750
 9426TIP3   OH249768   0.054   5.997  14.298  0.5680  0.2874  0.1020
 9426TIP3    H149769   0.124   6.051  14.333  1.4505 -0.3545 -0.6131
 9426TIP3    H249770   0.052   6.017  14.205 -0.3343  0.4383  0.1476
 9427TIP3   OH249771   4.332   0.327  16.525 -0.3281  0.0118 -0.3280
 9427TIP3    H149772   4.400   0.260  16.518 -0.2937  0.0260 -0.1357
 9427TIP3    H249773   4.347   0.385  16.450  1.5094  1.5393  1.1289
 9428TIP3   OH249774   6.748   0.659  11.134  0.1980  0.2232  0.7569
 9428TIP3    H149775   6.794   0.683  11.053 -2.6220 -1.8218 -1.6655
 9428TIP3    H249776   6.684   0.729  11.146 -0.0335  0.0353  0.6302
 9429TIP3   OH249777   3.471   3.617  12.455 -0.0318 -0.0226  0.1359
 9429TIP3    H149778   3.428   3.687  12.406 -0.3146  0.1217  0.5962
 9429TIP3    H249779   3.401   3.575  12.505 -0.5648 -2.8035 -2.6149
 9430TIP3   OH249780   1.411   1.445  15.539 -0.3320  0.3174 -0.7278
 9430TIP3    H149781   1.350   1.371  15.531  0.0164 -0.2930  1.5837
 9430TIP3    H249782   1.357   1.517  15.572  0.0657 -0.1145  0.9491
 9431TIP3   OH249783   2.193   2.649  13.808  0.2380 -0.6052 -0.2764
 9431TIP3    H149784   2.175   2.704  13.732  0.5637 -0.3441 -0.1683
 9431TIP3    H249785   2.237   2.708  13.870  0.6169 -0.9945 -0.1733
 9432TIP3   OH249786   3.877   0.613  14.072 -0.2088  0.1646  0.0264
 9432TIP3    H149787   3.901   0.580  13.985 -0.0735  0.7509 -0.1624
 9432TIP3    H249788   3.785   0.638  14.063  0.3884  2.3499 -0.6240
 9433TIP3   OH249789   5.169   0.326  14.500 -0.0453  0.4717  0.1529
 9433TIP3    H149790   5.252   0.348  14.542 -0.6861  0.0271  1.7103
 9433TIP3    H249791   5.167   0.230  14.499 -1.2283  0.4320  1.6516
 9434TIP3   OH249792   5.310   3.572   0.751  0.4623  0.2562  0.5835
 9434TIP3    H149793   5.241   3.505   0.757  0.5206  0.1449  0.0655
 9434TIP3    H249794   5.391   3.525   0.767  0.6052 -0.0148 -0.8305
 9435TIP3   OH249795   3.349   4.387  15.830  0.3368  0.8055 -0.3853
 9435TIP3    H149796   3.310   4.466  15.792 -0.5529  0.8976  0.6719
 9435TIP3    H249797   3.276   4.343  15.874  1.1129  0.1525  0.2808
 9436TIP3   OH249798   2.429   4.910   0.685 -0.2042  0.3570  0.2587
 9436TIP3    H149799   2.427   4.956   0.601  0.7513 -1.8254 -1.0338
 9436TIP3    H249800   2.351   4.855   0.684  0.6383 -0.8671  0.0482
 9437TIP3   OH249801   4.505   4.180   0.388 -0.2286 -0.2900  0.4046
 9437TIP3    H149802   4.459   4.208   0.309  1.1427  0.8165 -0.0479
 9437TIP3    H249803   4.589   4.148   0.356  0.2743  0.0099  1.3953
 9438TIP3   OH249804   3.518   1.846  11.255 -0.1200  0.1654 -0.0013
 9438TIP3    H149805   3.521   1.871  11.163  0.0527 -1.2153 -0.3945
 9438TIP3    H249806   3.426   1.825  11.271 -0.2533  0.9495  0.3097
 9439TIP3   OH249807   0.672   0.140  12.905 -0.0887 -0.1654 -0.1904
 9439TIP3    H149808   0.690   0.101  12.819  0.1640 -1.4047  0.4084
 9439TIP3    H249809   0.593   0.191  12.892 -0.0197 -0.2883 -1.1812
 9440TIP3   OH249810   6.528   5.612   4.710  0.1437  0.3121  0.5388
 9440TIP3    H149811   6.472   5.584   4.782  0.9345  2.1408  1.9472
 9440TIP3    H249812   6.572   5.691   4.742  2.1079  0.0303 -1.1868
 9441TIP3   OH249813   5.466   4.183  15.471 -0.5749  0.7939  0.8165
 9441TIP3    H149814   5.535   4.121  15.446  0.6355  1.6244  1.9826
 9441TIP3    H249815   5.416   4.196  15.390  0.3923 -0.1140  0.0344
 9442TIP3   OH249816   6.053   4.786  13.285 -0.1384  0.1271  0.4336
 9442TIP3    H149817   6.144   4.756  13.278  0.1153  1.0788 -0.7343
 9442TIP3    H249818   6.052   4.869  13.236 -1.4785  0.4812  1.0306
 9443TIP3   OH249819   4.246   1.614   0.154 -0.0864 -0.0642  0.2902
 9443TIP3    H149820   4.210   1.577   0.234  0.8369  0.9794  1.2310
 9443TIP3    H249821   4.314   1.553   0.127 -0.1952 -0.2672  0.4764
 9444TIP3   OH249822   2.688   1.254  15.260 -0.9605 -0.2772  0.0658
 9444TIP3    H149823   2.621   1.193  15.230 -0.3618 -0.5498 -0.7396
 9444TIP3    H249824   2.771   1.217  15.229 -0.6439  1.3517 -1.2194
 9445TIP3   OH249825   0.651   0.394   6.005  0.6992 -0.8422 -0.5611
 9445TIP3    H149826   0.582   0.338   5.969  0.6997 -1.2862  0.1086
 9445TIP3    H249827   0.648   0.378   6.099  0.0818  0.9993 -0.2353
 9446TIP3   OH249828   5.750   5.178  15.615 -0.2416  0.0071  0.1595
 9446TIP3    H149829   5.813   5.246  15.640  0.5146 -0.1802 -1.0994
 9446TIP3    H249830   5.733   5.130  15.695  1.8941 -0.4509  0.4104
 9447TIP3   OH249831   2.335   6.298   3.557  0.4127 -0.1250  0.1260
 9447TIP3    H149832   2.267   6.265   3.498  0.6812  0.8472 -0.7614
 9447TIP3    H249833   2.312   6.262   3.643 -0.4454 -0.9124 -0.4165
 9448TIP3   OH249834   5.328   1.746  12.233  0.2515  0.0987 -0.2609
 9448TIP3    H149835   5.335   1.651  12.237 -1.8130 -0.1078 -0.2648
 9448TIP3    H249836   5.280   1.762  12.151  1.1762  1.1938 -0.6072
 9449TIP3   OH249837   1.254   3.507   0.062  0.0428  0.4142  0.0267
 9449TIP3    H149838   1.216   3.422   0.039  0.1741  0.0666  1.0587
 9449TIP3    H249839   1.219   3.567  -0.004 -1.9830  0.0415  0.6796
 9450TIP3   OH249840   0.789   3.739   6.568  0.5359  0.5732 -0.0870
 9450TIP3    H149841   0.837   3.716   6.489  1.2524 -1.6097  0.8942
 9450TIP3    H249842   0.852   3.791   6.620  0.4687  1.0087 -0.4348
 9451TIP3   OH249843   6.309   2.127   1.567 -0.4561  0.2671  0.0541
 9451TIP3    H149844   6.247   2.140   1.639 -1.1872 -0.5411 -0.4097
 9451TIP3    H249845   6.381   2.078   1.607 -0.5202  0.4599  0.4081
 9452TIP3   OH249846   5.857   6.454  11.153  0.3816  0.0324 -0.5780
 9452TIP3    H149847   5.838   6.444  11.060  0.9716 -0.7115 -0.6307
 9452TIP3    H249848   5.937   6.403  11.166 -0.0158 -0.3519  0.4501
 9453TIP3   OH249849   6.622   1.432  17.089  0.8892  0.1962 -0.0629
 9453TIP3    H149850   6.538   1.451  17.047  0.9182  1.9043  0.5612
 9453TIP3    H249851   6.640   1.341  17.067 -1.4782 -0.4511  0.3655
 9454TIP3   OH249852   6.070   5.135  17.222 -0.4626  0.1265 -0.1689
 9454TIP3    H149853   5.986   5.090  17.219 -0.5133  0.2527 -0.9838
 9454TIP3    H249854   6.120   5.088  17.288  0.9459 -3.7068 -3.5478
 9455TIP3   OH249855   4.900   3.838   1.433 -0.4741  0.7514 -0.2924
 9455TIP3    H149856   4.986   3.880   1.433 -1.2919  2.5284 -1.2057
 9455TIP3    H249857   4.840   3.907   1.405 -2.1305 -0.6088 -0.2238
 9456TIP3   OH249858   4.432   2.560   3.327 -0.0684  0.3391 -0.3171
 9456TIP3    H149859   4.344   2.542   3.358 -0.2918 -0.0561 -1.1707
 9456TIP3    H249860   4.486   2.562   3.407 -1.0616  1.9979  0.3658
 9457TIP3   OH249861   2.214   5.488  13.009 -0.5506  0.0416  0.2820
 9457TIP3    H149862   2.128   5.473  13.049 -1.5298  0.9163 -1.4035
 9457TIP3    H249863   2.216   5.582  12.989 -0.2256 -0.3675 -1.8830
 9458TIP3   OH249864   5.902   5.546  12.606  0.5412 -0.1915  0.6596
 9458TIP3    H149865   5.986   5.592  12.601 -1.0989  2.9617 -2.1015
 9458TIP3    H249866   5.863   5.577  12.688  1.3319 -0.3562  1.1175
 9459TIP3   OH249867   2.057   0.392  13.394  0.2173  0.0794  0.1557
 9459TIP3    H149868   2.107   0.426  13.320  0.4007  0.0914  0.2857
 9459TIP3    H249869   2.117   0.333  13.439  0.5074  0.9855  0.9939
 9460TIP3   OH249870   2.743   0.646   4.055  0.0189 -0.1453  0.2578
 9460TIP3    H149871   2.674   0.593   4.014  1.3029 -0.3523 -1.7925
 9460TIP3    H249872   2.696   0.719   4.095 -1.3531  1.0734 -3.1561
 9461TIP3   OH249873   2.989   5.095  13.339 -0.6120 -0.1743 -0.0151
 9461TIP3    H149874   3.021   5.096  13.249  1.2411 -3.1266  0.4633
 9461TIP3    H249875   3.044   5.157  13.386 -1.8527  1.6931 -0.8823
 9462TIP3   OH249876   1.243   2.316   1.896  0.3913  0.0742  0.3677
 9462TIP3    H149877   1.306   2.348   1.832  0.0424 -0.0406 -0.0436
 9462TIP3    H249878   1.158   2.336   1.857  0.1629 -1.0670  0.2316
 9463TIP3   OH249879   6.368   6.106   1.097 -0.1327 -0.2329  0.5670
 9463TIP3    H149880   6.295   6.129   1.154 -1.3861  0.3469 -1.1936
 9463TIP3    H249881   6.419   6.187   1.088 -1.3493  0.4085 -1.0700
 9464TIP3   OH249882   2.232   5.922   5.889  0.0348  1.3131  0.2017
 9464TIP3    H149883   2.161   5.906   5.952  1.2046  2.8502  2.0132
 9464TIP3    H249884   2.187   5.930   5.805 -1.8443  1.4285  1.1457
 9465TIP3   OH249885   2.177   6.410   4.308 -0.2969  0.6006  0.0924
 9465TIP3    H149886   2.177   6.348   4.381 -0.4815  0.6020  0.0933
 9465TIP3    H249887   2.176   6.354   4.230  1.6136  0.5481  0.0411
 9466TIP3   OH249888   0.381   4.666   6.659 -0.4546 -0.3083  0.3017
 9466TIP3    H149889   0.448   4.685   6.726  0.6075  0.2333 -0.8720
 9466TIP3    H249890   0.386   4.740   6.598 -0.5605 -1.3572 -1.0249
 9467TIP3   OH249891   3.314   5.214  12.061 -0.3277  0.2274  0.1591
 9467TIP3    H149892   3.241   5.197  12.121 -0.4417 -0.7748 -0.2537
 9467TIP3    H249893   3.281   5.188  11.975  0.6476 -0.6068  0.0273
 9468TIP3   OH249894   5.680   5.407   4.114 -0.0595  0.0194 -0.8986
 9468TIP3    H149895   5.709   5.316   4.104 -0.2195 -0.0751 -0.5042
 9468TIP3    H249896   5.751   5.450   4.161 -0.8681 -0.3949  0.7621
 9469TIP3   OH249897   3.432   4.217   3.852 -0.2762  0.0998 -0.6349
 9469TIP3    H149898   3.368   4.163   3.807  0.3109  0.5641 -2.0950
 9469TIP3    H249899   3.385   4.252   3.928 -1.4550 -0.3405 -1.1391
 9470TIP3   OH249900   0.114   5.632  11.939  0.2058 -0.0003  0.2355
 9470TIP3    H149901   0.080   5.720  11.954 -0.9984 -0.3780 -0.1434
 9470TIP3    H249902   0.169   5.614  12.016 -0.2992  0.7122  0.7801
 9471TIP3   OH249903   2.875   3.116  12.591  0.0070 -0.0557  0.0221
 9471TIP3    H149904   2.937   3.167  12.643  1.0458  2.1006 -3.0122
 9471TIP3    H249905   2.805   3.178  12.569 -0.3710 -0.8544 -1.1143
 9472TIP3   OH249906   1.988   4.249  16.874 -0.6722 -0.1511  0.1140
 9472TIP3    H149907   2.017   4.162  16.902  1.8977  0.8873  0.9893
 9472TIP3    H249908   2.000   4.249  16.779 -0.1801 -0.5940  0.1698
 9473TIP3   OH249909   3.851   6.636   4.082  0.4419  0.2643 -0.1217
 9473TIP3    H149910   3.796   6.710   4.107 -0.3611  0.7690 -2.9758
 9473TIP3    H249911   3.877   6.596   4.165 -1.3101  2.1240  1.4361
 9474TIP3   OH249912   1.489   1.039   2.725  0.1711  0.3359 -0.1517
 9474TIP3    H149913   1.541   1.115   2.701  0.5463  0.2253  0.2881
 9474TIP3    H249914   1.401   1.059   2.694  0.7672 -0.1365 -2.2929
 9475TIP3   OH249915   1.471   6.226  12.153 -0.5144 -0.2470  0.1175
 9475TIP3    H149916   1.499   6.137  12.131  1.0798  0.8449 -2.8468
 9475TIP3    H249917   1.412   6.251  12.081 -0.8424  1.1355  0.8327
 9476TIP3   OH249918   5.004   2.562   4.469 -0.0171  0.2765  0.0319
 9476TIP3    H149919   4.958   2.583   4.387  0.2972  0.5848 -0.0648
 9476TIP3    H249920   4.985   2.635   4.527 -1.6106 -0.7031  0.8227
 9477TIP3   OH249921   1.727   3.749   2.497 -0.2441 -0.3056  0.0904
 9477TIP3    H149922   1.740   3.678   2.433 -1.0994  0.6663 -1.2082
 9477TIP3    H249923   1.815   3.774   2.523  0.1065 -1.0224 -0.3608
 9478TIP3   OH249924   2.952   0.067  12.459  0.0318 -0.0516  0.1144
 9478TIP3    H149925   2.951  -0.009  12.517 -1.3676 -0.5511 -0.5147
 9478TIP3    H249926   2.865   0.069  12.421  0.2111  1.5737 -0.2950
 9479TIP3   OH249927   3.613   2.471   3.598 -0.2887 -0.6314 -0.1095
 9479TIP3    H149928   3.578   2.557   3.573  1.2890 -0.5754 -2.4142
 9479TIP3    H249929   3.618   2.474   3.694 -1.8320  1.1823 -0.0263
 9480TIP3   OH249930   2.094   6.428  16.548  0.4335 -0.3969  0.3088
 9480TIP3    H149931   2.013   6.379  16.538  1.0183 -1.2100 -0.5279
 9480TIP3    H249932   2.153   6.367  16.592  0.7762  0.0012  0.4039
 9481TIP3   OH249933   1.097   4.626  11.832  0.2035 -0.0805 -0.6933
 9481TIP3    H149934   1.136   4.559  11.776  0.8698  0.1479 -0.5086
 9481TIP3    H249935   1.123   4.601  11.921  0.3700  0.3715 -0.6136
 9482TIP3   OH249936   2.477   2.585  12.796  0.1995 -0.0077  0.0656
 9482TIP3    H149937   2.385   2.596  12.817 -0.2837  1.9774 -2.5152
 9482TIP3    H249938   2.480   2.511  12.735 -0.0860  1.2064 -1.5046
 9483TIP3   OH249939   5.266   5.073  12.537  0.6253  0.4481  0.0771
 9483TIP3    H149940   5.171   5.082  12.546  0.4093 -0.8314 -0.7925
 9483TIP3    H249941   5.295   5.035  12.620  0.1190 -0.8531 -0.3204
 9484TIP3   OH249942   6.265   5.250  13.200 -0.3287 -0.4184  0.0154
 9484TIP3    H149943   6.300   5.263  13.288  0.7987 -0.7918 -0.3577
 9484TIP3    H249944   6.186   5.303  13.198 -0.3387 -0.3490  1.2301
 9485TIP3   OH249945   4.719   3.388  16.828  0.3481 -0.2238 -0.6797
 9485TIP3    H149946   4.730   3.432  16.743 -3.3811  2.2972 -0.1026
 9485TIP3    H249947   4.780   3.433  16.886 -0.6524  1.6130 -0.9796
 9486TIP3   OH249948   0.085   2.509   5.516  0.2604 -0.2284  0.0242
 9486TIP3    H149949   0.030   2.580   5.482  1.4431  0.8529  0.2799
 9486TIP3    H249950   0.102   2.453   5.440  0.8744  0.8175 -0.6309
 9487TIP3   OH249951   4.372   3.587  11.602  0.2646 -0.3409  0.5303
 9487TIP3    H149952   4.391   3.609  11.511  0.0032 -2.1431  0.0018
 9487TIP3    H249953   4.394   3.667  11.651  1.2752  0.3617 -0.9834
 9488TIP3   OH249954   3.445   3.445   0.135  0.1766  0.1162 -0.4016
 9488TIP3    H149955   3.486   3.433   0.221 -0.7510  1.0845  0.2167
 9488TIP3    H249956   3.374   3.381   0.133  0.7738 -0.5424 -0.8479
 9489TIP3   OH249957   6.665   1.007   1.409  0.1008  0.0121  0.0473
 9489TIP3    H149958   6.682   0.913   1.421  1.5123  0.0747 -1.1441
 9489TIP3    H249959   6.576   1.011   1.375  0.7914 -1.1350 -2.1097
 9490TIP3   OH249960   1.915   6.443  13.339  0.2103  0.7422 -0.5767
 9490TIP3    H149961   1.962   6.384  13.397 -0.3550  0.1463 -0.7136
 9490TIP3    H249962   1.943   6.531  13.366  1.2609  0.4101 -0.5582
 9491TIP3   OH249963   0.893   1.495  14.437 -0.4768  0.6775  0.4527
 9491TIP3    H149964   0.890   1.558  14.364 -0.6199 -0.1952 -0.3100
 9491TIP3    H249965   0.972   1.444  14.420  0.3615  1.4642  1.7811
 9492TIP3   OH249966   5.748   5.884  16.436 -0.0013 -0.0989 -0.6282
 9492TIP3    H149967   5.758   5.882  16.341 -1.7022 -0.4467 -0.8414
 9492TIP3    H249968   5.689   5.959  16.451 -0.3955 -0.5415  0.0614
 9493TIP3   OH249969   5.768   3.613  17.088 -0.6462  0.9882 -0.4045
 9493TIP3    H149970   5.816   3.535  17.060  0.2326  0.8757  1.2966
 9493TIP3    H249971   5.763   3.667  17.009  2.1425  0.9080 -0.7598
 9494TIP3   OH249972   5.895   6.529  16.996  0.0115  0.6224  0.8601
 9494TIP3    H149973   5.872   6.444  17.033  0.4769  0.2461  0.3044
 9494TIP3    H249974   5.823   6.587  17.023 -1.4055 -0.4172 -0.5036
 9495TIP3   OH249975   1.932   2.284   3.345 -0.4395 -0.6096  0.2686
 9495TIP3    H149976   2.013   2.333   3.352 -1.0873  0.9430 -2.0216
 9495TIP3    H249977   1.957   2.202   3.303 -0.0765 -0.0083 -0.7070
 9496TIP3   OH249978   6.797   0.798   6.328 -0.4459  0.6483  0.6758
 9496TIP3    H149979   6.843   0.719   6.301 -0.4181  1.0136 -0.3838
 9496TIP3    H249980   6.742   0.821   6.253  1.1344  2.8429  0.0629
 9497TIP3   OH249981   5.909   1.820  12.405 -0.0960 -0.3391 -0.1154
 9497TIP3    H149982   5.985   1.803  12.350  1.0912  1.8570  0.7328
 9497TIP3    H249983   5.836   1.829  12.344  1.3617  3.0783 -1.5630
 9498TIP3   OH249984   3.657   4.128   4.012  0.3919  0.4668 -0.1974
 9498TIP3    H149985   3.584   4.163   3.962 -1.0898  0.6956  2.0031
 9498TIP3    H249986   3.673   4.192   4.081  2.2090  0.0598 -0.1744
 9499TIP3   OH249987   3.353   0.076  11.807 -0.2177  0.0114 -0.4801
 9499TIP3    H149988   3.325   0.033  11.726  2.1358 -0.5235 -1.0926
 9499TIP3    H249989   3.366   0.004  11.869  0.0385  0.2062 -0.3057
 9500TIP3   OH249990   3.296   3.643  11.334 -0.4327 -0.1694 -0.6677
 9500TIP3    H149991   3.334   3.583  11.270  1.6444  0.5787 -0.2250
 9500TIP3    H249992   3.213   3.602  11.360 -0.6696 -1.1522 -2.7981
 9501TIP3   OH249993   4.782   0.232   4.465  0.2906 -0.1620  0.1597
 9501TIP3    H149994   4.872   0.256   4.490  0.4584  1.6493 -1.8968
 9501TIP3    H249995   4.731   0.311   4.485 -0.5822 -0.6771 -0.0232
 9502TIP3   OH249996   1.760   3.882  15.434  0.1926  0.3066  0.5142
 9502TIP3    H149997   1.805   3.875  15.350  1.1555  1.5389  0.8953
 9502TIP3    H249998   1.749   3.976  15.448 -0.6624  0.0904  1.4110
 9503TIP3   OH249999   2.462   2.425  15.852 -0.3959  0.0741 -0.7953
 9503TIP3    H150000   2.458   2.404  15.945  1.8567  1.3326 -0.3496
 9503TIP3    H250001   2.407   2.502  15.842 -0.6590 -0.0759 -0.4991
 9504TIP3   OH250002   3.595   2.361   0.345 -0.7915  0.1146 -0.6639
 9504TIP3    H150003   3.625   2.417   0.416  3.1853 -1.4435 -0.8656
 9504TIP3    H250004   3.619   2.408   0.265 -1.8383  0.2102 -0.9350
 9505TIP3   OH250005   0.428   4.413  17.284 -0.2534  0.1229  0.1427
 9505TIP3    H150006   0.473   4.382  17.205 -0.0697 -0.4090  0.4515
 9505TIP3    H250007   0.499   4.441  17.342 -0.1973 -1.8754  1.1297
 9506TIP3   OH250008   5.430   3.511   0.469 -0.2377 -0.3958 -0.1092
 9506TIP3    H150009   5.465   3.465   0.393  1.5596 -1.6460  1.3609
 9506TIP3    H250010   5.505   3.560   0.503 -0.5965 -0.9982  1.6366
 9507TIP3   OH250011   6.382   3.126  10.593  0.2581  0.0160  0.8310
 9507TIP3    H150012   6.405   3.215  10.617 -0.8184  1.1100 -1.8965
 9507TIP3    H250013   6.292   3.132  10.559 -0.7044 -2.5174  2.6044
 9508TIP3   OH250014   4.028   2.164   0.631 -0.3710 -0.0705 -0.0681
 9508TIP3    H150015   3.942   2.141   0.595 -0.2615  0.8395 -0.9623
 9508TIP3    H250016   4.085   2.169   0.554  0.1435  0.7419  0.3586
 9509TIP3   OH250017   1.159   3.827  11.317 -0.0114  0.4059 -0.3744
 9509TIP3    H150018   1.073   3.787  11.329 -0.0003  0.9439  2.0500
 9509TIP3    H250019   1.188   3.848  11.406  1.8488  1.8772 -1.2630
 9510TIP3   OH250020   0.851   5.333   1.060 -0.4430  0.8462  0.4823
 9510TIP3    H150021   0.806   5.417   1.052 -0.6249  0.8892  1.7564
 9510TIP3    H250022   0.807   5.289   1.133 -1.1627 -0.8824 -0.8993
 9511TIP3   OH250023   6.230   4.497   3.629  0.0368  0.0609 -0.1839
 9511TIP3    H150024   6.181   4.415   3.638  2.1051 -1.5740 -2.3662
 9511TIP3    H250025   6.174   4.552   3.573 -0.2392 -0.9235 -0.9044
 9512TIP3   OH250026   6.281   5.046  16.613 -0.1482 -0.3458  0.0136
 9512TIP3    H150027   6.329   5.001  16.544 -0.4315 -0.0271 -0.3981
 9512TIP3    H250028   6.208   5.088  16.568  0.3404  0.8670  0.3282
 9513TIP3   OH250029   5.595   1.569   2.056  0.5803 -0.3495 -0.1138
 9513TIP3    H150030   5.502   1.592   2.046  0.5963  1.1775  2.2901
 9513TIP3    H250031   5.642   1.642   2.016  0.6830  0.0650  0.7274
 9514TIP3   OH250032   2.422   1.186   0.519 -0.4581  0.1233 -0.1797
 9514TIP3    H150033   2.513   1.202   0.494 -0.5207  0.3598 -0.2607
 9514TIP3    H250034   2.424   1.104   0.568 -0.5920 -1.4215 -2.5841
 9515TIP3   OH250035   5.979   4.181   0.754  0.3649  0.2269 -0.0572
 9515TIP3    H150036   5.939   4.182   0.841 -2.8377 -2.7311 -1.2701
 9515TIP3    H250037   6.040   4.108   0.755 -0.1422 -0.2149 -0.4138
 9516TIP3   OH250038   5.595   0.395   1.155 -0.5162 -0.1117  0.5681
 9516TIP3    H150039   5.529   0.465   1.147 -0.1928  0.0486 -1.1690
 9516TIP3    H250040   5.561   0.325   1.099 -0.3957 -1.0052  1.6041
 9517TIP3   OH250041   2.540   6.100   3.864  0.2566 -0.4210 -0.0251
 9517TIP3    H150042   2.520   6.082   3.772  2.0154 -0.6999 -0.3841
 9517TIP3    H250043   2.633   6.120   3.865  0.4072 -1.0510  1.7965
 9518TIP3   OH250044   5.640   4.316   4.750 -0.2970  0.0812 -0.0541
 9518TIP3    H150045   5.680   4.229   4.747 -0.4249  0.0303 -0.3611
 9518TIP3    H250046   5.555   4.304   4.708  0.0893  0.5625 -1.0010
 9519TIP3   OH250047   1.095   0.245  13.219 -0.1623  0.0631 -0.2348
 9519TIP3    H150048   1.183   0.207  13.224 -1.3188 -3.3787 -2.4575
 9519TIP3    H250049   1.071   0.262  13.310  2.3295  0.0605  0.5107
 9520TIP3   OH250050   4.588   5.335   0.975  0.5688  0.6178  0.4091
 9520TIP3    H150051   4.515   5.291   1.017  1.1800 -1.8679 -0.9257
 9520TIP3    H250052   4.561   5.344   0.883  2.0497 -0.7332 -0.1990
 9521TIP3   OH250053   3.367   2.400   4.313 -0.7061  0.0704  0.1147
 9521TIP3    H150054   3.295   2.462   4.324 -1.0244 -0.1757 -0.4978
 9521TIP3    H250055   3.416   2.432   4.237  0.0316  0.4217  0.7343
 9522TIP3   OH250056   1.547   0.828   3.460  0.1268 -0.4922  0.3188
 9522TIP3    H150057   1.547   0.827   3.555  1.1757 -2.0665  0.3437
 9522TIP3    H250058   1.611   0.761   3.435 -1.0801 -1.0720 -1.4816
 9523TIP3   OH250059   1.353   5.629   0.037 -0.6153 -0.1712 -0.2968
 9523TIP3    H150060   1.309   5.544   0.036 -1.6698  0.3439  0.7938
 9523TIP3    H250061   1.315   5.676   0.111 -0.0998  1.2819 -0.9044
 9524TIP3   OH250062   5.211   6.787   4.335 -0.4472  0.2518 -0.1390
 9524TIP3    H150063   5.211   6.783   4.239  0.6589  0.1846 -0.1431
 9524TIP3    H250064   5.118   6.794   4.358 -0.6500  1.7643 -1.2639
 9525TIP3   OH250065   6.717   0.720  16.553  0.6826  0.3510 -0.4593
 9525TIP3    H150066   6.786   0.687  16.611 -0.3170 -0.9631  0.0354
 9525TIP3    H250067   6.732   0.674  16.470  1.5054  1.4823 -0.9719
 9526TIP3   OH250068   0.578   1.635  10.396  0.4996  0.2015  0.3374
 9526TIP3    H150069   0.608   1.684  10.320  1.3793 -0.1666  0.4406
 9526TIP3    H250070   0.657   1.617  10.447  0.2811 -1.6668  0.1024
 9527TIP3   OH250071   3.301   3.499   3.179  0.3712  0.0219  0.1031
 9527TIP3    H150072   3.275   3.585   3.211  1.2495 -0.1895  1.4917
 9527TIP3    H250073   3.393   3.510   3.155  0.3881 -0.4395 -0.0535
 9528TIP3   OH250074   0.258   3.731  15.880 -0.1302  0.2407 -0.3215
 9528TIP3    H150075   0.352   3.712  15.887  0.0532  0.4739 -1.9442
 9528TIP3    H250076   0.217   3.645  15.876  0.2067  0.1260 -1.7230
 9529TIP3   OH250077   3.426   0.820   2.167 -0.3157  0.1087 -0.2960
 9529TIP3    H150078   3.494   0.887   2.174  0.7941 -1.0649  0.5062
 9529TIP3    H250079   3.394   0.809   2.257  0.3633 -1.2823 -0.2069
 9530TIP3   OH250080   1.813   0.428   5.697  0.0587 -0.5937 -0.1395
 9530TIP3    H150081   1.832   0.471   5.781  1.3931 -0.6274 -0.4071
 9530TIP3    H250082   1.836   0.493   5.631 -2.7675  0.1560 -0.5150
 9531TIP3   OH250083   5.862   4.455  16.086  0.0365  0.1379  0.9714
 9531TIP3    H150084   5.944   4.484  16.126 -0.2434  0.7847  1.0903
 9531TIP3    H250085   5.811   4.535  16.076 -0.4001 -0.1984  0.4789
 9532TIP3   OH250086   1.862   6.557   3.529 -0.0605 -0.2237  0.0354
 9532TIP3    H150087   1.830   6.505   3.603  1.1941 -1.7468 -0.4414
 9532TIP3    H250088   1.920   6.622   3.570 -2.7124  1.8712  0.7853
 9533TIP3   OH250089   5.475   3.628   3.303 -0.3626  0.3619 -0.2753
 9533TIP3    H150090   5.472   3.598   3.394  0.9879 -0.0513 -0.3359
 9533TIP3    H250091   5.390   3.603   3.266 -0.7437  0.1161  0.7396
 9534TIP3   OH250092   5.033   4.963   1.198  0.3423  0.2554 -0.0240
 9534TIP3    H150093   5.083   4.919   1.268 -0.1016 -1.4438 -0.7377
 9534TIP3    H250094   4.942   4.956   1.226 -0.0925 -2.4766 -1.7432
 9535TIP3   OH250095   2.867   4.908   4.285  0.2123 -0.0286 -0.2933
 9535TIP3    H150096   2.774   4.890   4.302  0.6773 -0.1053  2.5024
 9535TIP3    H250097   2.896   4.833   4.233 -0.8494 -1.0022  0.4606
 9536TIP3   OH250098   1.105   6.359  13.011  0.2656  0.1264 -0.6293
 9536TIP3    H150099   1.063   6.352  13.097 -2.5056  1.9853 -1.6978
 9536TIP3    H250100   1.190   6.400  13.028 -0.8443  1.8311  1.1043
 9537TIP3   OH250101   5.136   1.845   6.006  0.6582 -0.3325 -0.4644
 9537TIP3    H150102   5.191   1.883   6.075 -1.0228 -2.3408  2.1664
 9537TIP3    H250103   5.052   1.890   6.015 -0.0695 -1.7261 -0.1049
 9538TIP3   OH250104   1.282   0.770   4.208  0.0335 -0.0694 -0.4907
 9538TIP3    H150105   1.291   0.860   4.239 -0.1192 -0.0344 -0.5458
 9538TIP3    H250106   1.297   0.775   4.114 -0.3781 -0.0340 -0.5599
 9539TIP3   OH250107   1.121   0.087  12.213  0.8466  0.2840 -0.1450
 9539TIP3    H150108   1.141   0.005  12.258  0.2931 -0.2262 -0.8087
 9539TIP3    H250109   1.099   0.060  12.124 -2.0207  0.8483  0.3111
 9540TIP3   OH250110   3.233   5.729   2.367 -0.0988 -0.4046 -0.1646
 9540TIP3    H150111   3.318   5.752   2.330  0.3573 -0.0413  1.0555
 9540TIP3    H250112   3.172   5.733   2.293  0.3833  2.3404 -0.4994
 9541TIP3   OH250113   3.073   6.142   5.822 -0.0339  0.2901 -0.5682
 9541TIP3    H150114   3.055   6.220   5.770  2.0969  2.7218  1.9691
 9541TIP3    H250115   3.082   6.175   5.912 -0.9626 -3.2284  0.9864
 9542TIP3   OH250116   3.106   1.694   3.542 -0.2849 -0.0624  0.1259
 9542TIP3    H150117   3.175   1.650   3.493  0.2884  0.8383  0.0871
 9542TIP3    H250118   3.024   1.658   3.508  0.1598 -1.1698  0.2005
 9543TIP3   OH250119   5.314   4.335   5.471  0.3287  0.8174  0.0723
 9543TIP3    H150120   5.294   4.429   5.464  2.1230  1.1016 -2.6937
 9543TIP3    H250121   5.405   4.332   5.498  0.5528 -0.0879 -0.7451
 9544TIP3   OH250122   6.612   1.985   4.073 -0.0284 -0.4563  0.5028
 9544TIP3    H150123   6.655   2.065   4.102 -1.5107 -0.1794  2.1255
 9544TIP3    H250124   6.523   2.012   4.049  0.4273 -1.0777 -2.2914
 9545TIP3   OH250125   1.467   4.612   3.930 -0.5671  0.1562 -0.3604
 9545TIP3    H150126   1.400   4.571   3.874 -1.2183 -1.2115  1.3448
 9545TIP3    H250127   1.528   4.541   3.950  0.3338  0.9301 -0.2855
 9546TIP3   OH250128   2.449   5.787  13.165  0.3662  0.4994  0.9977
 9546TIP3    H150129   2.482   5.751  13.082  0.4059  0.4224  1.0471
 9546TIP3    H250130   2.374   5.841  13.139  1.7166  2.3072  0.6490
 9547TIP3   OH250131   4.222   3.976   0.427  0.2785 -0.1802  0.5575
 9547TIP3    H150132   4.137   4.020   0.420  0.9776  1.1521  0.2605
 9547TIP3    H250133   4.200   3.883   0.428 -1.2697  0.1588  1.6903
 9548TIP3   OH250134   2.432   1.998   2.172  0.0799 -0.9871  0.0003
 9548TIP3    H150135   2.420   1.903   2.179 -0.0327 -1.1568 -1.8471
 9548TIP3    H250136   2.348   2.030   2.137 -0.1437 -0.0864  1.3011
 9549TIP3   OH250137   1.462   2.572  12.641  0.0962  0.7450 -0.1385
 9549TIP3    H150138   1.492   2.597  12.554  0.2089 -0.3897 -0.4451
 9549TIP3    H250139   1.522   2.616  12.701  1.5166 -0.3096 -0.7083
 9550TIP3   OH250140   3.714   5.100   5.947  0.4315  1.0147 -0.2769
 9550TIP3    H150141   3.772   5.174   5.965  1.6362 -0.2233  1.2451
 9550TIP3    H250142   3.772   5.032   5.913 -0.3633  0.1865 -0.0119
 9551TIP3   OH250143   2.899   2.387   4.322 -0.5551  0.3599 -0.4311
 9551TIP3    H150144   2.813   2.353   4.296 -1.0312  0.9500  0.3278
 9551TIP3    H250145   2.930   2.326   4.388 -0.2684  0.0042 -0.8888
 9552TIP3   OH250146   3.966   1.979  15.933 -0.3266  0.2216 -0.2218
 9552TIP3    H150147   4.061   1.982  15.925 -0.2601  0.9998  0.6483
 9552TIP3    H250148   3.942   2.068  15.961 -1.2952  0.0011 -0.3254
 9553TIP3   OH250149   6.527   1.562   4.791 -0.0176  0.3137 -0.1975
 9553TIP3    H150150   6.482   1.492   4.743 -0.3719  0.5686 -0.2444
 9553TIP3    H250151   6.578   1.607   4.724  1.7197 -1.0487  0.1453
 9554TIP3   OH250152   3.491   0.527   1.763  0.1008  0.2396  0.2721
 9554TIP3    H150153   3.471   0.570   1.847  0.6850  0.3826  0.3413
 9554TIP3    H250154   3.584   0.505   1.769  0.5165  1.5455 -0.9145
 9555TIP3   OH250155   3.241   5.647  12.467  0.4514  0.0504 -0.2501
 9555TIP3    H150156   3.214   5.739  12.466  0.7151  0.3253  3.4180
 9555TIP3    H250157   3.334   5.649  12.442  1.1149  1.2039  1.9894
 9556TIP3   OH250158   2.215   0.936  11.516 -0.8304 -0.0610 -0.4383
 9556TIP3    H150159   2.267   0.866  11.476  1.0650  0.9055  0.1851
 9556TIP3    H250160   2.262   1.016  11.492 -1.5704  0.7969  0.8901
 9557TIP3   OH250161   2.745   2.130   2.683  0.1284  0.1178  0.5342
 9557TIP3    H150162   2.754   2.061   2.749  2.3591  1.1741  1.4460
 9557TIP3    H250163   2.745   2.083   2.600 -1.2776 -1.1445  1.1963
 9558TIP3   OH250164   2.014   3.741   1.938 -0.4576 -0.2376 -0.3006
 9558TIP3    H150165   1.944   3.730   2.003  0.3776  0.3818  0.7342
 9558TIP3    H250166   1.968   3.742   1.854 -1.6033 -0.6961  0.2901
 9559TIP3   OH250167   4.632   5.259  15.165 -0.0987 -0.3846  0.4202
 9559TIP3    H150168   4.687   5.181  15.176 -1.3179 -1.3593 -0.1298
 9559TIP3    H250169   4.655   5.315  15.239  1.3358 -0.9313  0.4281
 9560TIP3   OH250170   3.244   3.556  14.227 -0.4064 -1.1542 -0.4183
 9560TIP3    H150171   3.204   3.497  14.163 -1.3193 -1.7981  0.7171
 9560TIP3    H250172   3.261   3.636  14.177 -1.4623 -1.4945 -1.3709
 9561TIP3   OH250173   5.422   0.581   1.715  0.0541  0.1447 -0.7228
 9561TIP3    H150174   5.463   0.494   1.715  1.1686  0.5618  2.1521
 9561TIP3    H250175   5.492   0.640   1.689 -0.0431  0.3973 -0.4201
 9562TIP3   OH250176   2.871   6.559  12.166  0.4552  0.0110 -0.1337
 9562TIP3    H150177   2.823   6.580  12.085  1.0508  0.3766 -0.4005
 9562TIP3    H250178   2.804   6.523  12.225 -0.0430  0.0116 -0.6848
 9563TIP3   OH250179   5.992   1.027   1.706  0.1230  0.2814 -0.8316
 9563TIP3    H150180   6.032   0.992   1.626  0.2343  0.6380 -0.9299
 9563TIP3    H250181   5.915   1.076   1.676 -0.4183 -0.4244 -0.6417
 9564TIP3   OH250182   6.673   2.229   1.877 -0.4676  0.4276 -0.2390
 9564TIP3    H150183   6.694   2.150   1.927 -2.2175 -0.1851 -0.4133
 9564TIP3    H250184   6.662   2.297   1.943  0.7301  0.4784 -0.0656
 9565TIP3   OH250185   6.173   0.189   2.080  0.0548 -0.3734  0.1224
 9565TIP3    H150186   6.168   0.269   2.132 -0.3769 -0.5764  0.4027
 9565TIP3    H250187   6.236   0.134   2.127  0.9411  0.1008 -0.4944
 9566TIP3   OH250188   4.209   5.459  12.182  0.4042 -0.6775 -0.0064
 9566TIP3    H150189   4.219   5.431  12.273  0.2303 -2.4701 -0.5037
 9566TIP3    H250190   4.152   5.536  12.187 -0.2455 -1.2107  1.3462
 9567TIP3   OH250191   5.995   2.734  13.585 -0.6815 -0.6137  0.0106
 9567TIP3    H150192   6.038   2.651  13.605 -1.5523 -0.7245  1.6285
 9567TIP3    H250193   5.963   2.766  13.670 -0.1258  1.5248 -0.5149
 9568TIP3   OH250194   4.059   0.905  17.257  0.1443 -0.1814 -0.6384
 9568TIP3    H150195   3.969   0.874  17.248  0.1531 -0.7088  0.7840
 9568TIP3    H250196   4.098   0.848  17.324  2.2382 -1.4186 -2.7710
 9569TIP3   OH250197   1.865   1.470  11.216  0.7144  0.5858 -0.2314
 9569TIP3    H150198   1.819   1.477  11.133  1.1543  1.6525 -0.4106
 9569TIP3    H250199   1.937   1.409  11.199  0.1758 -0.0153 -0.3342
 9570TIP3   OH250200   2.404   4.720  17.267  0.6140 -0.2797 -0.2677
 9570TIP3    H150201   2.430   4.659  17.197  0.2071 -0.1310 -0.5568
 9570TIP3    H250202   2.376   4.799  17.220  0.2426 -0.2150  0.0585
 9571TIP3   OH250203   5.415   3.330  12.800  0.6175  0.0090 -0.3922
 9571TIP3    H150204   5.342   3.292  12.751  0.9268 -1.4840  0.2316
 9571TIP3    H250205   5.482   3.349  12.734  1.1018 -2.1533 -0.6045
 9572TIP3   OH250206   2.930   5.338  15.331  0.0442  0.2165  0.1330
 9572TIP3    H150207   2.968   5.389  15.259 -0.8495  1.0757  0.2414
 9572TIP3    H250208   2.838   5.365  15.333  0.3617  1.3651  2.5779
 9573TIP3   OH250209   5.516   4.960  13.866 -0.2358 -0.0006  0.6689
 9573TIP3    H150210   5.508   4.985  13.775 -0.6711  0.4989  0.8432
 9573TIP3    H250211   5.610   4.968  13.885 -0.1931  0.2210  0.3650
 9574TIP3   OH250212   4.999   3.688   4.357 -0.0373  0.0494  0.7545
 9574TIP3    H150213   4.983   3.681   4.263  3.8845  0.5725 -0.1152
 9574TIP3    H250214   4.971   3.777   4.379  1.5510  0.9562 -0.6276
 9575TIP3   OH250215   3.985   2.500  10.724 -0.0791 -0.0605  0.7572
 9575TIP3    H150216   3.896   2.468  10.705 -0.1115  0.4621  0.0050
 9575TIP3    H250217   4.021   2.524  10.639  1.0653 -0.9473  0.9672
 9576TIP3   OH250218   0.668   2.803  11.105  0.0655  0.1918 -0.1755
 9576TIP3    H150219   0.718   2.817  11.025  0.7989  1.1980  0.4300
 9576TIP3    H250220   0.651   2.891  11.138 -2.5208 -0.0861 -0.5728
 9577TIP3   OH250221   5.776   6.632  14.069  0.2792 -0.7233  0.2854
 9577TIP3    H150222   5.800   6.723  14.087  0.2136 -0.7418  0.4725
 9577TIP3    H250223   5.693   6.620  14.116 -0.2867 -0.5486 -0.6485
 9578TIP3   OH250224   0.942   2.881  13.809 -0.4745 -0.5458  0.0304
 9578TIP3    H150225   0.974   2.846  13.893  0.3536  0.3555  0.1057
 9578TIP3    H250226   0.993   2.961  13.795 -1.7991  0.2466 -0.5001
 9579TIP3   OH250227   2.539   0.438  11.809  0.3051 -0.4044  0.0077
 9579TIP3    H150228   2.449   0.459  11.784  0.3139  0.1203  0.4003
 9579TIP3    H250229   2.556   0.353  11.768  0.2731  0.3672 -1.6663
 9580TIP3   OH250230   4.464   3.337   2.517  0.0691 -0.1012 -0.1145
 9580TIP3    H150231   4.372   3.351   2.539 -0.0132  0.4183 -0.7578
 9580TIP3    H250232   4.469   3.355   2.423  1.3566  2.7702  0.3966
 9581TIP3   OH250233   1.871   3.699   4.940  0.6287  0.3180 -0.5217
 9581TIP3    H150234   1.795   3.641   4.932  0.8535  0.0541 -0.7639
 9581TIP3    H250235   1.922   3.662   5.012  0.1440  0.9389  0.1534
 9582TIP3   OH250236   5.033   2.952   4.848  0.5969  0.6818 -0.6590
 9582TIP3    H150237   5.123   2.978   4.831  0.7521  1.8559  1.4984
 9582TIP3    H250238   5.009   3.000   4.928 -1.1049 -1.4825  0.2488
 9583TIP3   OH250239   5.230   3.352  10.514  0.0888  0.3994  0.5026
 9583TIP3    H150240   5.148   3.373  10.469  0.1378 -0.4427  0.0003
 9583TIP3    H250241   5.289   3.424  10.492  1.0456 -1.2697 -3.1899
 9584TIP3   OH250242   1.437   5.350   6.480  0.1784 -0.6260  0.6325
 9584TIP3    H150243   1.384   5.400   6.417  0.9436  0.7432  1.0188
 9584TIP3    H250244   1.388   5.270   6.494 -0.6868 -0.3699 -0.6810
 9585TIP3   OH250245   5.192   4.884   3.005  0.3849 -0.2654  0.2032
 9585TIP3    H150246   5.276   4.851   3.036  0.4803  1.4389  1.9490
 9585TIP3    H250247   5.131   4.863   3.075 -0.4244 -0.4811 -0.5512
 9586TIP3   OH250248   6.752   3.767   3.889 -0.5569 -0.2268  0.3049
 9586TIP3    H150249   6.841   3.762   3.854  0.0442 -0.6554  1.8501
 9586TIP3    H250250   6.709   3.832   3.833  1.4817  1.9455  1.0723
 9587TIP3   OH250251   5.932   0.845   0.675  0.9229 -0.1534  0.0734
 9587TIP3    H150252   5.893   0.763   0.705  1.4344 -0.1091  0.9055
 9587TIP3    H250253   5.900   0.856   0.586 -1.0634 -0.0629  0.7441
 9588TIP3   OH250254   0.063   2.223   5.868  0.3249 -0.3740  0.3682
 9588TIP3    H150255   0.004   2.153   5.894  0.0971 -0.6067 -0.7542
 9588TIP3    H250256   0.037   2.245   5.779  0.4078  1.1339  0.6953
 9589TIP3   OH250257   5.283   5.919  13.244 -0.0330  0.2404  0.2455
 9589TIP3    H150258   5.338   5.855  13.199 -0.1810  1.0272 -1.1347
 9589TIP3    H250259   5.264   5.985  13.177 -3.3084 -0.3934  0.3920
 9590TIP3   OH250260   6.504   4.543   1.823  0.2752 -0.1501 -0.3781
 9590TIP3    H150261   6.573   4.526   1.887  0.1359 -0.4903 -0.3188
 9590TIP3    H250262   6.458   4.460   1.814  0.0061  0.0181 -0.5785
 9591TIP3   OH250263   2.221   2.320  12.143  0.3839 -0.9006 -0.3397
 9591TIP3    H150264   2.272   2.270  12.079  0.5897 -1.0345 -0.0742
 9591TIP3    H250265   2.258   2.408  12.141  1.1754 -1.1991  0.4348
 9592TIP3   OH250266   1.826   4.200  14.915 -0.0361  0.3434  0.4097
 9592TIP3    H150267   1.797   4.256  14.843  1.9648  0.9272 -0.0221
 9592TIP3    H250268   1.785   4.237  14.993 -0.4968  1.0641 -0.1619
 9593TIP3   OH250269   3.519   5.094  16.476 -0.1387  0.0569 -0.2515
 9593TIP3    H150270   3.562   5.021  16.520 -1.5841 -0.0802  1.0306
 9593TIP3    H250271   3.580   5.167  16.485  0.8949 -0.7300 -0.7015
 9594TIP3   OH250272   3.730   3.074  12.582 -0.3359  0.1153  0.2736
 9594TIP3    H150273   3.729   3.165  12.611 -1.2423 -0.1985  1.3002
 9594TIP3    H250274   3.820   3.059  12.552  0.0310  1.1187  0.8355
 9595TIP3   OH250275   5.728   4.526  16.366 -0.1207 -0.2107 -0.0787
 9595TIP3    H150276   5.764   4.600  16.414  0.3053 -0.9852  0.8211
 9595TIP3    H250277   5.804   4.479  16.332 -0.1489 -2.1515  2.2806
 9596TIP3   OH250278   2.262   6.105  13.900 -0.2683  0.2871 -0.3938
 9596TIP3    H150279   2.167   6.115  13.899 -0.3253 -0.2173 -0.4731
 9596TIP3    H250280   2.293   6.171  13.961 -0.5448  1.4291 -1.4489
 9597TIP3   OH250281   2.654   3.061   2.886  0.1722  0.6967 -0.4887
 9597TIP3    H150282   2.600   3.019   2.953 -0.3084  1.4808 -0.3728
 9597TIP3    H250283   2.717   2.994   2.861 -2.8260 -1.4972 -3.0115
 9598TIP3   OH250284   6.655   0.409   3.577 -0.1096 -0.3071 -0.9330
 9598TIP3    H150285   6.588   0.384   3.640  2.6082 -1.8624  1.5947
 9598TIP3    H250286   6.701   0.328   3.557  1.0683  0.6932 -2.5701
 9599TIP3   OH250287   2.195   3.913   3.523  0.0537  0.0945 -0.3640
 9599TIP3    H150288   2.285   3.881   3.517 -0.1543 -0.4884 -0.5536
 9599TIP3    H250289   2.173   3.908   3.616 -0.7247 -2.5494 -0.6063
 9600TIP3   OH250290   6.109   2.294  11.783 -0.6949 -0.1108  0.3752
 9600TIP3    H150291   6.019   2.306  11.754 -1.0542 -0.9554  1.1025
 9600TIP3    H250292   6.161   2.350  11.725 -1.5141 -0.8124 -1.0840
 9601TIP3   OH250293   0.555   0.213   0.866  0.2284  0.0638  0.1235
 9601TIP3    H150294   0.521   0.144   0.809  0.8139 -0.8123  0.8112
 9601TIP3    H250295   0.621   0.169   0.919  1.9477  1.5529 -0.6896
 9602TIP3   OH250296   2.237   3.111  14.254 -0.5599 -0.0783 -0.2820
 9602TIP3    H150297   2.173   3.171  14.216  0.1951  1.3173  0.5889
 9602TIP3    H250298   2.220   3.114  14.348  0.0254 -0.5911 -0.1550
 9603TIP3   OH250299   6.247   4.646  11.775 -0.4052 -0.1808  0.1499
 9603TIP3    H150300   6.170   4.588  11.772 -0.1950 -0.5479  1.2055
 9603TIP3    H250301   6.218   4.726  11.732 -0.3576 -1.4103 -2.3837
 9604TIP3   OH250302   0.595   0.102  14.767 -1.0615  0.7574  0.1327
 9604TIP3    H150303   0.621   0.147  14.847  0.0576 -1.1735  0.9090
 9604TIP3    H250304   0.541   0.029  14.797  2.6564 -2.5300 -0.2844
 9605TIP3   OH250305   2.459   4.546  16.630  0.0807 -0.0830  0.7241
 9605TIP3    H150306   2.368   4.534  16.603  0.2993 -2.4047  0.8631
 9605TIP3    H250307   2.453   4.567  16.723 -0.3375  1.0409  0.4630
 9606TIP3   OH250308   4.875   4.252  11.499 -0.0048 -0.5045 -0.1620
 9606TIP3    H150309   4.822   4.311  11.446  1.1151  0.6962  0.0119
 9606TIP3    H250310   4.963   4.290  11.498  0.3809 -1.2650  1.3218
 9607TIP3   OH250311   0.475   4.663  14.448 -0.5051 -0.2433  0.2322
 9607TIP3    H150312   0.532   4.718  14.395 -0.4136  0.5069  1.0931
 9607TIP3    H250313   0.455   4.588  14.392 -0.0266  0.2998 -0.6802
 9608TIP3   OH250314   6.635   4.906  16.513  0.4783 -0.7053  0.5496
 9608TIP3    H150315   6.602   4.874  16.429  1.0793 -1.4306  0.5788
 9608TIP3    H250316   6.666   4.995  16.494 -0.6594 -0.3390  0.3317
 9609TIP3   OH250317   5.303   6.531   2.770 -0.1711 -0.0477 -0.0426
 9609TIP3    H150318   5.307   6.483   2.853 -0.6413 -0.8822 -0.4883
 9609TIP3    H250319   5.322   6.622   2.793  1.7741 -0.5926  0.6903
 9610TIP3   OH250320   0.786   2.441   4.635  0.5290  0.0401  0.2384
 9610TIP3    H150321   0.849   2.492   4.585 -0.3610  2.6451  1.5921
 9610TIP3    H250322   0.803   2.350   4.610  0.8543  1.0438 -3.8746
 9611TIP3   OH250323   4.053   3.182   6.060  0.0043 -0.2244 -0.0661
 9611TIP3    H150324   3.962   3.207   6.045 -0.1790 -1.2571 -0.7659
 9611TIP3    H250325   4.070   3.204   6.152 -1.6334 -2.0678  0.7314
 9612TIP3   OH250326   0.241   2.894   2.131  0.5132  0.0735  0.2714
 9612TIP3    H150327   0.213   2.926   2.045  0.6668  0.7796  0.4789
 9612TIP3    H250328   0.285   2.811   2.112  1.2644  0.6170 -0.4292
 9613TIP3   OH250329   6.280   2.425   3.511 -0.3692  0.1601  0.3880
 9613TIP3    H150330   6.249   2.510   3.479 -1.2753  0.0649  0.9816
 9613TIP3    H250331   6.309   2.442   3.600 -0.8229 -0.2027  0.6089
 9614TIP3   OH250332   1.640   6.738  11.106  0.6454  0.2618  0.1595
 9614TIP3    H150333   1.562   6.756  11.159  0.3817 -1.3612  0.3697
 9614TIP3    H250334   1.690   6.674  11.157  0.9979 -0.4005 -0.9707
 9615TIP3   OH250335   5.107   4.484   0.649  0.3093 -0.1279 -0.1226
 9615TIP3    H150336   5.142   4.567   0.615 -0.6166 -0.5732 -2.3461
 9615TIP3    H250337   5.018   4.479   0.615  0.5690 -2.3502 -0.6726
 9616TIP3   OH250338   4.983   6.551   3.772  0.0550 -0.0091 -0.0624
 9616TIP3    H150339   5.071   6.577   3.798  0.3481  0.4460 -1.4336
 9616TIP3    H250340   4.929   6.570   3.850  0.9190  1.0565  0.3138
 9617TIP3   OH250341   1.790   1.193  11.071 -0.3715  0.2412  0.3162
 9617TIP3    H150342   1.861   1.177  11.010  0.8618 -0.8319  1.9369
 9617TIP3    H250343   1.777   1.288  11.071  1.9006  0.6049  0.8458
 9618TIP3   OH250344   4.135   2.203   0.884  0.1618  0.1086 -0.0157
 9618TIP3    H150345   4.186   2.284   0.879  0.5501 -0.0232  1.4154
 9618TIP3    H250346   4.112   2.184   0.793  1.0717  1.1838 -0.4964
 9619TIP3   OH250347   4.517   6.398  12.553 -0.3142 -0.3203  0.4089
 9619TIP3    H150348   4.537   6.475  12.606 -0.8125 -0.8970  1.4649
 9619TIP3    H250349   4.500   6.433  12.465 -0.6569  0.7944  0.9019
 9620TIP3   OH250350   1.069   4.718  16.384  0.5240 -0.1791 -0.5640
 9620TIP3    H150351   1.120   4.717  16.303  0.0399 -1.0367 -0.8786
 9620TIP3    H250352   1.045   4.809  16.397  0.2271 -0.0973 -1.6312
 9621TIP3   OH250353   4.803   1.216   4.167  0.9249  0.1001  0.1531
 9621TIP3    H150354   4.772   1.247   4.252  0.0072 -0.3582 -0.0073
 9621TIP3    H250355   4.794   1.291   4.109 -0.1198 -0.0845  0.0574
 9622TIP3   OH250356   2.938   0.755   2.556  0.2478  0.2168  0.6117
 9622TIP3    H150357   2.980   0.808   2.488 -1.4584 -0.5286 -1.1079
 9622TIP3    H250358   2.960   0.665   2.534  0.5124  0.0080  1.6691
 9623TIP3   OH250359   4.510   6.463   2.585  0.1200  0.6914 -0.3989
 9623TIP3    H150360   4.532   6.432   2.673 -0.6588  0.3306 -0.3166
 9623TIP3    H250361   4.420   6.495   2.593 -0.7448 -1.2561 -1.4853
 9624TIP3   OH250362   5.638   2.366   4.627 -0.8855 -0.7093  0.9966
 9624TIP3    H150363   5.679   2.452   4.631 -1.8034 -0.2902  3.4484
 9624TIP3    H250364   5.640   2.342   4.535  0.2494  1.5127  0.3824
 9625TIP3   OH250365   2.270   5.756   3.584 -0.1643 -0.4288  0.1672
 9625TIP3    H150366   2.302   5.800   3.505 -0.1393 -0.6859  0.0336
 9625TIP3    H250367   2.228   5.676   3.552 -0.7899 -0.1872  0.3534
 9626TIP3   OH250368   0.689   1.763  14.033 -0.6214 -0.1014  1.0109
 9626TIP3    H150369   0.655   1.845  13.997 -1.3412 -0.4021  0.9881
 9626TIP3    H250370   0.719   1.714  13.957  0.3775  0.3761  1.0730
 9627TIP3   OH250371   3.781   2.547  12.597 -0.3357 -0.1522 -0.0859
 9627TIP3    H150372   3.700   2.546  12.546 -0.1641  1.1490 -0.4144
 9627TIP3    H250373   3.756   2.586  12.680  0.3516  2.3143 -0.9640
 9628TIP3   OH250374   4.566   5.372   3.770  0.5330  0.1214  0.2048
 9628TIP3    H150375   4.525   5.286   3.775  1.4832 -0.3653 -0.1279
 9628TIP3    H250376   4.652   5.361   3.810 -0.2287  1.5256  2.4072
 9629TIP3   OH250377   0.835   0.157  11.321  0.1400 -0.0792 -0.6092
 9629TIP3    H150378   0.931   0.157  11.325  0.1605 -1.9060 -0.5353
 9629TIP3    H250379   0.807   0.117  11.403 -0.7205  0.6646 -0.5226
 9630TIP3   OH250380   1.375   2.329  12.068  0.1225  0.0368 -0.4864
 9630TIP3    H150381   1.298   2.282  12.099 -0.9276  2.5098  0.9382
 9630TIP3    H250382   1.389   2.296  11.979  0.0132 -3.4711  0.6561
 9631TIP3   OH250383   4.241   4.315  15.770 -0.1993  0.1351 -0.0020
 9631TIP3    H150384   4.164   4.332  15.715 -0.0212  0.0085 -0.2869
 9631TIP3    H250385   4.315   4.320  15.710 -0.1121 -1.3896 -0.0550
 9632TIP3   OH250386   1.597   3.710  12.387 -0.0158 -0.1003 -0.1723
 9632TIP3    H150387   1.685   3.674  12.375  0.1535  0.4213 -0.5569
 9632TIP3    H250388   1.538   3.637  12.371  0.3819 -1.2103  2.8427
 9633TIP3   OH250389   2.688   6.503   5.505 -0.1560 -0.4637 -0.0471
 9633TIP3    H150390   2.672   6.494   5.411 -0.1881  0.7996 -0.1823
 9633TIP3    H250391   2.611   6.463   5.546 -1.8931  1.9805 -0.6353
 9634TIP3   OH250392   3.518   0.977   5.661 -0.5140  0.0880  0.3759
 9634TIP3    H150393   3.523   0.896   5.713 -1.6524 -0.4232 -0.2748
 9634TIP3    H250394   3.585   1.034   5.699  1.6836 -1.8393 -0.3616
 9635TIP3   OH250395   1.465   6.297   1.912 -0.2564 -0.1121 -0.3310
 9635TIP3    H150396   1.416   6.363   1.961 -0.0185  0.4088 -0.7825
 9635TIP3    H250397   1.402   6.261   1.850 -0.9104 -1.6654  1.1545
 9636TIP3   OH250398   1.691   6.018  11.319 -0.3375 -0.3710  0.6771
 9636TIP3    H150399   1.685   5.990  11.228  0.8264 -0.3952  0.6031
 9636TIP3    H250400   1.664   5.941  11.370 -0.2214 -0.6056  0.3834
 9637TIP3   OH250401   5.044   1.090   1.885 -0.1007  0.2328  0.0819
 9637TIP3    H150402   5.121   1.103   1.829 -2.2401 -0.4796 -3.2428
 9637TIP3    H250403   4.994   1.171   1.877 -1.2285 -0.4911 -0.3735
 9638TIP3   OH250404   3.373   4.073  14.151  1.0408 -0.3172  0.4396
 9638TIP3    H150405   3.352   4.046  14.240  0.5683 -2.0136 -0.1395
 9638TIP3    H250406   3.400   3.992  14.107  0.2703  0.2706 -1.2244
 9639TIP3   OH250407   2.682   4.647  12.745  0.6869  0.1146 -0.5071
 9639TIP3    H150408   2.598   4.645  12.699  1.3946  1.5952 -1.9735
 9639TIP3    H250409   2.659   4.645  12.837 -0.9883  1.0882 -0.8612
 9640TIP3   OH250410   2.523   6.731  13.610 -0.1124  0.6513 -0.4443
 9640TIP3    H150411   2.507   6.824  13.624  2.9960  1.1726  0.4580
 9640TIP3    H250412   2.525   6.720  13.515 -0.4249  1.5025 -0.5548
 9641TIP3   OH250413   0.714   1.972   0.897  0.1097 -0.0300  0.2377
 9641TIP3    H150414   0.734   2.044   0.957 -0.2709  0.7146 -0.5112
 9641TIP3    H250415   0.658   2.012   0.830  1.2197 -0.6388 -1.0838
 9642TIP3   OH250416   1.792   6.059   2.161  0.5455 -0.2529 -0.6344
 9642TIP3    H150417   1.835   5.997   2.102  0.5407  0.1454 -1.0590
 9642TIP3    H250418   1.755   6.004   2.230 -1.0637 -0.9693 -1.9671
 9643TIP3   OH250419   4.450   1.806  10.511  0.4022 -0.6800 -0.5483
 9643TIP3    H150420   4.461   1.737  10.577 -1.1917 -1.0147 -0.5940
 9643TIP3    H250421   4.364   1.788  10.472  0.9633 -0.0286 -2.1794
 9644TIP3   OH250422   1.685   4.409   2.244  1.2633  0.4638  0.3008
 9644TIP3    H150423   1.592   4.388   2.237  1.5883 -1.0239  0.0032
 9644TIP3    H250424   1.695   4.449   2.330  0.4320  0.1222  0.5614
 9645TIP3   OH250425   0.316   6.655   5.979  0.4420  0.2194 -0.3053
 9645TIP3    H150426   0.249   6.642   5.912 -2.8235 -2.0923  3.0286
 9645TIP3    H250427   0.334   6.749   5.978 -2.7468  0.9315 -1.5442
 9646TIP3   OH250428   1.288   4.689   5.442 -0.4038  0.4032 -0.2731
 9646TIP3    H150429   1.215   4.686   5.504 -0.1971 -1.9648 -0.0616
 9646TIP3    H250430   1.358   4.734   5.489 -0.9172  0.4570  0.4557
 9647TIP3   OH250431   1.184   6.749  16.535 -0.2010 -0.8282  0.3983
 9647TIP3    H150432   1.089   6.756  16.527 -0.4248  0.0455  2.8535
 9647TIP3    H250433   1.207   6.812  16.603  2.1633 -0.9612 -0.1966
 9648TIP3   OH250434   1.035   3.096  16.226  0.4528  0.8347 -0.3070
 9648TIP3    H150435   1.003   3.006  16.216  0.0620  0.9272  0.1002
 9648TIP3    H250436   1.126   3.092  16.196 -0.2800  0.8206 -2.7583
 9649TIP3   OH250437   2.167   4.579  15.470 -0.2923  0.1782  0.4297
 9649TIP3    H150438   2.113   4.511  15.510  0.1282  0.5107  1.5944
 9649TIP3    H250439   2.150   4.657  15.522 -0.2786  0.8162 -0.4978
 9650TIP3   OH250440   5.879   5.962  13.779 -0.4744 -0.3617  0.2969
 9650TIP3    H150441   5.946   5.933  13.841 -2.7952 -1.1704  2.5970
 9650TIP3    H250442   5.905   6.051  13.756  0.9050 -0.3126  1.8740
 9651TIP3   OH250443   2.182   0.784   1.888  0.3083 -0.2417 -0.0685
 9651TIP3    H150444   2.242   0.847   1.928 -0.0628  0.0819 -0.0278
 9651TIP3    H250445   2.104   0.834   1.867 -0.4457 -0.9223  1.0181
 9652TIP3   OH250446   3.756   3.705   5.055 -0.7534 -1.0173 -0.1562
 9652TIP3    H150447   3.727   3.682   5.143  0.0227 -0.8258  0.1604
 9652TIP3    H250448   3.782   3.797   5.062 -1.1623 -0.8526 -0.7155
 9653TIP3   OH250449   4.353   0.379   4.057 -0.2577  0.0156  0.4371
 9653TIP3    H150450   4.367   0.412   3.969 -0.5343  0.2062  0.4655
 9653TIP3    H250451   4.384   0.449   4.114 -1.4583  0.5135  0.5045
 9654TIP3   OH250452   2.740   6.592   3.285  0.8091 -0.0843  0.7181
 9654TIP3    H150453   2.747   6.669   3.228  1.9013 -1.0316 -0.5009
 9654TIP3    H250454   2.735   6.628   3.374  1.8846  1.3780  0.2229
 9655TIP3   OH250455   4.074   5.216  12.128 -0.2489 -0.1785  0.2062
 9655TIP3    H150456   4.135   5.145  12.146  0.4914  0.0546 -1.2303
 9655TIP3    H250457   4.127   5.296  12.137 -1.1591  0.2623  2.1804
 9656TIP3   OH250458   1.183   0.403  16.135  0.1466 -0.2426 -0.2352
 9656TIP3    H150459   1.121   0.344  16.179 -1.2242  2.3191  1.4773
 9656TIP3    H250460   1.269   0.368  16.157 -0.6077 -1.7225  0.4994
 9657TIP3   OH250461   1.381   6.065  13.375  0.5936 -0.1155 -0.0402
 9657TIP3    H150462   1.409   6.126  13.443  0.6927  1.2613 -1.2502
 9657TIP3    H250463   1.287   6.081  13.364  0.8769  0.8887 -1.3235
 9658TIP3   OH250464   4.364   4.186   1.078  0.6268  0.3240 -0.0681
 9658TIP3    H150465   4.285   4.226   1.043  0.2677  0.4937  0.9077
 9658TIP3    H250466   4.346   4.092   1.076  0.5486  0.3412 -0.1844
 9659TIP3   OH250467   5.514   1.793   2.664 -0.1113 -0.6824 -0.7939
 9659TIP3    H150468   5.592   1.848   2.654 -0.2766 -0.4234 -0.6692
 9659TIP3    H250469   5.542   1.706   2.634  0.4359 -0.7646 -0.0872
 9660TIP3   OH250470   3.235   6.307   4.381  0.1637 -0.2727  0.0859
 9660TIP3    H150471   3.147   6.339   4.403  0.6809  1.6484 -0.4695
 9660TIP3    H250472   3.292   6.382   4.396  1.5441 -1.1187 -0.7359
 9661TIP3   OH250473   1.254   0.843   5.257 -0.2916  0.0731 -0.4159
 9661TIP3    H150474   1.247   0.784   5.332  0.3835  0.0477 -0.3630
 9661TIP3    H250475   1.237   0.787   5.181 -1.6199  0.2302 -0.2603
 9662TIP3   OH250476   4.445   1.815   2.541 -0.3474 -0.0130  0.0450
 9662TIP3    H150477   4.360   1.827   2.497  0.9700  1.6240 -2.2806
 9662TIP3    H250478   4.430   1.847   2.630 -2.4399 -0.8192  0.0446
 9663TIP3   OH250479   1.818   5.332   5.121  0.1318 -0.1430  0.3411
 9663TIP3    H150480   1.851   5.315   5.209 -0.9097 -0.1872  0.7346
 9663TIP3    H250481   1.785   5.247   5.092  1.1649 -0.3083 -0.4081
 9664TIP3   OH250482   2.243   5.175   6.239  0.0727 -0.5354  0.7183
 9664TIP3    H150483   2.223   5.243   6.175 -1.4195 -1.2146  0.4213
 9664TIP3    H250484   2.211   5.209   6.323 -1.5889 -1.2327  0.4036
 9665TIP3   OH250485   5.972   3.312   3.147 -0.2338  0.7768  0.6594
 9665TIP3    H150486   5.937   3.290   3.233 -1.6041 -0.2264 -0.1119
 9665TIP3    H250487   6.061   3.279   3.148 -0.5294 -0.0379  1.3946
 9666TIP3   OH250488   5.824   3.343   6.422 -0.1403 -0.2113 -0.1287
 9666TIP3    H150489   5.772   3.419   6.446 -0.0745 -0.1115 -0.3009
 9666TIP3    H250490   5.764   3.269   6.430  0.0078 -0.2461  0.8295
 9667TIP3   OH250491   2.887   5.536   3.557 -0.0327 -0.1433  0.1436
 9667TIP3    H150492   2.923   5.577   3.636 -1.5050  0.1750  0.6763
 9667TIP3    H250493   2.932   5.451   3.552  0.5213  0.0879  0.9738
 9668TIP3   OH250494   4.836   5.761  14.618 -0.5285  0.4756 -0.2171
 9668TIP3    H150495   4.754   5.794  14.581  0.4391  1.2220 -1.7945
 9668TIP3    H250496   4.901   5.777  14.550  0.3664 -3.2201 -0.4264
 9669TIP3   OH250497   1.290   0.060   1.201  0.0148  0.6076  0.1529
 9669TIP3    H150498   1.259   0.103   1.122  0.7936 -1.2323 -1.2128
 9669TIP3    H250499   1.249  -0.026   1.200 -0.9297  0.9414  2.4416
 9670TIP3   OH250500   2.031   2.959  16.992 -0.2358  0.0645 -0.1299
 9670TIP3    H150501   1.936   2.943  16.990  0.0403 -2.3753  1.6627
 9670TIP3    H250502   2.070   2.872  17.002  2.1516  1.0951  0.2417
 9671TIP3   OH250503   5.751   4.400   0.802 -0.6530  0.3668 -0.7183
 9671TIP3    H150504   5.758   4.478   0.857  1.1018 -0.3086  0.1029
 9671TIP3    H250505   5.764   4.432   0.713  2.7685  0.7678 -0.2042
 9672TIP3   OH250506   2.677   2.689  15.183 -0.8029  0.4593  0.1389
 9672TIP3    H150507   2.761   2.646  15.169 -2.2970 -2.6304 -0.1380
 9672TIP3    H250508   2.700   2.777  15.213  2.4870 -0.0028 -0.6534
 9673TIP3   OH250509   0.877   1.516   1.224  0.0821 -0.1954  0.4091
 9673TIP3    H150510   0.972   1.524   1.220  0.1011 -0.4734 -4.3754
 9673TIP3    H250511   0.862   1.423   1.239  0.5856 -0.3412  0.0422
 9674TIP3   OH250512   3.577   2.912  16.017 -0.5566  0.0127  0.0642
 9674TIP3    H150513   3.551   2.971  15.946  1.3504  0.4488 -0.3291
 9674TIP3    H250514   3.496   2.867  16.042 -1.8716  2.0851 -0.2736
 9675TIP3   OH250515   1.814   6.567  16.463  0.4928 -0.1408  0.3343
 9675TIP3    H150516   1.747   6.616  16.511  0.8288  1.5301 -0.7906
 9675TIP3    H250517   1.885   6.630  16.451  1.3241 -1.1873 -0.4363
 9676TIP3   OH250518   1.677   0.564   3.500  0.5830 -0.4149  0.0667
 9676TIP3    H150519   1.626   0.521   3.431  0.3321 -1.4297  0.8739
 9676TIP3    H250520   1.616   0.576   3.572  1.0914 -0.2281  0.4733
 9677TIP3   OH250521   4.841   6.574   4.417  0.5121  0.3594 -0.2542
 9677TIP3    H150522   4.891   6.650   4.388 -0.2017  0.3373 -1.5990
 9677TIP3    H250523   4.758   6.611   4.449  0.6164  0.2299  0.1796
 9678TIP3   OH250524   0.026   6.150   5.795 -0.3394 -0.5262  0.2800
 9678TIP3    H150525   0.026   6.234   5.749 -2.5084 -1.0517 -0.8128
 9678TIP3    H250526   0.034   6.084   5.726 -0.5129 -1.2629  0.9422
 9679TIP3   OH250527   2.300   3.987  16.233  0.6400  0.1075  0.5440
 9679TIP3    H150528   2.327   4.060  16.177 -0.7064  0.6728  0.5920
 9679TIP3    H250529   2.282   3.916  16.171 -1.7585  1.0077  0.0675
 9680TIP3   OH250530   5.082   5.207   1.415 -0.2603  0.1271 -0.3551
 9680TIP3    H150531   5.105   5.223   1.323 -0.9046  1.9392 -0.2441
 9680TIP3    H250532   5.166   5.206   1.461  0.0190 -0.1506 -0.8571
 9681TIP3   OH250533   0.362   5.565  14.392  0.3373  0.9423 -0.5308
 9681TIP3    H150534   0.392   5.616  14.468 -0.3269  0.3473  0.1442
 9681TIP3    H250535   0.282   5.609  14.365 -1.0157 -0.4922  0.9160
 9682TIP3   OH250536   5.645   2.946  11.143 -0.5883 -0.6867  0.4447
 9682TIP3    H150537   5.728   2.937  11.097 -1.5282  0.3067 -1.5680
 9682TIP3    H250538   5.602   2.860  11.133 -0.3062 -0.8316  0.4739
 9683TIP3   OH250539   4.708   1.966   0.555  0.4943  0.3612 -0.3586
 9683TIP3    H150540   4.626   1.920   0.573  1.2343 -1.0578 -0.5393
 9683TIP3    H250541   4.776   1.908   0.589  1.4705  1.1842 -0.8680
 9684TIP3   OH250542   3.648   2.775   3.576  0.4780  0.2393 -0.2424
 9684TIP3    H150543   3.730   2.742   3.614 -0.7894 -0.6177  1.9662
 9684TIP3    H250544   3.608   2.826   3.646 -1.7951 -1.0234 -0.5038
 9685TIP3   OH250545   6.642   3.957   4.080  0.2768  0.2507 -0.1487
 9685TIP3    H150546   6.688   3.887   4.033  0.0902 -0.0396  0.0903
 9685TIP3    H250547   6.700   3.979   4.153 -0.4413 -0.8917  0.7993
 9686TIP3   OH250548   2.018   0.896  11.237 -0.4778  0.3848 -0.4611
 9686TIP3    H150549   1.980   0.828  11.182 -1.5345 -0.4221  1.1641
 9686TIP3    H250550   2.100   0.858  11.268 -1.0537 -0.1899  0.4235
 9687TIP3   OH250551   3.949   4.013   6.185  0.3625 -0.8765  0.1170
 9687TIP3    H150552   3.930   4.100   6.148  0.1169 -0.9506  0.0630
 9687TIP3    H250553   3.865   3.967   6.179  1.2044 -2.2674 -2.9038
 9688TIP3   OH250554   6.271   2.288  12.047 -0.0861  0.1249  0.3650
 9688TIP3    H150555   6.248   2.245  11.965  0.4077 -0.5866  0.5897
 9688TIP3    H250556   6.187   2.302  12.091 -0.1719 -3.2440  1.5805
 9689TIP3   OH250557   6.343   3.088   1.103  0.2073 -0.1944 -0.2990
 9689TIP3    H150558   6.248   3.098   1.097 -0.0669 -1.4509  1.3240
 9689TIP3    H250559   6.370   3.058   1.016 -0.8105  0.4655 -0.8694
 9690TIP3   OH250560   2.196   4.985  16.548  0.2608 -0.5150 -0.7219
 9690TIP3    H150561   2.180   4.943  16.463  0.6534 -1.9204 -0.1317
 9690TIP3    H250562   2.291   4.993  16.553  0.1681  2.7275 -1.8361
 9691TIP3   OH250563   3.829   5.269  17.093 -0.6937  0.5701  0.6409
 9691TIP3    H150564   3.769   5.202  17.061 -0.1794 -0.7299  2.2192
 9691TIP3    H250565   3.777   5.321  17.154 -0.7689  0.8250  0.3612
 9692TIP3   OH250566   0.002   0.435  11.537  0.0547  0.5209 -0.5489
 9692TIP3    H150567   0.085   0.413  11.580 -0.2253  1.3967  0.4952
 9692TIP3    H250568  -0.058   0.366  11.565 -0.7883  2.3237  2.6103
 9693TIP3   OH250569   4.392   0.406   5.093 -0.0140 -0.1628  0.4085
 9693TIP3    H150570   4.379   0.350   5.170 -0.7790 -1.4012 -0.5807
 9693TIP3    H250571   4.354   0.490   5.119 -2.5317 -1.2583  0.5985
 9694TIP3   OH250572   5.709   4.329   1.927 -0.2378  0.1932 -0.1226
 9694TIP3    H150573   5.648   4.397   1.956  0.6728  1.3928 -0.9198
 9694TIP3    H250574   5.674   4.299   1.844 -0.0384  0.5006 -0.3195
 9695TIP3   OH250575   0.018   5.716  15.234  0.2388  0.0266  0.7040
 9695TIP3    H150576   0.092   5.727  15.294 -0.2727  1.9154  1.0464
 9695TIP3    H250577   0.035   5.777  15.163  0.2654 -1.3796 -0.5378
 9696TIP3   OH250578   6.812   5.853   3.885  0.0731 -0.4871 -0.0268
 9696TIP3    H150579   6.752   5.905   3.833 -2.0341 -1.5219  1.2431
 9696TIP3    H250580   6.787   5.762   3.867 -0.4607 -0.8868  2.3626
 9697TIP3   OH250581   2.412   6.596   5.317  0.0478 -0.2306 -0.7066
 9697TIP3    H150582   2.351   6.553   5.257  0.5111 -2.7159  0.4857
 9697TIP3    H250583   2.461   6.657   5.261 -1.8938  0.1567 -2.1238
 9698TIP3   OH250584   2.040   4.341  14.665  0.0786  0.0451 -0.6499
 9698TIP3    H150585   2.088   4.385  14.595 -0.4221  1.2453 -0.2736
 9698TIP3    H250586   1.980   4.282  14.619 -0.7752  1.3646 -1.2920
 9699TIP3   OH250587   4.539   5.752   2.760  0.0748  0.7902 -0.1958
 9699TIP3    H150588   4.497   5.806   2.693 -0.6206  0.4449 -0.0513
 9699TIP3    H250589   4.628   5.787   2.767  0.8550 -0.4068 -2.7350
 9700TIP3   OH250590   0.680   1.993   6.431 -0.5012 -0.2837 -0.2618
 9700TIP3    H150591   0.638   1.932   6.370 -0.1350 -0.5377 -0.2659
 9700TIP3    H250592   0.751   2.032   6.381 -0.0128 -0.7157  0.0882
 9701TIP3   OH250593   5.534   6.112  13.814 -0.5553  0.4324 -0.5191
 9701TIP3    H150594   5.536   6.131  13.720 -0.4463  0.4217 -0.5191
 9701TIP3    H250595   5.476   6.178  13.850  1.0619  1.7865 -0.2905
 9702TIP3   OH250596   0.830   2.357  11.238 -0.0546  1.0325  0.2094
 9702TIP3    H150597   0.736   2.340  11.238 -0.1445  1.5099 -0.0477
 9702TIP3    H250598   0.837   2.452  11.225  0.4848  0.7982 -1.4910
 9703TIP3   OH250599   5.077   0.564   0.601 -0.2373 -0.1065  0.5822
 9703TIP3    H150600   5.134   0.640   0.599 -1.3662  0.8972  2.5881
 9703TIP3    H250601   5.108   0.512   0.676 -0.2421 -0.9931 -0.0141
 9704TIP3   OH250602   4.001   6.753  14.662  0.0498 -0.1918  0.1847
 9704TIP3    H150603   3.970   6.785  14.747 -1.8475  1.2095 -0.9490
 9704TIP3    H250604   4.085   6.797  14.649 -0.6698  1.3079  0.4102
 9705TIP3   OH250605   3.093   2.935   2.421  0.4996 -0.7138 -0.3849
 9705TIP3    H150606   3.038   2.865   2.388  1.0740 -0.9921 -0.7603
 9705TIP3    H250607   3.182   2.901   2.415  0.6380 -0.7792  1.4227
 9706TIP3   OH250608   2.967   0.575   0.280 -0.0088  0.6074 -0.3568
 9706TIP3    H150609   3.058   0.571   0.310  0.4084  0.2902 -1.5931
 9706TIP3    H250610   2.972   0.623   0.197 -1.1328  1.5632  0.0971
 9707TIP3   OH250611   3.185   0.564   3.520 -0.3650 -0.2842  0.1586
 9707TIP3    H150612   3.159   0.472   3.513  1.0043 -0.7096  0.2338
 9707TIP3    H250613   3.209   0.589   3.431 -0.7915  0.0231  0.1294
 9708TIP3   OH250614   5.639   4.172   1.653  0.4155  0.1108 -0.5878
 9708TIP3    H150615   5.552   4.167   1.612 -0.0095  0.3132  0.2702
 9708TIP3    H250616   5.662   4.081   1.671  0.2762  0.0744 -0.5929
 9709TIP3   OH250617   6.742   3.983   1.542  0.3545 -0.8091 -0.4373
 9709TIP3    H150618   6.677   3.955   1.608  0.5307  2.1690  1.1403
 9709TIP3    H250619   6.780   3.901   1.511 -2.0673 -2.5186  0.7474
 9710TIP3   OH250620   2.715   2.240   3.206  0.2998 -0.1268  0.2895
 9710TIP3    H150621   2.706   2.313   3.268  0.6494  0.0399  0.1484
 9710TIP3    H250622   2.731   2.163   3.261 -1.2338 -0.3083  0.5041
 9711TIP3   OH250623   6.198   1.455   2.949  0.0775  0.1935  0.2880
 9711TIP3    H150624   6.219   1.367   2.918  0.6487  0.2624  0.4561
 9711TIP3    H250625   6.264   1.472   3.017  0.5601  1.1049 -0.3864
 9712TIP3   OH250626   1.381   1.922   3.651 -0.7156  0.2125  0.0899
 9712TIP3    H150627   1.362   1.996   3.593  0.3225 -0.3532 -1.0162
 9712TIP3    H250628   1.447   1.872   3.604 -0.6041 -0.8305  1.3241
 9713TIP3   OH250629   3.626   5.709   3.136 -0.0529 -0.3933 -0.0712
 9713TIP3    H150630   3.684   5.634   3.145  0.2364 -0.0926  0.6564
 9713TIP3    H250631   3.564   5.684   3.067  0.5548 -0.9584 -0.4190
 9714TIP3   OH250632   4.226   3.453  15.051 -0.2107 -0.4842  0.0004
 9714TIP3    H150633   4.293   3.511  15.016 -1.2666  1.3275  0.8704
 9714TIP3    H250634   4.251   3.439  15.142 -1.6242  1.2685  0.7182
 9715TIP3   OH250635   2.158   2.265  16.093 -0.4028 -0.4360 -0.0060
 9715TIP3    H150636   2.124   2.179  16.116  0.8313 -1.3111 -1.2461
 9715TIP3    H250637   2.249   2.263  16.123  0.2116 -0.3240 -1.7581
 9716TIP3   OH250638   3.988   2.588  12.213  0.1111  0.6006  0.1137
 9716TIP3    H150639   4.061   2.532  12.186 -0.0484  0.3570  0.1838
 9716TIP3    H250640   3.972   2.644  12.138 -0.3930 -0.1369 -0.3375
 9717TIP3   OH250641   2.899   3.234   4.159  0.3848  0.1152 -0.5372
 9717TIP3    H150642   2.922   3.143   4.141  0.9609  0.2976 -0.7725
 9717TIP3    H250643   2.834   3.256   4.091  1.6023  0.4134 -1.6578
 9718TIP3   OH250644   3.179   5.276   0.097  0.2030 -0.8873  0.2354
 9718TIP3    H150645   3.121   5.234   0.032  0.0682  1.1009 -1.0044
 9718TIP3    H250646   3.119   5.305   0.166 -0.2166  0.4455 -0.6558
 9719TIP3   OH250647   0.625   5.974  15.005 -0.3518 -0.2350  0.0520
 9719TIP3    H150648   0.590   6.000  14.920 -0.4080 -0.5346 -0.0162
 9719TIP3    H250649   0.552   5.933  15.050  0.1159 -1.6047 -0.4057
 9720TIP3   OH250650   6.638   3.750   4.810 -0.0232 -0.4681 -0.3821
 9720TIP3    H150651   6.585   3.746   4.730  1.6076  0.2409 -1.5547
 9720TIP3    H250652   6.634   3.661   4.846  0.4866 -1.2530 -2.1474
 9721TIP3   OH250653   0.197   1.029   6.921  0.1596  0.2576 -0.4544
 9721TIP3    H150654   0.107   1.060   6.928  0.4792  1.0119  0.7112
 9721TIP3    H250655   0.244   1.103   6.881  0.5874  0.5871  0.6320
 9722TIP3   OH250656   1.541   1.359   2.066  0.4519 -0.2834  0.7121
 9722TIP3    H150657   1.468   1.314   2.025 -0.7665  1.4157  0.8933
 9722TIP3    H250658   1.619   1.317   2.029 -0.5602  0.2020 -2.2675
 9723TIP3   OH250659   1.579   6.765   3.035  0.6309  0.1935 -0.3640
 9723TIP3    H150660   1.609   6.694   3.091 -0.3458  0.4469  0.5005
 9723TIP3    H250661   1.484   6.757   3.035  0.5187  1.4025 -0.3888
 9724TIP3   OH250662   4.679   5.336  15.441 -0.3772 -0.9427  0.3996
 9724TIP3    H150663   4.710   5.246  15.457  2.4977 -0.1997 -0.4245
 9724TIP3    H250664   4.587   5.334  15.467 -0.0076 -3.7167  1.9408
 9725TIP3   OH250665   6.484   4.136   0.981 -0.3203  0.5816  0.1413
 9725TIP3    H150666   6.390   4.156   0.980 -0.4660 -0.0343  0.7977
 9725TIP3    H250667   6.489   4.043   1.007  0.4497  0.4954 -0.2811
 9726TIP3   OH250668   2.772   0.648  12.582 -0.5461 -0.0731 -0.6227
 9726TIP3    H150669   2.859   0.647  12.541 -0.2912  2.2622 -0.2940
 9726TIP3    H250670   2.758   0.557  12.610  1.8411 -0.5022 -0.5766
 9727TIP3   OH250671   1.489   4.322  12.527 -0.3545 -0.3918 -0.5019
 9727TIP3    H150672   1.446   4.354  12.607  1.2941  0.9368 -0.0942
 9727TIP3    H250673   1.459   4.232  12.519 -1.9252 -0.0287  0.6389
 9728TIP3   OH250674   6.704   1.351  13.028 -0.0753 -0.6201  0.3186
 9728TIP3    H150675   6.773   1.414  13.012  1.6174 -1.8564  2.2581
 9728TIP3    H250676   6.658   1.344  12.944  1.3308  1.1888 -0.6677
 9729TIP3   OH250677   3.766   4.149   6.424 -0.1479 -0.1431 -0.3621
 9729TIP3    H150678   3.861   4.139   6.427 -0.1677 -0.4811  2.3973
 9729TIP3    H250679   3.735   4.070   6.380  0.8068 -0.2850 -0.8034
 9730TIP3   OH250680   3.919   0.128   1.658 -0.5983  0.4665 -0.5860
 9730TIP3    H150681   3.958   0.090   1.737 -0.8166 -0.0557 -0.7225
 9730TIP3    H250682   3.862   0.058   1.624  0.2312  0.3256 -1.7487
 9731TIP3   OH250683   5.215   2.248   3.221 -0.0374 -0.2136 -0.2089
 9731TIP3    H150684   5.148   2.286   3.278  1.6283  1.7442  0.5947
 9731TIP3    H250685   5.250   2.322   3.172  0.6771 -1.3797 -1.5506
 9732TIP3   OH250686   1.745   5.533  11.519 -0.5829 -0.6021  0.6173
 9732TIP3    H150687   1.806   5.467  11.488  0.3807  0.0859  0.9888
 9732TIP3    H250688   1.762   5.539  11.613  1.6745  2.4029  0.1594
 9733TIP3   OH250689   1.285   1.145  15.098 -0.3871 -0.0780  0.0202
 9733TIP3    H150690   1.234   1.084  15.151  0.9014 -0.5075  0.8238
 9733TIP3    H250691   1.372   1.104  15.093  0.1566  1.1112 -0.4444
 9734TIP3   OH250692   4.329   3.475  10.888  0.8394 -0.1015  0.0159
 9734TIP3    H150693   4.312   3.553  10.941 -0.2347 -0.8663  0.8378
 9734TIP3    H250694   4.318   3.402  10.949 -1.4895 -1.0860 -1.4428
 9735TIP3   OH250695   2.632   0.734  13.188  0.3362  0.6667  0.1220
 9735TIP3    H150696   2.598   0.789  13.260 -1.5961  2.0384 -1.7213
 9735TIP3    H250697   2.616   0.644  13.217 -0.0668  1.1696  1.5585
 9736TIP3   OH250698   3.663   2.069  13.685 -0.2404  0.5967  0.0798
 9736TIP3    H150699   3.744   2.055  13.636 -0.5761 -0.1294 -0.2844
 9736TIP3    H250700   3.615   1.986  13.677 -1.3219  1.2401 -0.2769
 9737TIP3   OH250701   6.364   0.408   4.009 -0.5934 -0.4318  0.2478
 9737TIP3    H150702   6.399   0.488   3.968 -0.1297  0.4230  2.1951
 9737TIP3    H250703   6.427   0.340   3.986 -0.2375  0.0629 -0.2696
 9738TIP3   OH250704   3.299   0.545   0.005 -0.0655 -0.0494  0.1090
 9738TIP3    H150705   3.216   0.529   0.050  0.1000  0.2393  0.5148
 9738TIP3    H250706   3.278   0.611  -0.061 -0.3001 -0.4479 -0.2181
 9739TIP3   OH250707   4.070   6.415   3.416  0.4364 -0.1790  0.0964
 9739TIP3    H150708   4.136   6.420   3.347 -0.2275 -0.6230 -0.5859
 9739TIP3    H250709   4.085   6.492   3.470  2.2138 -0.8170  0.5948
 9740TIP3   OH250710   6.053   0.983  11.818 -0.3129 -0.1080  0.5662
 9740TIP3    H150711   6.060   1.038  11.740 -0.8482  0.1616  0.7034
 9740TIP3    H250712   5.967   1.004  11.855 -0.7812 -1.4514  0.2970
 9741TIP3   OH250713   2.634   1.016   5.352  0.8184 -0.4429 -0.0363
 9741TIP3    H150714   2.572   0.954   5.313  1.2970 -0.7713 -0.2841
 9741TIP3    H250715   2.638   1.089   5.290 -2.2060  1.4443  1.7208
 9742TIP3   OH250716   5.785   5.394  10.606 -0.3434  0.7416  0.0598
 9742TIP3    H150717   5.702   5.441  10.607 -0.0108  1.3329  0.4469
 9742TIP3    H250718   5.844   5.452  10.557 -0.7198 -0.6683 -2.2319
 9743TIP3   OH250719   5.547   5.615  12.161  0.5361 -0.7049  0.1353
 9743TIP3    H150720   5.642   5.628  12.167  0.4623  1.0161 -1.4670
 9743TIP3    H250721   5.515   5.696  12.122 -1.5179 -1.5768 -0.0787
 9744TIP3   OH250722   2.239   2.296   2.278  1.0098  0.6508  0.2665
 9744TIP3    H150723   2.185   2.362   2.322 -0.7850  0.2410 -1.1978
 9744TIP3    H250724   2.258   2.232   2.347 -1.9524 -0.1234  0.4899
 9745TIP3   OH250725   4.722   0.728   5.348  0.3357 -0.6085  0.2540
 9745TIP3    H150726   4.652   0.683   5.395 -0.5214 -0.9433 -1.2753
 9745TIP3    H250727   4.719   0.692   5.260  0.6602  1.3157 -0.5893
 9746TIP3   OH250728   3.354   2.885   2.984 -0.6637  0.8891 -0.4074
 9746TIP3    H150729   3.307   2.836   3.051 -1.2051 -0.3925 -1.6754
 9746TIP3    H250730   3.440   2.843   2.980 -0.6221  0.9826 -0.4858
 9747TIP3   OH250731   6.213   4.757   4.098 -0.7262  0.2561 -0.2273
 9747TIP3    H150732   6.166   4.699   4.158 -0.1839 -1.0293 -1.0092
 9747TIP3    H250733   6.273   4.699   4.051  1.2480  1.7253  0.3171
 9748TIP3   OH250734   1.258   4.943  10.694  0.2632 -0.3801  0.5227
 9748TIP3    H150735   1.273   5.028  10.735  1.2330 -0.6419  0.7415
 9748TIP3    H250736   1.306   4.948  10.612  1.3517 -1.1363  1.0924
 9749TIP3   OH250737   4.470   0.602   2.295  0.3514  0.4317 -0.1125
 9749TIP3    H150738   4.419   0.522   2.279  0.2536  0.8823 -2.4684
 9749TIP3    H250739   4.560   0.578   2.275  0.5517  0.5441  0.6293
 9750TIP3   OH250740   3.207   3.799  14.931 -0.3562  0.4512  0.1159
 9750TIP3    H150741   3.301   3.780  14.930 -0.8009 -1.9148 -0.4741
 9750TIP3    H250742   3.179   3.790  14.840 -1.3615 -0.0219  0.4546
 9751TIP3   OH250743   1.865   0.649  11.414  0.5282 -0.7860 -0.2565
 9751TIP3    H150744   1.931   0.664  11.481 -0.4085 -2.6464  1.1979
 9751TIP3    H250745   1.911   0.599  11.346  0.7326 -1.8259  0.6109
 9752TIP3   OH250746   0.446   5.950  13.936 -0.3532  0.5152 -0.0290
 9752TIP3    H150747   0.402   5.934  14.019  0.3131  1.1329  0.4570
 9752TIP3    H250748   0.425   5.873  13.882  0.6000 -0.7455  1.2981
 9753TIP3   OH250749   4.618   0.226  12.148 -0.4376  1.0255  0.0602
 9753TIP3    H150750   4.528   0.248  12.170 -1.6186 -1.8077 -1.4373
 9753TIP3    H250751   4.665   0.228  12.231 -1.9486  2.1230  0.9302
 9754TIP3   OH250752   5.325   5.407   5.166 -0.0771 -0.1680  0.2943
 9754TIP3    H150753   5.312   5.346   5.239 -0.2833 -0.2496  0.1918
 9754TIP3    H250754   5.272   5.370   5.095  0.1779 -0.1279  0.0817
 9755TIP3   OH250755   3.059   5.416   1.332 -0.0038  0.3400 -0.2213
 9755TIP3    H150756   3.117   5.491   1.319  1.2004 -0.4151  0.6068
 9755TIP3    H250757   3.016   5.404   1.248 -0.0515  1.8091 -0.4358
 9756TIP3   OH250758   1.995   0.274  16.137  0.3263 -0.0233  0.3912
 9756TIP3    H150759   1.911   0.314  16.157  0.2818  0.6924 -1.0415
 9756TIP3    H250760   1.977   0.180  16.131 -0.2653  0.0763  0.6113
 9757TIP3   OH250761   6.294   1.488   4.641  0.1234  0.1885 -0.1748
 9757TIP3    H150762   6.278   1.432   4.565 -0.3317 -0.8020  0.6351
 9757TIP3    H250763   6.297   1.577   4.605  3.4188 -0.4583 -1.8996
 9758TIP3   OH250764   6.158   1.420   5.416 -0.0093 -0.2678  0.2449
 9758TIP3    H150765   6.226   1.440   5.480 -1.3002 -0.9912  1.9572
 9758TIP3    H250766   6.200   1.364   5.352  0.8881 -1.2349  1.6195
 9759TIP3   OH250767   4.098   1.119  11.780  0.2403 -0.0970 -0.2215
 9759TIP3    H150768   4.123   1.187  11.718  0.0217 -0.4310 -0.6857
 9759TIP3    H250769   4.074   1.044  11.725  0.0187 -0.3890  0.2648
 9760TIP3   OH250770   0.157   0.494   1.413 -0.0737 -0.0672  0.1121
 9760TIP3    H150771   0.102   0.499   1.491  0.8032 -0.5738  0.7843
 9760TIP3    H250772   0.204   0.411   1.421  0.8185  0.3583 -0.4140
 9761TIP3   OH250773   0.953   3.177   2.019 -0.6218  0.2923  0.2449
 9761TIP3    H150774   1.013   3.155   1.948 -0.8288  0.7756 -0.0814
 9761TIP3    H250775   1.008   3.218   2.086 -0.7290  1.5509 -0.4272
 9762TIP3   OH250776   4.040   5.425   4.008  0.0547 -0.4952 -0.3866
 9762TIP3    H150777   4.134   5.441   4.006 -0.1771  1.3986  1.0912
 9762TIP3    H250778   4.000   5.512   4.008 -1.6678 -1.2361 -0.0771
 9763TIP3   OH250779   3.302   0.983  14.340 -0.2895  0.0848 -0.3609
 9763TIP3    H150780   3.301   0.927  14.262 -1.3761 -1.6416  0.8240
 9763TIP3    H250781   3.211   0.986  14.369 -0.3100  2.6233 -0.4128
 9764TIP3   OH250782   5.375   1.968  15.555 -0.0510 -0.0474 -0.4331
 9764TIP3    H150783   5.422   1.939  15.477 -1.6203 -1.8250 -0.7823
 9764TIP3    H250784   5.428   1.939  15.629 -0.7942 -2.5655 -0.8120
 9765TIP3   OH250785   1.244   0.723   4.480 -0.3147  0.8046  0.0349
 9765TIP3    H150786   1.291   0.795   4.520 -2.9022  3.9686 -2.0658
 9765TIP3    H250787   1.275   0.721   4.389 -0.6865 -0.4049 -0.0908
 9766TIP3   OH250788   2.312   2.412  15.276  0.7958 -0.1370 -0.7349
 9766TIP3    H150789   2.243   2.464  15.234 -1.1044  0.8151  3.0515
 9766TIP3    H250790   2.374   2.477  15.309  1.0923 -0.6422 -0.2855
 9767TIP3   OH250791   2.879   2.847  16.899  0.0851 -0.5663  0.8306
 9767TIP3    H150792   2.959   2.842  16.846 -0.7382 -3.4319 -0.3615
 9767TIP3    H250793   2.823   2.907  16.851 -0.5670 -2.9581 -1.6399
 9768TIP3   OH250794   1.203   4.225   4.146 -0.4640  0.2865  0.1183
 9768TIP3    H150795   1.184   4.200   4.236  1.9603  0.5465  0.7838
 9768TIP3    H250796   1.212   4.320   4.149 -1.1057  0.3752 -0.5732
 9769TIP3   OH250797   1.660   0.816   5.226  0.4071 -0.0544 -0.4437
 9769TIP3    H150798   1.676   0.911   5.229 -0.7823  0.2644 -2.3632
 9769TIP3    H250799   1.748   0.778   5.223  1.0189  0.7516  3.1605
 9770TIP3   OH250800   3.943   5.805  14.952  0.0288 -0.0790  0.1297
 9770TIP3    H150801   4.031   5.772  14.930 -0.1190  0.0875 -0.7308
 9770TIP3    H250802   3.886   5.728  14.943  0.3166 -0.6760  2.5142
 9771TIP3   OH250803   4.941   5.894  15.914  0.1034 -0.4098  0.1363
 9771TIP3    H150804   4.921   5.831  15.983 -0.7205  0.1787  0.4542
 9771TIP3    H250805   4.942   5.842  15.834 -1.4380 -0.7023  0.2788
 9772TIP3   OH250806   2.742   5.669  15.592 -0.0517  1.0122 -0.5456
 9772TIP3    H150807   2.679   5.727  15.634 -1.3641  0.3035 -1.4633
 9772TIP3    H250808   2.706   5.653  15.504  0.4974 -0.7924 -0.4924
 9773TIP3   OH250809   6.637   5.664  16.715 -0.0583  0.0954 -0.1487
 9773TIP3    H150810   6.637   5.736  16.777  0.1087  0.5398 -0.6533
 9773TIP3    H250811   6.596   5.700  16.636 -4.5646 -1.7114  1.0588
 9774TIP3   OH250812   4.330   3.715   3.278  0.0823 -0.5003  0.3100
 9774TIP3    H150813   4.241   3.749   3.268 -0.6100 -2.1076  0.5448
 9774TIP3    H250814   4.353   3.680   3.192  0.9208  0.8303 -0.0255
 9775TIP3   OH250815   2.739   0.805   6.096 -0.3671 -0.6432  0.2186
 9775TIP3    H150816   2.791   0.885   6.089 -2.8086  1.0463  0.2938
 9775TIP3    H250817   2.785   0.753   6.161  0.3690  1.4996  1.5222
 9776TIP3   OH250818   1.060   1.141   2.869 -0.3773 -0.0734  0.4572
 9776TIP3    H150819   1.108   1.197   2.931 -1.2923  0.4888  0.6765
 9776TIP3    H250820   1.007   1.203   2.818  0.4078 -0.5096 -0.9640
 9777TIP3   OH250821   6.025   2.723  11.221  0.4616  0.3680 -0.4667
 9777TIP3    H150822   5.977   2.798  11.255 -0.6082 -0.3807 -0.2752
 9777TIP3    H250823   5.982   2.702  11.138  1.4168  0.6009 -1.0318
 9778TIP3   OH250824   5.895   5.833   4.596  0.5054 -0.4901  0.4085
 9778TIP3    H150825   5.823   5.804   4.541 -0.8321  1.4522  1.0460
 9778TIP3    H250826   5.942   5.753   4.618 -0.6796 -1.6516 -1.0674
 9779TIP3   OH250827   3.965   2.160  13.249 -0.1040 -0.2743  0.1237
 9779TIP3    H150828   3.942   2.075  13.212 -0.3362 -1.2939  2.3970
 9779TIP3    H250829   3.893   2.218  13.225 -0.3470 -0.9337 -0.7768
 9780TIP3   OH250830   0.798   1.388   1.555 -0.2120 -0.1704  0.2835
 9780TIP3    H150831   0.781   1.330   1.482 -0.1135 -1.0075  0.9074
 9780TIP3    H250832   0.712   1.400   1.597  0.1492 -1.8557  1.5834
 9781TIP3   OH250833   6.224   5.005  13.535  0.2636 -0.0569 -0.2810
 9781TIP3    H150834   6.206   4.946  13.609  0.0157 -1.8249 -1.6888
 9781TIP3    H250835   6.315   5.032  13.547  0.4117 -0.8075  0.3498
 9782TIP3   OH250836   5.943   6.618   5.672  0.0630  0.6014  0.3225
 9782TIP3    H150837   5.916   6.580   5.756  0.1837  0.6918  0.4039
 9782TIP3    H250838   6.034   6.645   5.686  1.0741 -1.9651 -0.7201
 9783TIP3   OH250839   6.106   4.191   1.825 -0.0744 -0.2916 -0.0323
 9783TIP3    H150840   6.032   4.202   1.766 -0.6637  0.3946  0.8095
 9783TIP3    H250841   6.166   4.133   1.778 -0.2190  0.7549 -1.5766
 9784TIP3   OH250842   0.696   0.830  15.088 -0.0994  0.1017 -0.3305
 9784TIP3    H150843   0.696   0.758  15.151  0.2389  0.3374 -0.0543
 9784TIP3    H250844   0.625   0.888  15.117  0.7097  0.7337  0.4580
 9785TIP3   OH250845   2.575   3.091  12.867  0.3685  0.0941 -0.3212
 9785TIP3    H150846   2.658   3.125  12.834  0.7425  0.2147  0.7204
 9785TIP3    H250847   2.600   3.027  12.934 -0.3728  1.5845  1.4454
 9786TIP3   OH250848   2.209   3.120   5.601  1.1057 -0.0613  0.0406
 9786TIP3    H150849   2.215   3.212   5.578  0.1272 -0.0814 -0.3298
 9786TIP3    H250850   2.158   3.118   5.683  1.2365 -0.2596  0.1195
 9787TIP3   OH250851   3.513   0.077   3.731 -0.6933 -0.2797  0.7545
 9787TIP3    H150852   3.587   0.135   3.715 -0.7533 -0.7295 -1.3828
 9787TIP3    H250853   3.507   0.073   3.827  0.3255  1.8937  0.9715
 9788TIP3   OH250854   6.300   2.456  16.980  0.8430 -0.4722  0.6884
 9788TIP3    H150855   6.386   2.414  16.982 -0.0959 -2.6433  3.7239
 9788TIP3    H250856   6.252   2.410  16.912  1.5492 -0.4617  0.1769
 9789TIP3   OH250857   6.104   6.355  14.801  0.1996  0.1413  0.3171
 9789TIP3    H150858   6.082   6.277  14.750  0.5628 -1.1177  1.9729
 9789TIP3    H250859   6.119   6.423  14.736 -1.2900 -0.8498 -1.1402
 9790TIP3   OH250860   0.351   4.909   0.705  0.5636  0.4461  0.0739
 9790TIP3    H150861   0.353   4.887   0.612 -1.1661  0.4318 -0.0090
 9790TIP3    H250862   0.420   4.856   0.745 -1.0781 -2.5199 -0.6658
 9791TIP3   OH250863   1.568   3.607  16.761  0.2446 -0.1932 -0.0465
 9791TIP3    H150864   1.550   3.563  16.844 -1.4454 -0.1622 -0.3676
 9791TIP3    H250865   1.618   3.685  16.785 -1.0528  0.3213  1.0616
 9792TIP3   OH250866   0.257   1.733  14.025  0.6464 -0.1955  0.7136
 9792TIP3    H150867   0.193   1.683  14.077 -0.3460 -0.3557 -0.6176
 9792TIP3    H250868   0.337   1.680  14.029 -0.4277 -2.0629 -0.8186
 9793TIP3   OH250869   2.977   1.487  16.728 -0.5206 -0.2430  0.1513
 9793TIP3    H150870   2.969   1.469  16.634  0.8421 -0.6184  0.0833
 9793TIP3    H250871   2.972   1.583  16.733  1.0728 -0.0766 -0.5377
 9794TIP3   OH250872   5.456   5.517   2.250 -0.0292 -0.6276  0.3226
 9794TIP3    H150873   5.416   5.532   2.336  1.1981  1.3127  0.5975
 9794TIP3    H250874   5.415   5.581   2.193  0.0966 -1.0490 -0.2491
 9795TIP3   OH250875   2.788   4.180   5.062  0.1751  0.1004 -0.3205
 9795TIP3    H150876   2.789   4.268   5.026 -0.7885 -0.1916 -1.1147
 9795TIP3    H250877   2.804   4.123   4.986  3.1683 -0.3497  0.5409
 9796TIP3   OH250878   0.803   2.739  14.904 -0.1363  0.5723 -0.2391
 9796TIP3    H150879   0.760   2.745  14.819  1.5295  0.1385 -1.1486
 9796TIP3    H250880   0.757   2.668  14.949 -0.0877 -0.2011 -1.3701
 9797TIP3   OH250881   0.404   6.454   2.706 -0.3548 -0.2120 -0.0260
 9797TIP3    H150882   0.367   6.482   2.790  0.0681 -1.6641  0.6685
 9797TIP3    H250883   0.343   6.488   2.641 -1.0672  0.3423  0.9029
 9798TIP3   OH250884   1.779   4.355   0.386  0.0068  0.1037  0.1404
 9798TIP3    H150885   1.771   4.282   0.448 -0.9030 -0.6281 -0.8009
 9798TIP3    H250886   1.731   4.427   0.427 -0.1353 -0.2055  0.5255
 9799TIP3   OH250887   1.380   2.878  16.669  0.4937 -0.1463 -0.0300
 9799TIP3    H150888   1.383   2.968  16.639  1.0815 -0.1707 -0.0584
 9799TIP3    H250889   1.356   2.884  16.762 -2.5559 -0.1403 -0.7415
 9800TIP3   OH250890   3.568   4.296   0.562 -0.0390  0.1046  0.2359
 9800TIP3    H150891   3.622   4.230   0.605 -0.8035 -0.8010 -0.1814
 9800TIP3    H250892   3.541   4.354   0.634 -0.1912 -0.6129  0.7723
 9801TIP3   OH250893   3.169   0.263   3.195  0.3211  0.0869  0.4366
 9801TIP3    H150894   3.084   0.237   3.159 -1.1500  0.6104  3.2088
 9801TIP3    H250895   3.192   0.343   3.147 -1.6257  0.8552  0.6885
 9802TIP3   OH250896   4.554   4.139   4.014  0.1704  0.1488  0.1038
 9802TIP3    H150897   4.592   4.214   3.969 -0.1940 -0.6321 -1.6182
 9802TIP3    H250898   4.486   4.175   4.069  0.2072  1.1082 -0.4659
 9803TIP3   OH250899   5.330   5.657   5.673  0.1782  0.1050 -0.4614
 9803TIP3    H150900   5.419   5.627   5.652 -0.0194 -1.7758  1.0733
 9803TIP3    H250901   5.338   5.752   5.682  2.6328 -0.2220  2.1207
 9804TIP3   OH250902   5.209   2.912   6.488 -0.0615 -0.3736 -0.7382
 9804TIP3    H150903   5.230   2.831   6.536  0.5898  0.8880  1.2565
 9804TIP3    H250904   5.294   2.952   6.471 -0.4198  1.3705  1.1316
 9805TIP3   OH250905   2.615   2.516   2.064 -0.4180 -0.0160 -0.2817
 9805TIP3    H150906   2.599   2.423   2.082 -0.0897 -0.0596 -0.2056
 9805TIP3    H250907   2.529   2.556   2.065 -0.9134 -0.7789 -3.0117
 9806TIP3   OH250908   2.475   4.306  11.571 -0.6462 -0.7377 -0.1433
 9806TIP3    H150909   2.456   4.216  11.543  0.0723 -1.3590  1.2636
 9806TIP3    H250910   2.451   4.307  11.664  0.0722  0.3131  0.0437
 9807TIP3   OH250911   4.460   2.765   4.225 -0.1638  0.0147 -0.2053
 9807TIP3    H150912   4.374   2.724   4.220 -0.5910  0.7940  0.4241
 9807TIP3    H250913   4.522   2.694   4.211 -0.9137 -0.5277 -0.8226
 9808TIP3   OH250914   2.280   3.776   2.926 -0.1687 -0.3458 -0.1599
 9808TIP3    H150915   2.277   3.869   2.950 -0.1697 -0.1327 -0.9546
 9808TIP3    H250916   2.325   3.774   2.842  1.0464 -1.2110  0.4803
 9809TIP3   OH250917   1.650   2.484   4.205  0.8301  0.7070  0.1764
 9809TIP3    H150918   1.741   2.468   4.180  0.8296  1.6370 -0.4982
 9809TIP3    H250919   1.625   2.561   4.154 -0.9667 -0.6790 -1.1675
 9810TIP3   OH250920   3.460   4.209  15.647  0.1448  0.5803  0.0274
 9810TIP3    H150921   3.381   4.164  15.618  0.7500 -0.8673  0.4998
 9810TIP3    H250922   3.431   4.268  15.716 -0.6083  0.5166 -0.2297
 9811TIP3   OH250923   2.432   5.755  15.282  0.1050  0.2562 -0.3645
 9811TIP3    H150924   2.526   5.771  15.283 -0.0378  1.1215  0.7398
 9811TIP3    H250925   2.397   5.809  15.353 -1.2123 -0.1391 -0.6764
 9812TIP3   OH250926   3.589   6.699  13.878  0.1683 -0.1831  0.0958
 9812TIP3    H150927   3.595   6.772  13.817 -0.5912 -1.6061 -1.7844
 9812TIP3    H250928   3.540   6.734  13.952  1.0326  1.5723 -0.1003
 9813TIP3   OH250929   6.606   4.088  15.506  0.7243  0.2100  0.5377
 9813TIP3    H150930   6.622   4.103  15.599 -1.0350  2.2405  0.5967
 9813TIP3    H250931   6.523   4.039  15.504  0.4562  0.6723  0.0469
 9814TIP3   OH250932   2.492   3.391  16.333  0.3406 -0.1612 -0.2239
 9814TIP3    H150933   2.474   3.396  16.427 -0.1142 -1.3561 -0.2274
 9814TIP3    H250934   2.420   3.440  16.292  0.9747  1.0461  0.0685
 9815TIP3   OH250935   0.997   3.295   0.644  0.3077  0.6940 -0.1057
 9815TIP3    H150936   1.027   3.366   0.702 -0.4122  1.6371 -0.8482
 9815TIP3    H250937   1.035   3.317   0.559 -0.9655  0.8975 -0.6303
 9816TIP3   OH250938   2.210   1.013  13.378 -0.1241  0.2945 -0.0684
 9816TIP3    H150939   2.226   1.031  13.471 -0.9702  1.3853 -0.1194
 9816TIP3    H250940   2.182   1.097  13.342 -2.4371 -0.6927 -0.7399
 9817TIP3   OH250941   1.921   5.909  11.571 -0.1606 -0.2479  0.1326
 9817TIP3    H150942   1.831   5.885  11.593 -1.4515  0.7973 -3.2346
 9817TIP3    H250943   1.961   5.827  11.543  0.4423 -0.9463  2.7616
 9818TIP3   OH250944   2.828   6.745   0.970 -0.4488 -0.1847  0.6264
 9818TIP3    H150945   2.798   6.670   0.918  1.7873 -0.0743 -0.9527
 9818TIP3    H250946   2.793   6.728   1.058 -2.0522 -1.7929 -0.2451
 9819TIP3   OH250947   4.149   4.555  14.250 -0.0679  0.0995 -0.0157
 9819TIP3    H150948   4.229   4.588  14.209 -0.4368  0.2929 -0.5812
 9819TIP3    H250949   4.135   4.615  14.324  0.3362  0.0329  0.1197
 9820TIP3   OH250950   4.340   5.944   2.152 -0.0065 -0.2921 -0.4985
 9820TIP3    H150951   4.286   5.965   2.076 -0.5889  0.1969  0.0372
 9820TIP3    H250952   4.416   6.001   2.144  0.1342 -0.5327 -0.9236
 9821TIP3   OH250953   1.286   1.999  14.033 -0.4166  0.1000  0.0727
 9821TIP3    H150954   1.326   1.950  13.961 -0.8631  0.0508 -0.1437
 9821TIP3    H250955   1.195   1.970  14.034 -0.2646 -0.4054  1.0857
 9822TIP3   OH250956   5.513   6.466   1.970  0.0609  0.0797  0.2817
 9822TIP3    H150957   5.492   6.528   2.039 -1.5403 -1.7076  1.4875
 9822TIP3    H250958   5.608   6.453   1.977  0.1095  0.9008  1.2937
 9823TIP3   OH250959   1.617   1.858   0.701  0.2350  1.0111 -0.1765
 9823TIP3    H150960   1.634   1.840   0.793 -1.3403  0.5104  0.0349
 9823TIP3    H250961   1.562   1.785   0.672 -0.7801  2.0848 -1.0371
 9824TIP3   OH250962   4.638   3.165   5.205 -0.6450 -0.9048 -0.6897
 9824TIP3    H150963   4.611   3.242   5.255  0.1473 -0.5449 -0.8118
 9824TIP3    H250964   4.614   3.091   5.261  0.3222 -0.5105  0.2913
 9825TIP3   OH250965   2.610   4.217   6.526 -0.7664  0.0031 -0.5482
 9825TIP3    H150966   2.537   4.193   6.584 -0.6407  0.8803 -0.0189
 9825TIP3    H250967   2.676   4.150   6.543 -0.5363  0.5201  0.6887
 9826TIP3   OH250968   3.559   5.220   5.443 -0.6215 -0.1378  0.4675
 9826TIP3    H150969   3.533   5.297   5.494 -1.6887  0.2063 -0.5383
 9826TIP3    H250970   3.635   5.249   5.393 -0.2890 -0.1113  0.9907
 9827TIP3   OH250971   3.263   0.739   5.831 -0.1444 -0.1225 -0.4462
 9827TIP3    H150972   3.355   0.743   5.805  0.1944  0.0449  0.7247
 9827TIP3    H250973   3.219   0.695   5.758  1.0045 -1.0098 -0.6216
 9828TIP3   OH250974   1.817   5.860  13.870 -0.3234  0.4838  0.6998
 9828TIP3    H150975   1.869   5.940  13.883  1.9540 -0.7781 -0.0757
 9828TIP3    H250976   1.797   5.829  13.958 -0.7333  1.5762  1.0069
 9829TIP3   OH250977   0.410   0.221  14.010  0.0340 -1.5858  0.2892
 9829TIP3    H150978   0.437   0.274  13.935 -0.2139  0.0269  1.3046
 9829TIP3    H250979   0.349   0.157  13.973 -1.8787  0.6059 -0.6012
 9830TIP3   OH250980   0.052   5.279   2.599  0.2336  0.2113 -0.1964
 9830TIP3    H150981   0.012   5.282   2.686 -1.6152  2.8966 -1.0271
 9830TIP3    H250982   0.003   5.211   2.552  0.1864 -0.1515  0.3778
 9831TIP3   OH250983   0.872   5.027  12.950  0.2353 -0.5042 -0.3494
 9831TIP3    H150984   0.917   5.065  13.025  1.2515 -1.3095 -0.5290
 9831TIP3    H250985   0.922   5.057  12.874 -0.9376  0.5196 -0.7534
 9832TIP3   OH250986   5.444   0.774  15.261 -0.0678  0.7561  0.1724
 9832TIP3    H150987   5.518   0.713  15.267 -0.5338 -0.1339 -2.0241
 9832TIP3    H250988   5.475   0.845  15.205 -0.6925  0.6225 -0.3618
 9833TIP3   OH250989   1.545   4.051  13.437 -0.1151  0.1329  0.3351
 9833TIP3    H150990   1.505   3.968  13.463  1.5687 -0.0218  2.6845
 9833TIP3    H250991   1.533   4.054  13.342 -1.6604 -1.9915  0.3796
 9834TIP3   OH250992   4.046   1.853   0.443  0.3509  0.1629 -0.1136
 9834TIP3    H150993   3.956   1.881   0.461 -0.9601 -1.7619 -2.8553
 9834TIP3    H250994   4.070   1.901   0.363  0.9892 -0.7266 -0.4812
 9835TIP3   OH250995   0.244   5.869  16.398 -0.2003 -0.3654  0.3425
 9835TIP3    H150996   0.152   5.885  16.375  0.0264  1.0385  0.2938
 9835TIP3    H250997   0.241   5.801  16.464 -1.3987  0.6571  1.3966
 9836TIP3   OH250998   5.727   2.953   1.322 -0.1076  0.2555 -0.3738
 9836TIP3    H150999   5.801   3.014   1.321 -0.3311  0.5452 -1.8818
 9836TIP3    H251000   5.667   2.987   1.257 -2.1479  0.6477  1.6081
 9837TIP3   OH251001   6.590   6.471  13.120  0.4746 -0.1330 -0.1582
 9837TIP3    H151002   6.510   6.476  13.068  1.9368  0.5832 -2.5468
 9837TIP3    H251003   6.618   6.562  13.129  1.4946 -0.4241 -0.2225
 9838TIP3   OH251004   5.169   2.821   3.360  0.3837 -0.1021 -0.8913
 9838TIP3    H151005   5.254   2.807   3.403 -0.0109 -0.8318 -0.3294
 9838TIP3    H251006   5.109   2.841   3.432  0.5276  2.8855 -1.4696
 9839TIP3   OH251007   4.892   0.264   1.945 -0.2871 -0.2719  0.1662
 9839TIP3    H151008   4.804   0.294   1.922 -0.1938 -0.7869 -0.9365
 9839TIP3    H251009   4.899   0.178   1.905  0.1135 -0.9918  1.7196
 9840TIP3   OH251010   1.789   2.189  13.046  0.8028 -0.8747  0.5513
 9840TIP3    H151011   1.857   2.249  13.077 -0.9338  0.4449  2.0008
 9840TIP3    H251012   1.718   2.246  13.017  0.1365 -2.2156 -0.5635
 9841TIP3   OH251013   5.964   2.016  10.593  0.0025  0.5464  0.1473
 9841TIP3    H151014   5.989   1.946  10.653  0.5921  1.7954  1.4131
 9841TIP3    H251015   6.044   2.069  10.582 -0.6368  1.4992 -0.1093
 9842TIP3   OH251016   1.900   5.878   5.065  0.0648 -0.5799 -0.3166
 9842TIP3    H151017   1.995   5.874   5.065  0.2476  1.7644  0.2378
 9842TIP3    H251018   1.871   5.788   5.080  2.2363 -1.0080  1.8822
 9843TIP3   OH251019   2.740   4.474   3.714  0.8975  0.0643  0.2453
 9843TIP3    H151020   2.795   4.446   3.786  0.0027  0.0294  0.9299
 9843TIP3    H251021   2.653   4.485   3.752  0.4067  0.0644 -0.8176
 9844TIP3   OH251022   6.692   1.710   0.612  0.2915 -0.1237 -0.0212
 9844TIP3    H151023   6.603   1.677   0.616 -0.3635  1.1830 -2.0601
 9844TIP3    H251024   6.684   1.804   0.632  1.1117  0.0966 -0.6169
 9845TIP3   OH251025   4.599   5.730  14.453 -0.0946  0.6864 -0.5710
 9845TIP3    H151026   4.518   5.684  14.430 -1.4118  2.8346 -0.5328
 9845TIP3    H251027   4.646   5.737  14.370  1.6707 -3.2429 -0.1253
 9846TIP3   OH251028   0.792   1.387  15.672 -0.8536 -0.0494  0.3228
 9846TIP3    H151029   0.886   1.373  15.662 -0.5947  2.1250 -0.9904
 9846TIP3    H251030   0.782   1.411  15.765  0.4046  2.6116 -0.1328
 9847TIP3   OH251031   0.585   0.326  16.630  0.3917  0.8289 -0.6118
 9847TIP3    H151032   0.669   0.280  16.634 -0.8612 -1.5289  0.3690
 9847TIP3    H251033   0.564   0.345  16.721 -1.1547 -0.6466 -0.6199
 9848TIP3   OH251034   3.752   1.521  14.402  0.4118  0.0021 -0.0206
 9848TIP3    H151035   3.657   1.514  14.394  0.1703  2.8794 -1.1566
 9848TIP3    H251036   3.784   1.433  14.385 -2.0189 -0.8734 -0.5332
 9849TIP3   OH251037   2.833   3.545  16.881 -0.0093 -0.2612  0.3039
 9849TIP3    H151038   2.913   3.493  16.888 -0.7040 -1.2748  1.1275
 9849TIP3    H251039   2.764   3.486  16.911 -0.7173  1.4410  2.2876
 9850TIP3   OH251040   6.044   4.003  14.634  0.2643 -0.3345  0.1019
 9850TIP3    H151041   6.066   3.913  14.610  2.2438 -0.0147  0.4634
 9850TIP3    H251042   6.110   4.026  14.700  0.5296  1.7347 -0.8011
 9851TIP3   OH251043   0.765   2.133  13.772 -0.2292  0.6655 -0.2338
 9851TIP3    H151044   0.798   2.176  13.693  2.1381  0.3418  0.5131
 9851TIP3    H251045   0.818   2.169  13.843 -1.2500 -0.2060  1.0153
 9852TIP3   OH251046   6.697   5.874   0.309 -0.1743  0.0191 -0.1718
 9852TIP3    H151047   6.704   5.894   0.215 -0.1801  0.3234 -0.1088
 9852TIP3    H251048   6.648   5.948   0.345 -1.6400 -0.8994 -0.2068
 9853TIP3   OH251049   1.141   2.366   1.144  0.3275  0.2472  1.1456
 9853TIP3    H151050   1.106   2.279   1.161  1.0438 -0.1780  0.5412
 9853TIP3    H251051   1.069   2.413   1.102  1.3448 -1.7067 -3.4015
 9854TIP3   OH251052   6.657   2.932   1.857  0.0681  0.3178  0.2985
 9854TIP3    H151053   6.681   2.961   1.945  2.7712  0.9440 -0.5573
 9854TIP3    H251054   6.647   2.837   1.865  2.2153  0.0919  0.9439
 9855TIP3   OH251055   6.533   0.860   3.433  0.2880  0.5173 -0.8393
 9855TIP3    H151056   6.609   0.812   3.464  1.3838  2.5317 -0.2657
 9855TIP3    H251057   6.567   0.924   3.371 -0.8873  1.5550 -0.4784
 9856TIP3   OH251058   1.232   4.605   1.375  0.8895  0.5893 -0.0960
 9856TIP3    H151059   1.232   4.521   1.422 -0.6874  0.1166 -0.8761
 9856TIP3    H251060   1.263   4.668   1.439  0.7825 -0.3799  0.9412
 9857TIP3   OH251061   5.918   2.815  17.288 -0.0468  0.4585 -0.1336
 9857TIP3    H151062   5.909   2.771  17.203  0.1267  2.4993 -1.2833
 9857TIP3    H251063   5.868   2.897  17.278  0.8515  1.2305  1.3556
 9858TIP3   OH251064   6.546   1.592  11.683  0.3685  0.1621 -0.1630
 9858TIP3    H151065   6.463   1.552  11.658  2.0558 -2.3052 -2.4408
 9858TIP3    H251066   6.564   1.557  11.770  0.7543 -2.5572 -1.2241
 9859TIP3   OH251067   2.679   5.968  12.729 -0.2214  0.4946 -0.2186
 9859TIP3    H151068   2.698   5.887  12.682 -0.7687  0.7054 -0.8156
 9859TIP3    H251069   2.753   6.025  12.710  0.2804  0.0592  0.3951
 9860TIP3   OH251070   2.000   6.102  13.214 -0.0281 -0.2904 -0.1386
 9860TIP3    H151071   1.911   6.135  13.216 -0.6252 -1.5896  4.0268
 9860TIP3    H251072   1.993   6.014  13.177  0.1670  0.7085 -2.7784
 9861TIP3   OH251073   1.461   4.772   4.924 -0.0519  0.3850 -0.2236
 9861TIP3    H151074   1.435   4.864   4.926  2.0471  1.0284  0.2457
 9861TIP3    H251075   1.447   4.740   5.013  1.9776  1.1435  0.4191
 9862TIP3   OH251076   3.128   1.429   2.649  0.1660  0.1699  0.1838
 9862TIP3    H151077   3.202   1.461   2.700  0.9229 -0.2312 -0.6390
 9862TIP3    H251078   3.053   1.438   2.708  0.5877  2.0453  0.4851
 9863TIP3   OH251079   0.763   6.812   0.915  0.3603  0.2404  0.9541
 9863TIP3    H151080   0.701   6.740   0.902  0.4066  0.4615 -0.7022
 9863TIP3    H251081   0.838   6.788   0.860  0.9108  0.9467  1.3850
 9864TIP3   OH251082   1.110   5.715  14.364  0.1038 -0.5521 -0.5435
 9864TIP3    H151083   1.063   5.684  14.441  1.0350 -0.8407 -0.0705
 9864TIP3    H251084   1.062   5.792  14.335  0.6031  0.4620  1.2454
 9865TIP3   OH251085   2.689   4.359  13.444  0.2549  0.1673  0.4049
 9865TIP3    H151086   2.649   4.417  13.379  0.2448 -1.6712 -1.3291
 9865TIP3    H251087   2.781   4.387  13.446  0.6002 -0.6319 -1.5405
 9866TIP3   OH251088   1.706   4.404   1.962  0.1068 -0.4378 -0.2103
 9866TIP3    H151089   1.676   4.492   1.940  0.4474 -0.0473  0.8101
 9866TIP3    H251090   1.664   4.385   2.046 -1.3407 -1.9617 -1.1992
 9867TIP3   OH251091   2.266   3.613  10.672  0.0091 -0.0299 -0.1681
 9867TIP3    H151092   2.336   3.549  10.660 -0.5118 -0.8766  0.9994
 9867TIP3    H251093   2.190   3.573  10.629  0.1398  0.7069 -1.1027
 9868TIP3   OH251094   5.362   1.127  11.636  0.3509  0.5294 -0.1081
 9868TIP3    H151095   5.401   1.153  11.552 -0.0444  1.5069 -0.0062
 9868TIP3    H251096   5.292   1.190  11.650 -0.8272 -0.7663  0.0591
 9869TIP3   OH251097   0.599   2.500  12.463  0.1581  0.3309 -0.0142
 9869TIP3    H151098   0.620   2.562  12.393 -0.2847  0.7914  0.2550
 9869TIP3    H251099   0.568   2.555  12.535 -0.7952 -0.2506  0.0261
 9870TIP3   OH251100   3.838   5.225   0.271  0.5025 -0.1984 -0.0322
 9870TIP3    H151101   3.784   5.239   0.349  2.3623 -1.4945  1.6023
 9870TIP3    H251102   3.887   5.307   0.262 -0.9422  0.6033 -0.9231
 9871TIP3   OH251103   5.566   5.980   1.535  0.5397 -0.3077 -0.2779
 9871TIP3    H151104   5.540   6.003   1.625  3.6496  2.3636  0.1358
 9871TIP3    H251105   5.638   5.918   1.547  2.0076  1.2321 -0.7622
 9872TIP3   OH251106   3.763   4.022   5.915 -0.0991 -0.5545  0.1102
 9872TIP3    H151107   3.793   4.104   5.953 -2.2940  0.3681  0.0298
 9872TIP3    H251108   3.673   4.013   5.946  0.2795 -3.3040  0.6635
 9873TIP3   OH251109   0.640   2.723  14.693 -0.5052  0.1987 -0.3185
 9873TIP3    H151110   0.624   2.675  14.612 -1.0482 -0.8128  0.3719
 9873TIP3    H251111   0.559   2.770  14.710  0.0717  1.5010 -1.0656
 9874TIP3   OH251112   2.862   0.907   0.675  0.2110  0.1200 -0.0179
 9874TIP3    H151113   2.788   0.848   0.661  0.9502 -0.9538  0.4168
 9874TIP3    H251114   2.937   0.848   0.691  0.8028  1.1685  1.3245
 9875TIP3   OH251115   3.710   3.396   1.607  0.3043 -0.1605 -0.1787
 9875TIP3    H151116   3.805   3.390   1.595  0.7805  0.8549  2.4640
 9875TIP3    H251117   3.697   3.385   1.702 -1.9147  2.6551 -0.0232
 9876TIP3   OH251118   0.634   5.007  13.189 -0.4128  0.4147 -0.2262
 9876TIP3    H151119   0.698   5.004  13.260 -1.1276 -1.0099  0.4010
 9876TIP3    H251120   0.676   4.963  13.116 -1.0680 -1.6296  0.5649
 9877TIP3   OH251121   0.604   2.321  12.809 -0.0212  0.3518 -0.3283
 9877TIP3    H151122   0.573   2.262  12.740  1.2261 -1.1282  0.2983
 9877TIP3    H251123   0.668   2.376  12.766  0.4238 -0.2654 -0.4774
 9878TIP3   OH251124   0.900   2.830   5.510  0.1406 -0.0802  0.2023
 9878TIP3    H151125   0.878   2.857   5.599  0.0714 -0.6148  0.3518
 9878TIP3    H251126   0.990   2.798   5.516  0.1615 -0.0451  0.0678
 9879TIP3   OH251127   0.292   2.007  10.888  0.4668 -0.1069 -0.1415
 9879TIP3    H151128   0.267   1.962  10.807  1.0720  0.3659 -0.5949
 9879TIP3    H251129   0.331   2.089  10.859  0.2132  0.3022  0.6498
 9880TIP3   OH251130   5.981   1.613  14.752  0.6186  0.1063 -0.0936
 9880TIP3    H151131   6.029   1.637  14.673  0.1804 -0.3644 -0.5098
 9880TIP3    H251132   6.047   1.574  14.809  1.2082  1.6576  0.3318
 9881TIP3   OH251133   1.818   1.204   0.701  0.2276  0.0143  0.1904
 9881TIP3    H151134   1.803   1.126   0.754  1.7785  0.0547  0.7564
 9881TIP3    H251135   1.886   1.252   0.749 -0.3470  1.4777 -0.3936
 9882TIP3   OH251136   3.347   4.091  12.481 -0.6250 -0.0975  0.3655
 9882TIP3    H151137   3.335   3.997  12.472 -1.1627 -0.0811  0.8513
 9882TIP3    H251138   3.386   4.103  12.568  2.7451 -0.1148 -0.9778
 9883TIP3   OH251139   6.158   6.776  15.972 -0.4586 -0.4109 -0.3567
 9883TIP3    H151140   6.143   6.684  15.997  3.5105 -1.5411 -1.4563
 9883TIP3    H251141   6.148   6.777  15.877  0.3397  0.0742 -0.4440
 9884TIP3   OH251142   5.841   5.007   0.609 -0.5987  0.5229  0.0952
 9884TIP3    H151143   5.789   4.927   0.612  0.7377 -0.4212 -1.0229
 9884TIP3    H251144   5.777   5.078   0.600 -1.6907 -0.7031 -2.9417
 9885TIP3   OH251145   0.644   2.826  15.897 -0.3477  0.5661 -0.4165
 9885TIP3    H151146   0.671   2.747  15.851  2.7539  0.5362  1.1690
 9885TIP3    H251147   0.623   2.796  15.986  0.7109  1.4501  0.1569
 9886TIP3   OH251148   3.033   5.124  11.970  0.3098  0.2092  0.0907
 9886TIP3    H151149   2.974   5.049  11.967  0.5736  0.0257 -1.8713
 9886TIP3    H251150   3.120   5.087  11.955  0.4573  0.8560 -0.7700
 9887TIP3   OH251151   3.537   3.933   5.623  0.6562 -0.6380  0.4326
 9887TIP3    H151152   3.508   3.926   5.714 -0.6710  0.1744  0.0867
 9887TIP3    H251153   3.597   4.008   5.623  0.1947 -0.2663  0.5279
 9888TIP3   OH251154   0.549   3.186  12.398  0.5613  0.0211 -0.5133
 9888TIP3    H151155   0.627   3.141  12.430  1.8452  0.9131 -2.2328
 9888TIP3    H251156   0.522   3.135  12.322 -0.4737 -0.1864 -0.0260
 9889TIP3   OH251157   4.550   4.036   6.125 -0.5488 -0.2626 -0.5385
 9889TIP3    H151158   4.508   3.961   6.082 -1.2895 -0.8706  1.1628
 9889TIP3    H251159   4.478   4.082   6.168  0.0194  0.9815 -0.8803
 9890TIP3   OH251160   1.740   5.593   1.336  0.0637  0.2359  0.3744
 9890TIP3    H151161   1.725   5.563   1.247  0.0069  0.0621  0.4429
 9890TIP3    H251162   1.660   5.572   1.383  0.9036 -1.7493  1.0306
 9891TIP3   OH251163   1.878   5.343   5.935 -0.1651  0.5101  1.0372
 9891TIP3    H151164   1.878   5.255   5.971 -0.5951 -0.1754 -0.5647
 9891TIP3    H251165   1.788   5.357   5.905  0.5618  0.2328 -1.5515
 9892TIP3   OH251166   0.025   6.393  13.909  0.1775  0.0425  0.0715
 9892TIP3    H151167  -0.029   6.394  13.830 -2.0404 -4.0214  1.2287
 9892TIP3    H251168   0.004   6.475  13.954 -3.1452 -0.1714 -0.8335
 9893TIP3   OH251169   5.582   4.014  13.591  0.0693 -0.3255 -0.3070
 9893TIP3    H151170   5.653   3.956  13.563  0.6927  1.6985 -3.3884
 9893TIP3    H251171   5.547   4.050  13.510 -1.5080  2.1696  1.3445
 9894TIP3   OH251172   2.883   6.215  16.237 -0.0990 -0.0634  0.0341
 9894TIP3    H151173   2.832   6.296  16.244  0.5922  0.3231  0.8441
 9894TIP3    H251174   2.881   6.193  16.144  1.0136  1.7629 -0.4711
 9895TIP3   OH251175   0.682   5.497   4.778 -0.5224  0.1915 -0.3384
 9895TIP3    H151176   0.660   5.504   4.685 -0.7557  0.7814 -0.2414
 9895TIP3    H251177   0.624   5.429   4.811 -0.6960  0.2387 -0.5442
 9896TIP3   OH251178   1.936   5.248   2.211  0.1006  0.1233  0.2070
 9896TIP3    H151179   1.997   5.293   2.271 -1.4288  2.1833  0.3056
 9896TIP3    H251180   1.993   5.205   2.147  1.6955  0.4016  1.3728
 9897TIP3   OH251181   3.595   6.472   4.099 -0.0886  0.2512  0.5169
 9897TIP3    H151182   3.662   6.505   4.159 -1.0797  0.2447  1.6766
 9897TIP3    H251183   3.616   6.511   4.015  1.8597 -0.4107  0.6491
 9898TIP3   OH251184   4.339   5.284  10.606 -0.3620  0.1396 -0.3457
 9898TIP3    H151185   4.338   5.189  10.597 -2.1633  0.2092 -1.4109
 9898TIP3    H251186   4.268   5.304  10.666  2.2838  0.6785  2.8714
 9899TIP3   OH251187   3.340   3.742   4.402 -0.0903 -0.3909 -0.4979
 9899TIP3    H151188   3.415   3.684   4.406 -0.8626 -1.5045 -1.4997
 9899TIP3    H251189   3.350   3.790   4.320 -0.9589 -1.2716 -1.1398
 9900TIP3   OH251190   2.573   0.426  14.037 -1.1328  0.2278 -0.7332
 9900TIP3    H151191   2.607   0.344  14.002 -2.0923 -1.2807  1.5797
 9900TIP3    H251192   2.589   0.491  13.968  1.8490 -1.3612 -1.7019
 9901TIP3   OH251193   5.601   2.970   0.228 -0.2919  0.0431  0.4918
 9901TIP3    H151194   5.573   2.953   0.318 -1.2553  2.1655  0.6510
 9901TIP3    H251195   5.522   2.953   0.176 -0.1534  0.2294  0.2213
 9902TIP3   OH251196   2.385   3.064  13.286  0.0700  0.1758 -0.1950
 9902TIP3    H151197   2.462   3.089  13.236  0.7691 -0.8998  0.2952
 9902TIP3    H251198   2.394   3.110  13.370  2.2164 -2.7782  1.3580
 9903TIP3   OH251199   3.660   1.517   4.053 -0.1187 -0.0923 -0.0337
 9903TIP3    H151200   3.582   1.571   4.042 -0.6057 -0.2334  2.2464
 9903TIP3    H251201   3.700   1.549   4.134  0.3414 -2.2141  0.6422
 9904TIP3   OH251202   3.218   2.260  14.710  0.1634 -0.4622 -0.0298
 9904TIP3    H151203   3.185   2.176  14.678  0.6170 -0.6881  0.0911
 9904TIP3    H251204   3.209   2.319  14.635  0.2096 -0.7179 -0.2379
 9905TIP3   OH251205   4.343   2.773  16.948  0.0929  0.5575 -0.1592
 9905TIP3    H151206   4.411   2.835  16.975  1.2337  0.2311 -2.1275
 9905TIP3    H251207   4.262   2.823  16.951  0.4948  1.1685  1.5015
 9906TIP3   OH251208   0.674   6.700   7.052 -0.3970  0.1186 -0.2554
 9906TIP3    H151209   0.588   6.709   7.011 -0.4184 -0.4845 -0.3372
 9906TIP3    H251210   0.696   6.608   7.043 -0.3388 -0.0102  0.9515
 9907TIP3   OH251211   0.443   0.526   1.975 -0.0030  0.6132  0.2612
 9907TIP3    H151212   0.427   0.553   2.065  2.3392  1.5175  0.4636
 9907TIP3    H251213   0.498   0.595   1.938  1.9147 -1.3451 -0.7921
 9908TIP3   OH251214   2.712   6.147  14.715 -0.3365 -0.0526 -0.4267
 9908TIP3    H151215   2.733   6.058  14.689 -0.4459 -0.5817  1.1579
 9908TIP3    H251216   2.639   6.137  14.777  0.5531  0.9945  0.8493
 9909TIP3   OH251217   2.114   2.620   1.164 -0.6308 -0.0839 -0.2247
 9909TIP3    H151218   2.055   2.555   1.126  0.7888 -0.9633 -1.0330
 9909TIP3    H251219   2.113   2.693   1.103 -2.3982  0.8123  0.7949
 9910TIP3   OH251220   5.687   4.957   4.922 -0.1440  0.2862 -0.1996
 9910TIP3    H151221   5.719   4.942   4.833 -0.1737  0.5797 -0.2638
 9910TIP3    H251222   5.753   4.917   4.979 -0.6702 -0.8678 -0.3716
 9911TIP3   OH251223   1.715   2.203  17.289 -0.2041 -0.1844 -0.0023
 9911TIP3    H151224   1.621   2.183  17.297 -1.1285  3.1930 -0.5618
 9911TIP3    H251225   1.739   2.235  17.376  0.1927 -0.1877 -0.1112
 9912TIP3   OH251226   3.566   0.862  16.323 -0.3480  0.2970 -0.6336
 9912TIP3    H151227   3.619   0.859  16.403 -1.0230 -0.5894 -0.2102
 9912TIP3    H251228   3.482   0.898  16.351 -1.2183 -1.6671 -0.5435
 9913TIP3   OH251229   1.347   3.728  15.303  0.6075 -0.3648 -0.4258
 9913TIP3    H151230   1.380   3.731  15.393  0.5317 -1.2978 -0.3615
 9913TIP3    H251231   1.289   3.652  15.301 -0.9644  0.7953 -0.7494
 9914TIP3   OH251232   2.878   0.874  11.824  0.0867 -0.1399  0.5216
 9914TIP3    H151233   2.860   0.799  11.881 -0.2918  1.1174  2.1542
 9914TIP3    H251234   2.923   0.837  11.748 -2.8828 -2.4463 -0.2756
 9915TIP3   OH251235   3.252   0.940   4.184 -0.1002 -0.1576 -0.4221
 9915TIP3    H151236   3.253   0.926   4.279  0.3491 -0.4079 -0.4624
 9915TIP3    H251237   3.220   1.030   4.173  0.5595  0.1366 -0.0000
 9916TIP3   OH251238   2.701   2.096  11.834 -0.0754 -0.2403  0.1165
 9916TIP3    H151239   2.735   2.008  11.847 -0.6379 -0.4950 -0.0755
 9916TIP3    H251240   2.720   2.115  11.742 -1.0699 -0.6721 -0.1947
 9917TIP3   OH251241   0.940   3.367  12.721 -0.2801 -0.4709  0.2019
 9917TIP3    H151242   1.006   3.397  12.783  0.6068  1.0865 -1.4120
 9917TIP3    H251243   0.865   3.425  12.734 -0.7857 -1.2775  0.9965
 9918TIP3   OH251244   3.005   2.578   3.183 -0.3428 -0.4349 -0.0657
 9918TIP3    H151245   2.969   2.606   3.099 -0.5710  0.8118  0.4262
 9918TIP3    H251246   3.007   2.482   3.177 -0.2377 -0.3707 -1.5285
 9919TIP3   OH251247   2.696   6.475   3.794 -0.3352  0.6188  0.7401
 9919TIP3    H151248   2.709   6.510   3.882  0.7431 -1.5940  1.5448
 9919TIP3    H251249   2.779   6.493   3.749 -0.6138  1.0753  0.3911
 9920TIP3   OH251250   0.423   4.520   0.676 -0.2461 -0.1431 -0.4155
 9920TIP3    H151251   0.347   4.507   0.733 -0.7463 -1.1192 -1.2653
 9920TIP3    H251252   0.398   4.591   0.618 -0.7723 -0.8475 -1.0784
 9921TIP3   OH251253   6.219   6.669   3.039 -0.6415 -0.0649  0.0492
 9921TIP3    H151254   6.135   6.673   3.085 -0.5898  1.3926  0.0596
 9921TIP3    H251255   6.195   6.674   2.946 -0.5781  0.0149  0.0376
 9922TIP3   OH251256   2.266   3.917  11.285  0.0107 -0.3038  0.0463
 9922TIP3    H151257   2.292   3.852  11.219 -0.0378 -0.6182  0.3322
 9922TIP3    H251258   2.292   3.878  11.369  1.9377  0.9808  0.1021
 9923TIP3   OH251259   0.804   0.928  11.037 -0.3423 -0.1366 -0.2803
 9923TIP3    H151260   0.886   0.937  11.084  0.1550 -3.3246 -0.3193
 9923TIP3    H251261   0.829   0.929  10.944 -0.4950  0.0295 -0.3202
 9924TIP3   OH251262   3.111   1.598  14.892 -0.9512  0.7919 -0.4906
 9924TIP3    H151263   3.127   1.675  14.837 -1.9717  0.5028 -1.2228
 9924TIP3    H251264   3.022   1.611  14.926 -0.8417  0.2986 -0.0080
 9925TIP3   OH251265   2.587   2.973  12.292 -0.5718 -0.5689 -0.6727
 9925TIP3    H151266   2.664   2.915  12.284  0.0298  0.1218 -0.0632
 9925TIP3    H251267   2.606   3.045  12.231 -0.7062 -0.3626 -0.4682
 9926TIP3   OH251268   2.878   1.048  16.164  0.1241 -1.0295 -0.1766
 9926TIP3    H151269   2.909   1.118  16.107 -0.0036 -0.1089  0.8374
 9926TIP3    H251270   2.790   1.029  16.133  0.5984 -1.5927 -1.2144
 9927TIP3   OH251271   5.098   4.465   4.527  0.2130  0.0599  0.2889
 9927TIP3    H151272   5.071   4.390   4.580  0.6301 -0.0069  0.4110
 9927TIP3    H251273   5.063   4.446   4.439  2.9260 -1.8247 -0.5021
 9928TIP3   OH251274   3.609   1.686   2.831  0.0881  0.0972  0.3087
 9928TIP3    H151275   3.640   1.738   2.904 -0.6210  0.4930  0.3376
 9928TIP3    H251276   3.681   1.625   2.812  1.2391  1.5485 -0.1888
 9929TIP3   OH251277   2.399   1.076   1.239  0.1720  0.2894  0.0133
 9929TIP3    H151278   2.450   1.155   1.223 -0.4377  0.6582 -0.1888
 9929TIP3    H251279   2.316   1.092   1.193  0.3278 -0.7857 -0.6693
 9930TIP3   OH251280   0.195   5.198  12.656 -0.2643  0.1860  0.6614
 9930TIP3    H151281   0.273   5.184  12.602  0.6489  1.5849  1.5171
 9930TIP3    H251282   0.125   5.218  12.594  0.1545 -0.6566 -0.1014
 9931TIP3   OH251283   0.936   0.799  15.765  0.0193  0.3458 -0.0741
 9931TIP3    H151284   1.031   0.784  15.757 -0.0668  0.0232 -0.5005
 9931TIP3    H251285   0.914   0.765  15.851  0.2915  0.4186  0.0272
 9932TIP3   OH251286   1.788   4.543  15.400 -0.3353  0.3782 -0.0257
 9932TIP3    H151287   1.794   4.501  15.315  0.6944  0.7780 -0.1573
 9932TIP3    H251288   1.753   4.630  15.382 -0.7553  0.2248  0.0413
 9933TIP3   OH251289   0.249   2.745  12.833 -0.9881  0.5982  0.7807
 9933TIP3    H151290   0.306   2.735  12.909 -0.1313  1.5067  0.2926
 9933TIP3    H251291   0.161   2.733  12.867 -0.4941 -1.6319  1.4213
 9934TIP3   OH251292   0.194   4.298  10.491 -0.5178  1.0423  0.3505
 9934TIP3    H151293   0.283   4.328  10.473 -0.2158  1.4902  2.3563
 9934TIP3    H251294   0.196   4.269  10.582 -1.9022 -1.0518 -0.2160
 9935TIP3   OH251295   2.456   4.643  12.593 -0.2749 -0.1521 -0.3401
 9935TIP3    H151296   2.414   4.719  12.554 -1.5120 -0.1192  0.9792
 9935TIP3    H251297   2.407   4.568  12.559 -1.9732 -0.0810  1.7237
 9936TIP3   OH251298   0.761   6.760  12.065 -0.3699  0.0367  0.0351
 9936TIP3    H151299   0.785   6.670  12.085 -2.6953 -0.4082  1.1724
 9936TIP3    H251300   0.733   6.797  12.149  0.7588  1.9417 -0.3552
 9937TIP3   OH251301   5.922   0.469  11.192  0.6115  0.8894  0.1205
 9937TIP3    H151302   5.952   0.560  11.198 -0.0674  1.1159  0.0995
 9937TIP3    H251303   5.836   0.475  11.153  0.3613  0.2710  0.5674
 9938TIP3   OH251304   1.454   0.128  12.087 -0.4345 -0.0829 -1.0317
 9938TIP3    H151305   1.387   0.159  12.148  1.1940  0.4914  0.5553
 9938TIP3    H251306   1.466   0.035  12.109 -0.0337  0.0584 -0.6426
 9939TIP3   OH251307   5.925   6.286  17.138  0.4067  0.7156  0.2230
 9939TIP3    H151308   6.012   6.325  17.128 -0.2991  2.5841  0.8516
 9939TIP3    H251309   5.940   6.207  17.190  2.0282 -0.5557 -1.9750
 9940TIP3   OH251310   0.401   2.600  16.405  0.4676 -0.4514  0.0617
 9940TIP3    H151311   0.396   2.541  16.480  1.8626 -0.6064  0.0586
 9940TIP3    H251312   0.333   2.569  16.346  0.0557 -0.9852  0.8009
 9941TIP3   OH251313   0.390   4.629  13.048 -0.4171  0.0172  0.8641
 9941TIP3    H151314   0.301   4.615  13.018  0.1233 -1.0901 -0.2920
 9941TIP3    H251315   0.383   4.700  13.113 -2.2743 -0.8399  1.6491
 9942TIP3   OH251316   1.474   1.088  16.590 -0.5037 -0.2889 -0.0699
 9942TIP3    H151317   1.566   1.109  16.607 -0.6927  0.6362 -0.1783
 9942TIP3    H251318   1.430   1.172  16.586 -1.1224 -0.6380 -1.3770
 9943TIP3   OH251319   4.651   4.944  15.844  0.1354 -0.2069 -0.2323
 9943TIP3    H151320   4.592   5.018  15.829  0.8639  0.1696 -1.3127
 9943TIP3    H251321   4.594   4.876  15.881 -0.1815  1.5002  2.6992
 9944TIP3   OH251322   1.233   5.311   4.602  0.4951 -0.3051  0.1480
 9944TIP3    H151323   1.211   5.402   4.583  1.7909  0.0753  0.3434
 9944TIP3    H251324   1.199   5.262   4.527  0.4502  0.4430 -0.3278
 9945TIP3   OH251325   2.154   2.793  13.141 -0.0330  0.1265 -0.3595
 9945TIP3    H151326   2.189   2.813  13.228  0.6903  1.6441 -0.9707
 9945TIP3    H251327   2.059   2.792  13.153  0.0102  1.3571  0.2606
 9946TIP3   OH251328   5.251   1.482  11.541  0.2728  0.5040 -0.1069
 9946TIP3    H151329   5.171   1.429  11.542  0.9232 -0.5453 -0.8255
 9946TIP3    H251330   5.258   1.517  11.629  0.3840 -1.5418  0.7642
 9947TIP3   OH251331   1.887   0.145  15.187  0.7222 -0.1698 -0.7699
 9947TIP3    H151332   1.841   0.093  15.121  0.6868  0.0571 -0.9280
 9947TIP3    H251333   1.957   0.188  15.138 -0.2369  1.2118 -0.9809
 9948TIP3   OH251334   3.130   1.255   3.371 -0.0856 -0.3391  0.2983
 9948TIP3    H151335   3.180   1.174   3.382  0.4596  0.0024  0.3755
 9948TIP3    H251336   3.098   1.250   3.281  0.1679 -0.5187  0.2146
 9949TIP3   OH251337   4.366   3.417   4.957  0.4435  0.0838 -0.1073
 9949TIP3    H151338   4.366   3.372   5.042 -1.8078 -2.6269 -1.3847
 9949TIP3    H251339   4.441   3.381   4.911 -0.2878 -1.0492 -0.4498
 9950TIP3   OH251340   5.104   3.157  13.037 -0.5815 -0.3349  0.0710
 9950TIP3    H151341   5.172   3.138  13.103  0.5718 -0.1983 -1.0302
 9950TIP3    H251342   5.108   3.083  12.977 -2.2965 -0.9329  0.6525
 9951TIP3   OH251343   1.929   4.237  15.329  0.4744 -0.3022 -0.1710
 9951TIP3    H151344   1.872   4.203  15.399  0.4902 -0.5093 -0.2559
 9951TIP3    H251345   1.868   4.270  15.263  0.4348 -0.9369 -0.4666
 9952TIP3   OH251346   5.855   2.480  12.419  0.3409  0.2858 -0.0358
 9952TIP3    H151347   5.869   2.390  12.389  0.0444  0.3453 -0.3544
 9952TIP3    H251348   5.905   2.534  12.358  0.7472  0.3175  0.3250
 9953TIP3   OH251349   6.006   0.925   0.125  0.3199 -0.2358  0.1833
 9953TIP3    H151350   5.975   0.897   0.040 -1.1146 -0.3747  0.7172
 9953TIP3    H251351   5.994   1.020   0.125  0.3955 -0.2255  0.2100
 9954TIP3   OH251352   3.738   2.988  12.131 -0.0640  0.4240 -0.6221
 9954TIP3    H151353   3.689   3.009  12.052 -0.2118  1.1882 -0.3339
 9954TIP3    H251354   3.699   2.906  12.162 -1.7841  1.4709  0.0842
 9955TIP3   OH251355   1.503   4.826  10.813 -0.3179  0.3094  0.8566
 9955TIP3    H151356   1.538   4.915  10.805  3.2264 -1.0875 -2.1456
 9955TIP3    H251357   1.417   4.831  10.771  0.2194  2.1668 -0.1674
 9956TIP3   OH251358   2.700   5.780   4.103  0.1638 -0.0928  0.4479
 9956TIP3    H151359   2.611   5.802   4.130  0.5708  0.4843  1.3978
 9956TIP3    H251360   2.700   5.791   4.008 -0.0266  2.8940  0.6819
 9957TIP3   OH251361   5.810   4.939   2.068 -0.5280 -0.2951  0.1902
 9957TIP3    H151362   5.811   4.886   1.988  2.1243  0.2754 -0.2418
 9957TIP3    H251363   5.722   4.976   2.071 -0.6560 -0.1807 -2.5801
 9958TIP3   OH251364   0.792   6.790   1.630  0.5415 -0.1828 -0.1105
 9958TIP3    H151365   0.863   6.843   1.594 -0.9508  0.1215 -2.9334
 9958TIP3    H251366   0.800   6.705   1.587 -0.2153 -0.4719  0.2914
 9959TIP3   OH251367   0.555   6.159   6.160  0.4655 -0.2136 -0.7218
 9959TIP3    H151368   0.640   6.189   6.128  1.0275 -0.4509  0.4741
 9959TIP3    H251369   0.551   6.192   6.250 -0.8141 -0.0064 -0.8391
 9960TIP3   OH251370   6.396   3.110   5.792 -0.3711 -0.3219  0.1689
 9960TIP3    H151371   6.312   3.135   5.830 -0.8863 -2.0841  0.2919
 9960TIP3    H251372   6.434   3.049   5.855  0.5191 -0.3555 -0.3834
 9961TIP3   OH251373   0.625   3.115   2.821 -0.2873  0.7251  0.2089
 9961TIP3    H151374   0.543   3.085   2.781 -0.2166  0.3949  0.3042
 9961TIP3    H251375   0.655   3.186   2.765 -0.9088  1.1960  0.4704
 9962TIP3   OH251376   0.799   0.635  12.554  0.0587 -0.7028  0.1781
 9962TIP3    H151377   0.845   0.586  12.486 -0.2245  1.4546 -1.6584
 9962TIP3    H251378   0.711   0.598  12.554  0.6139 -2.1473  0.9436
 9963TIP3   OH251379   3.620   0.389  14.790 -0.1821 -0.3029  0.3888
 9963TIP3    H151380   3.692   0.451  14.793 -0.4913  0.1459 -0.7992
 9963TIP3    H251381   3.645   0.326  14.722 -0.1447 -1.1446  1.1578
 9964TIP3   OH251382   4.705   0.391  11.084  0.3906 -0.0339  0.0114
 9964TIP3    H151383   4.782   0.396  11.141 -1.0597 -0.6720  2.1518
 9964TIP3    H251384   4.740   0.402  10.995  2.9378 -0.3435  0.8946
 9965TIP3   OH251385   5.075   2.573   2.068 -0.1760  0.3007  0.2385
 9965TIP3    H151386   5.163   2.575   2.105 -0.2427  1.3754  0.3813
 9965TIP3    H251387   5.059   2.481   2.049  0.2417 -0.1553  1.9351
 9966TIP3   OH251388   2.275   4.209   4.142 -0.5660  0.4260  0.6416
 9966TIP3    H151389   2.286   4.303   4.131 -2.6143  0.8725  1.9881
 9966TIP3    H251390   2.274   4.195   4.237  0.5194 -1.1059  0.4833
 9967TIP3   OH251391   2.300   4.783   3.071 -0.1426 -0.2585  0.7095
 9967TIP3    H151392   2.291   4.813   2.980 -0.0467  1.3350  1.1994
 9967TIP3    H251393   2.291   4.688   3.066 -0.1779 -0.1901 -0.9637
 9968TIP3   OH251394   0.434   2.994  10.316 -0.0521  0.0720  0.1117
 9968TIP3    H151395   0.469   3.060  10.256 -1.1345  1.2324  0.6981
 9968TIP3    H251396   0.506   2.933  10.329  1.1721  1.4030 -0.0957
 9969TIP3   OH251397   3.077   0.038   0.781  0.3541  0.0816 -0.1811
 9969TIP3    H151398   3.066  -0.011   0.862  0.2401 -0.2885 -0.4131
 9969TIP3    H251399   3.054  -0.025   0.712  0.1320  0.4880 -0.4834
 9970TIP3   OH251400   5.572   5.732  12.472  0.6109 -0.3286  0.6840
 9970TIP3    H151401   5.502   5.761  12.413  0.5905 -2.1241 -0.2379
 9970TIP3    H251402   5.633   5.685  12.415 -0.3424 -3.7765  2.2479
 9971TIP3   OH251403   0.899   4.516  11.331  0.6039 -0.0407  0.0463
 9971TIP3    H151404   0.812   4.476  11.332  0.4544  0.2793 -0.1780
 9971TIP3    H251405   0.956   4.449  11.292 -0.1282  0.9433 -2.9256
 9972TIP3   OH251406   1.605   5.034   1.002  0.0107 -0.3290  0.1268
 9972TIP3    H151407   1.609   4.948   0.961  2.1370  0.2949 -1.1395
 9972TIP3    H251408   1.587   5.095   0.930  0.4590  0.4871  0.6829
 9973TIP3   OH251409   2.303   5.653   0.025  0.1553 -0.7913  0.6124
 9973TIP3    H151410   2.295   5.727   0.085  1.0636 -0.8233  0.7853
 9973TIP3    H251411   2.394   5.653  -0.002 -0.4417 -0.1260 -1.6262
 9974TIP3   OH251412   3.066   6.024  15.388  0.5449  0.0215  0.0944
 9974TIP3    H151413   3.050   5.947  15.334  3.7528  0.7397 -2.2093
 9974TIP3    H251414   3.127   5.993  15.456 -0.2636  0.0018  0.8255
 9975TIP3   OH251415   1.913   3.572  15.061 -0.2574  0.2913  0.5505
 9975TIP3    H151416   1.925   3.487  15.017  0.0569  0.6658 -0.1012
 9975TIP3    H251417   1.829   3.604  15.028  0.1222  0.7130 -0.0296
 9976TIP3   OH251418   6.405   2.788   3.051  0.1574  0.2901 -0.1644
 9976TIP3    H151419   6.378   2.869   3.008 -2.2557  0.0522  0.7270
 9976TIP3    H251420   6.440   2.817   3.136 -0.1182  0.4520 -0.1029
 9977TIP3   OH251421   6.545   3.124  15.413  0.1897  0.3573 -0.1930
 9977TIP3    H151422   6.496   3.068  15.353 -0.4665  2.0340 -1.2786
 9977TIP3    H251423   6.478   3.170  15.463  0.6574 -2.0111  2.9859
 9978TIP3   OH251424   6.022   4.702  15.558 -1.0877 -0.1489 -0.0896
 9978TIP3    H151425   5.987   4.789  15.580  0.1045 -0.0866  1.7899
 9978TIP3    H251426   5.960   4.640  15.597 -1.6779 -0.1575 -1.0109
 9979TIP3   OH251427   0.928   3.129   3.534  0.0656  0.6162 -0.0061
 9979TIP3    H151428   0.965   3.205   3.579  2.1108 -0.3564  0.0832
 9979TIP3    H251429   0.996   3.102   3.472 -0.8337 -0.8004 -0.4298
 9980TIP3   OH251430   5.910   5.831  16.811  0.1322 -0.3020  0.6627
 9980TIP3    H151431   5.957   5.771  16.868 -2.6380 -0.9330  2.4279
 9980TIP3    H251432   5.934   5.918  16.843  0.5063 -0.5875  1.1698
 9981TIP3   OH251433   1.759   5.140  16.247 -0.2730  0.5755  0.0782
 9981TIP3    H151434   1.731   5.232  16.248 -1.8558  0.1316  0.1246
 9981TIP3    H251435   1.802   5.130  16.162 -1.0528  1.1094 -0.4008
 9982TIP3   OH251436   4.640   3.570   2.310 -0.6949 -0.1733  0.4429
 9982TIP3    H151437   4.642   3.566   2.406 -0.8641 -0.1468  0.4474
 9982TIP3    H251438   4.731   3.584   2.285 -0.6808  0.0314  0.6084
 9983TIP3   OH251439   3.155   6.736  12.990  0.3085  0.3540  0.7893
 9983TIP3    H151440   3.192   6.731  13.078 -0.2417  0.0904  1.0104
 9983TIP3    H251441   3.060   6.740  13.004  0.2594  1.3596  0.2449
 9984TIP3   OH251442   0.500   1.297   1.565 -0.1435 -0.3268  0.0263
 9984TIP3    H151443   0.411   1.266   1.547 -0.7354  1.8963 -1.1668
 9984TIP3    H251444   0.505   1.382   1.521  1.7539  0.7487  2.1608
 9985TIP3   OH251445   2.829   0.432  12.970 -0.1987  0.2260 -0.2343
 9985TIP3    H151446   2.835   0.526  12.991  0.7228  0.0432  0.4020
 9985TIP3    H251447   2.859   0.388  13.050 -3.2303 -0.7308  0.5153
 9986TIP3   OH251448   0.312   1.455   5.323 -0.2916  0.4086  0.2961
 9986TIP3    H151449   0.322   1.371   5.279 -0.4690  1.4046 -1.7791
 9986TIP3    H251450   0.361   1.446   5.405  2.1277 -0.7759 -1.1930
 9987TIP3   OH251451   5.411   6.431   5.143 -0.5983  0.2951  0.2093
 9987TIP3    H151452   5.483   6.432   5.080 -1.5395 -0.2296 -0.9023
 9987TIP3    H251453   5.437   6.366   5.208 -0.3472 -0.3699 -0.5375
 9988TIP3   OH251454   5.064   4.779   1.401 -0.3592 -0.3722 -0.0011
 9988TIP3    H151455   4.972   4.750   1.398 -0.4294 -0.2823  0.9161
 9988TIP3    H251456   5.110   4.708   1.446  0.1652 -0.7401 -1.0809
 9989TIP3   OH251457   1.574   5.840  16.369  0.2546 -0.4981 -0.0388
 9989TIP3    H151458   1.638   5.778  16.402  1.1927  0.0137 -0.8289
 9989TIP3    H251459   1.624   5.921  16.354 -1.1551  0.9022  2.1869
 9990TIP3   OH251460   4.466   3.914   0.551 -0.1759  0.9155 -0.0328
 9990TIP3    H151461   4.552   3.916   0.509 -0.1239  0.4194  0.0446
 9990TIP3    H251462   4.406   3.949   0.485 -0.0539  0.3839 -0.4272
 9991TIP3   OH251463   5.641   1.006  12.608 -0.2442  0.0383  0.0985
 9991TIP3    H151464   5.653   0.972  12.519 -0.7718 -0.0802  0.0675
 9991TIP3    H251465   5.729   1.025  12.639 -0.0654  0.2012 -0.4989
 9992TIP3   OH251466   5.165   0.389  11.380 -0.2723  0.1770  0.3347
 9992TIP3    H151467   5.166   0.319  11.315  0.1824 -0.4862  1.0482
 9992TIP3    H251468   5.255   0.421  11.383 -0.3943  0.5334  0.2932
 9993TIP3   OH251469   6.048   3.863  12.325  0.1915  0.0355  0.4930
 9993TIP3    H151470   6.126   3.872  12.270 -0.9266 -0.6435 -1.3185
 9993TIP3    H251471   5.992   3.937  12.299  0.4649  0.9237  2.2719
 9994TIP3   OH251472   0.470   5.981   4.733  0.2301 -0.2978 -0.3473
 9994TIP3    H151473   0.514   5.899   4.711 -0.6891 -0.2857 -2.4738
 9994TIP3    H251474   0.409   5.996   4.661 -2.0058  0.5863  1.5834
 9995TIP3   OH251475   5.567   0.447   5.562 -0.2130 -0.3245 -0.5963
 9995TIP3    H151476   5.499   0.383   5.584  0.4439 -0.9906 -0.4508
 9995TIP3    H251477   5.600   0.477   5.647  0.1244 -0.5059 -0.6579
 9996TIP3   OH251478   3.437   0.014   4.469  0.3510  0.2391 -0.1602
 9996TIP3    H151479   3.425   0.108   4.467  0.8477  0.2984 -0.4923
 9996TIP3    H251480   3.350  -0.022   4.451  0.2684  0.6386 -0.5631
 9997TIP3   OH251481   4.079   5.564   3.229 -0.2926  0.2363 -0.3519
 9997TIP3    H151482   4.101   5.504   3.157 -0.6296  0.8322 -0.9569
 9997TIP3    H251483   4.008   5.618   3.195 -2.1675 -1.0490  1.2583
 9998TIP3   OH251484   0.193   2.097   2.795 -0.5351 -0.0025 -0.0976
 9998TIP3    H151485   0.211   2.037   2.868  2.3668  1.2547  0.3590
 9998TIP3    H251486   0.104   2.128   2.812 -0.7853 -1.4675  1.6313
 9999TIP3   OH251487   2.131   6.541   3.979  0.2450 -0.0788  0.5438
 9999TIP3    H151488   2.201   6.605   3.989 -0.4465  0.6170  1.1357
 9999TIP3    H251489   2.113   6.539   3.885  0.3252  0.5478  0.5126
10000TIP3   OH251490   5.158   2.817  16.003 -0.5091  0.0007 -0.2647
10000TIP3    H151491   5.191   2.877  16.069 -2.1367  0.2598  0.3607
10000TIP3    H251492   5.180   2.858  15.920  0.0280  0.5304  0.1306
10001TIP3   OH251493   2.444   5.469  10.654  0.4209  0.0125  0.0340
10001TIP3    H151494   2.437   5.398  10.591  0.6014 -0.2345  0.2847
10001TIP3    H251495   2.483   5.428  10.732 -0.3270  0.1796  0.5049
10002TIP3   OH251496   3.336   3.974   2.508 -0.2693 -0.1522  0.3113
10002TIP3    H151497   3.240   3.980   2.506 -0.2937 -0.7704 -0.6989
10002TIP3    H251498   3.359   3.923   2.431  0.9025  0.2368  0.3831
10003TIP3   OH251499   0.997   6.632  14.605  0.4740  0.6455  0.1952
10003TIP3    H151500   1.000   6.602  14.514 -0.3856 -0.8567  0.6152
10003TIP3    H251501   0.933   6.702  14.605 -0.3088 -0.0520 -0.1881
10004TIP3   OH251502   3.969   4.142   3.860 -0.5117 -0.5088  0.1944
10004TIP3    H151503   3.986   4.233   3.835  0.8218 -0.7450  0.1777
10004TIP3    H251504   3.882   4.123   3.825 -0.1001  0.2330 -1.3029
10005TIP3   OH251505   1.513   4.485  16.006  0.3288  0.0975 -0.8508
10005TIP3    H151506   1.521   4.481  16.101 -0.2392  3.8810 -0.5029
10005TIP3    H251507   1.454   4.413  15.984  1.4059 -1.6044  1.4436
10006TIP3   OH251508   5.880   0.314   2.337  0.2015  0.2114  0.1939
10006TIP3    H151509   5.827   0.241   2.306  1.3550  0.1866 -1.9859
10006TIP3    H251510   5.952   0.273   2.385 -0.1389  0.0490  0.5693
10007TIP3   OH251511   2.739   2.487   4.560  0.1668 -0.4727 -0.6808
10007TIP3    H151512   2.776   2.403   4.532  1.6046 -0.5384  1.1830
10007TIP3    H251513   2.716   2.473   4.652 -0.5774  0.8587 -0.6438
10008TIP3   OH251514   0.723   0.097  12.310  0.7519 -0.4744 -0.5103
10008TIP3    H151515   0.795   0.116  12.370 -0.5519  1.2208  0.6221
10008TIP3    H251516   0.714   0.176  12.257  0.2480 -0.9741 -1.1961
10009TIP3   OH251517   4.426   6.691   3.537  0.1130 -0.8246 -0.3062
10009TIP3    H151518   4.380   6.703   3.620 -0.3625 -0.0811 -0.6753
10009TIP3    H251519   4.504   6.640   3.561 -0.1430 -0.8298  0.5561
10010TIP3   OH251520   1.426   6.317  11.161 -0.4470  0.3547 -0.2820
10010TIP3    H151521   1.334   6.345  11.155 -0.3437  0.8153  0.2791
10010TIP3    H251522   1.425   6.226  11.132 -0.8788  0.7416 -1.5913
10011TIP3   OH251523   4.079   5.518  16.789 -0.6965 -0.1427  0.0780
10011TIP3    H151524   4.140   5.452  16.755  0.4033  0.9929 -0.2496
10011TIP3    H251525   4.121   5.550  16.869 -0.3795  1.2924 -0.6261
10012TIP3   OH251526   1.346   2.497  10.587  0.7102 -0.7213 -0.7125
10012TIP3    H151527   1.275   2.439  10.559  1.3124 -0.9441 -1.8240
10012TIP3    H251528   1.347   2.566  10.521  0.3253  0.3069  0.3266
10013TIP3   OH251529   4.914   3.770  12.547  0.1049 -0.7031 -0.2168
10013TIP3    H151530   4.920   3.821  12.466 -0.0644 -0.9917 -0.4130
10013TIP3    H251531   4.939   3.832  12.616  1.3028 -0.7485 -0.5922
10014TIP3   OH251532   6.602   5.703  14.273  0.0283 -0.4896  0.2287
10014TIP3    H151533   6.657   5.715  14.195  1.3543 -0.7263  1.0932
10014TIP3    H251534   6.596   5.608  14.283 -1.4677 -0.4905 -0.4653
10015TIP3   OH251535   1.709   4.514   3.702 -0.1363  0.1918  0.6044
10015TIP3    H151536   1.742   4.456   3.633 -0.7356  1.2293 -0.6043
10015TIP3    H251537   1.677   4.455   3.770  1.2549 -0.8604  0.3932
10016TIP3   OH251538   6.565   5.805  12.558 -0.0708 -0.8459 -0.7689
10016TIP3    H151539   6.617   5.839  12.630  0.0892 -0.3210 -1.1356
10016TIP3    H251540   6.502   5.746  12.601 -2.5886  2.3280  0.3400
10017TIP3   OH251541   5.528   3.979  11.374 -0.3600  0.5965 -0.8054
10017TIP3    H151542   5.594   4.000  11.308 -0.3975 -0.5525 -1.2496
10017TIP3    H251543   5.522   3.883  11.371  0.2447  0.4463  1.4796
10018TIP3   OH251544   5.661   1.794   5.435 -0.6475  0.0895 -0.2958
10018TIP3    H151545   5.592   1.825   5.494 -0.1195  1.3516 -0.3116
10018TIP3    H251546   5.683   1.707   5.469 -2.0253 -0.2184 -0.1141
10019TIP3   OH251547   2.124   2.860  15.186  0.0129  0.3323  0.0105
10019TIP3    H151548   2.081   2.845  15.270 -0.5404 -0.9223 -0.4666
10019TIP3    H251549   2.217   2.845  15.204 -0.1521 -0.4073  0.3118
10020TIP3   OH251550   0.078   0.659   6.949  0.2841  0.5308  0.2669
10020TIP3    H151551   0.101   0.639   7.039  1.7254  0.9313  0.0213
10020TIP3    H251552   0.163   0.668   6.904 -0.3485 -1.8514 -1.6488
10021TIP3   OH251553   0.009   2.911   4.975 -0.3677  0.2931  0.2629
10021TIP3    H151554  -0.029   2.954   4.898 -0.1319  0.2214  0.1049
10021TIP3    H251555   0.101   2.897   4.952 -0.5248 -0.6558  0.1451
10022TIP3   OH251556   4.086   1.037   0.352  0.0163 -0.3680 -0.5565
10022TIP3    H151557   4.080   0.956   0.401 -1.3244  0.2065  0.2914
10022TIP3    H251558   3.999   1.076   0.359  0.7603  1.3968 -0.4721
10023TIP3   OH251559   3.815   4.339   5.373 -0.2296  0.1325  0.5611
10023TIP3    H151560   3.818   4.430   5.342 -0.8905  0.0881  0.3454
10023TIP3    H251561   3.725   4.327   5.403 -0.3060 -0.6242  0.0552
10024TIP3   OH251562   1.405   2.677  15.863 -0.0916 -0.9423 -0.2456
10024TIP3    H151563   1.339   2.623  15.908 -1.2059  0.1278 -0.5426
10024TIP3    H251564   1.358   2.713  15.788  0.1710  1.6329  0.7535
10025TIP3   OH251565   6.363   2.255  12.611 -0.0328 -0.9525 -0.4918
10025TIP3    H151566   6.278   2.214  12.629 -0.7908  0.3745 -0.9070
10025TIP3    H251567   6.352   2.346  12.638  1.5387 -0.9334  0.2022
10026TIP3   OH251568   6.159   3.852  15.704 -0.2266 -0.2285  0.1869
10026TIP3    H151569   6.143   3.797  15.627  1.3917 -0.0241 -0.3421
10026TIP3    H251570   6.242   3.820  15.739  0.8654  1.9788 -0.2587
10027TIP3   OH251571   3.820   0.179  12.273  0.2041  0.0460 -0.3591
10027TIP3    H151572   3.805   0.129  12.192 -0.2009  0.3925 -0.5048
10027TIP3    H251573   3.914   0.173  12.288  0.1228 -1.0406 -0.1928
10028TIP3   OH251574   3.539   1.667   5.477 -0.2200 -0.3864  0.3721
10028TIP3    H151575   3.553   1.761   5.464  0.8009 -0.2685  2.0458
10028TIP3    H251576   3.513   1.635   5.391 -0.5198  1.4130 -0.2510
10029TIP3   OH251577   6.249   2.055   1.846 -0.0207  0.6090  0.0771
10029TIP3    H151578   6.218   1.990   1.783  2.8850  0.2066 -1.1123
10029TIP3    H251579   6.242   2.012   1.931 -2.7325  0.6533 -0.0306
10030TIP3   OH251580   2.842   6.616  14.962  0.0213  0.1071 -0.4095
10030TIP3    H151581   2.850   6.710  14.979 -0.9624  0.4128 -1.5537
10030TIP3    H251582   2.801   6.582  15.041  0.5072  0.6045  0.0724
10031TIP3   OH251583   0.009   3.956   4.277 -0.2147 -0.2740  0.4559
10031TIP3    H151584  -0.010   4.006   4.356  0.4033 -0.3557  0.6591
10031TIP3    H251585   0.057   3.879   4.308  0.5080 -0.0352 -0.0520
10032TIP3   OH251586   3.430   2.960   2.617 -0.2742  0.6058  0.0569
10032TIP3    H151587   3.357   2.939   2.676  0.2395 -0.4799  0.3335
10032TIP3    H251588   3.503   2.909   2.651 -0.0892 -0.4670 -1.8200
10033TIP3   OH251589   3.638   6.373  15.695  0.0118  0.1220 -0.5348
10033TIP3    H151590   3.549   6.403  15.678  0.0773  0.7774  0.2171
10033TIP3    H251591   3.690   6.411  15.624 -0.3631 -0.5961 -1.2058
10034TIP3   OH251592   0.226   6.491   5.438  0.1044  0.0872 -0.1390
10034TIP3    H151593   0.164   6.461   5.505 -0.9198  0.6666 -0.7907
10034TIP3    H251594   0.293   6.539   5.486  1.0535 -2.0532  0.7760
10035TIP3   OH251595   0.678   5.557   0.781  0.1778 -0.3523 -0.4860
10035TIP3    H151596   0.717   5.641   0.759  0.4457 -0.4035 -0.2112
10035TIP3    H251597   0.702   5.542   0.873 -0.6815 -0.2768 -0.2434
10036TIP3   OH251598   1.815   2.016  13.426 -0.6015  0.6979 -0.4376
10036TIP3    H151599   1.899   1.971  13.440 -0.0585  2.0268  0.8132
10036TIP3    H251600   1.821   2.095  13.480 -3.7269 -0.4330  1.7761
10037TIP3   OH251601   1.871   4.025   6.458 -0.2565  0.3990 -0.5445
10037TIP3    H151602   1.883   3.953   6.520 -1.1761  0.9420  0.2949
10037TIP3    H251603   1.954   4.072   6.461 -1.1247  2.0425  2.4798
10038TIP3   OH251604   1.353   3.849  14.412 -0.5105 -0.1633 -0.0171
10038TIP3    H151605   1.433   3.797  14.413 -0.5494 -0.2458 -0.8456
10038TIP3    H251606   1.284   3.785  14.395 -0.6639  0.0268 -0.1130
10039TIP3   OH251607   2.452   0.949  14.033 -0.2007  0.5669  0.0750
10039TIP3    H151608   2.499   0.910  14.106  0.3064  1.6764  0.3684
10039TIP3    H251609   2.450   1.043  14.053 -1.9524  0.6453 -0.2734
10040TIP3   OH251610   6.058   5.023  16.855 -0.0225  0.0588  0.6138
10040TIP3    H151611   6.123   4.976  16.906 -0.9875 -0.3508  1.4965
10040TIP3    H251612   6.067   4.989  16.766 -1.2411 -2.4505  1.3690
10041TIP3   OH251613   4.170   0.938   1.517  0.1170  0.0567  0.4370
10041TIP3    H151614   4.219   0.892   1.585 -0.5419 -0.9513  0.2561
10041TIP3    H251615   4.114   0.870   1.478 -1.8106  1.2427  0.9946
10042TIP3   OH251616   5.136   4.747   4.283  0.1865  0.1054 -0.4618
10042TIP3    H151617   5.070   4.686   4.250  1.2006 -0.9621 -0.5712
10042TIP3    H251618   5.116   4.756   4.376 -1.1094  1.0996 -0.8164
10043TIP3   OH251619   1.718   0.027  11.790 -0.6236 -0.2549 -0.5674
10043TIP3    H151620   1.670   0.109  11.783 -0.7207 -0.0550  1.6175
10043TIP3    H251621   1.810   0.053  11.792 -0.5018 -0.4363 -2.2238
10044TIP3   OH251622   2.905   1.558  11.276  0.6608 -0.2227 -0.3421
10044TIP3    H151623   2.821   1.552  11.231 -0.0855 -1.1210  1.0753
10044TIP3    H251624   2.946   1.637  11.241 -1.1411  0.7077 -0.4679
10045TIP3   OH251625   3.301   1.112  14.646  0.1010 -0.6862 -0.3100
10045TIP3    H151626   3.302   1.054  14.722 -0.8593  2.2857  2.1573
10045TIP3    H251627   3.385   1.158  14.650 -0.1258 -0.2226 -0.8486
10046TIP3   OH251628   3.241   4.092   1.919  0.2842  0.2894  0.2045
10046TIP3    H151629   3.280   4.073   2.005 -1.7502  2.7841  1.8505
10046TIP3    H251630   3.271   4.181   1.899 -1.4141  0.7736 -0.3236
10047TIP3   OH251631   0.228   0.416   0.758  0.3684  0.0550  0.1299
10047TIP3    H151632   0.239   0.377   0.845 -0.2047 -0.7493 -0.1458
10047TIP3    H251633   0.165   0.359   0.714 -0.5044  1.3141 -0.2871
10048TIP3   OH251634   2.624   5.208   2.970 -0.1712  0.2744  0.2009
10048TIP3    H151635   2.557   5.152   3.009 -0.9219  0.1126 -1.2612
10048TIP3    H251636   2.593   5.225   2.881  2.8558 -1.8746 -1.4757
10049TIP3   OH251637   3.393   3.335   2.681 -0.2852  0.6710 -0.6202
10049TIP3    H151638   3.357   3.422   2.663 -1.9974  0.3118  0.8056
10049TIP3    H251639   3.320   3.286   2.717  1.4332 -0.3823  1.6875
10050TIP3   OH251640   4.398   6.121   2.892  0.3904  0.0228  0.2675
10050TIP3    H151641   4.467   6.059   2.913 -0.8379 -1.9499 -1.1441
10050TIP3    H251642   4.358   6.143   2.976  1.7209 -0.0158  0.9208
10051TIP3   OH251643   0.468   6.586   5.510  0.0601 -0.0441 -0.1250
10051TIP3    H151644   0.481   6.679   5.490 -1.2663  0.7925  2.5040
10051TIP3    H251645   0.488   6.541   5.427  0.5158  2.5568 -1.5436
10052TIP3   OH251646   6.117   0.886  14.189  0.6468  0.5426 -0.0031
10052TIP3    H151647   6.149   0.878  14.279  1.0596 -1.9161 -0.2866
10052TIP3    H251648   6.163   0.817  14.141 -1.5677 -0.0261 -1.4902
10053TIP3   OH251649   1.424   6.153  15.369  0.5384 -0.1114  0.3727
10053TIP3    H151650   1.416   6.093  15.443 -0.8382 -0.7984 -0.2879
10053TIP3    H251651   1.423   6.240  15.409  1.8042 -0.4984  1.2872
10054TIP3   OH251652   5.497   1.750   0.454  0.6189  0.2136  0.2624
10054TIP3    H151653   5.417   1.697   0.460  0.4232  0.6255  1.7392
10054TIP3    H251654   5.557   1.697   0.401 -0.2775 -0.5574 -0.0099
10055TIP3   OH251655   6.301   5.113   0.805  0.6789 -0.4617 -0.0457
10055TIP3    H151656   6.224   5.110   0.749  0.3223 -2.2252  0.4886
10055TIP3    H251657   6.375   5.122   0.743  0.2138 -1.1882 -0.7240
10056TIP3   OH251658   4.195   6.242  16.283 -0.4731  0.0556 -0.3803
10056TIP3    H151659   4.128   6.258  16.216  0.5495  0.3930 -1.3468
10056TIP3    H251660   4.258   6.184  16.240 -0.6349 -1.0959  0.8508
10057TIP3   OH251661   6.148   0.603   3.788  0.6730 -0.7547  0.5043
10057TIP3    H151662   6.230   0.613   3.740  1.6279 -0.8519  2.0493
10057TIP3    H251663   6.083   0.647   3.733  1.6527 -1.0603 -0.9745
10058TIP3   OH251664   1.258   5.358  15.498 -0.6077 -0.0970 -0.6459
10058TIP3    H151665   1.278   5.279  15.447 -0.6457 -0.1839 -0.5280
10058TIP3    H251666   1.334   5.414  15.487  0.1682 -0.8471  0.6201
10059TIP3   OH251667   6.619   6.144   5.048  0.4127  0.3429 -0.0772
10059TIP3    H151668   6.606   6.214   4.984 -0.4954  0.8881  0.6596
10059TIP3    H251669   6.696   6.097   5.018 -1.0510 -0.6253 -2.6488
10060TIP3   OH251670   5.303   2.413  15.001  0.4332 -0.0086  0.2060
10060TIP3    H151671   5.381   2.392  15.052  0.8900  1.2002  0.0526
10060TIP3    H251672   5.242   2.451  15.065  0.1064 -0.6051  0.2564
10061TIP3   OH251673   6.419   5.139   3.952 -0.8322  0.2804 -0.1239
10061TIP3    H151674   6.364   5.216   3.944  0.5027  1.2844 -0.0335
10061TIP3    H251675   6.403   5.107   4.041 -1.5039  0.3518 -0.2139
10062TIP3   OH251676   3.294   0.272  17.220 -0.3552  0.5103  0.3196
10062TIP3    H151677   3.280   0.274  17.125 -1.8367  1.1977  0.5301
10062TIP3    H251678   3.302   0.364  17.245  2.6932  0.2866  0.5564
10063TIP3   OH251679   1.833   0.164  14.158  0.2775  0.0169 -0.3609
10063TIP3    H151680   1.877   0.242  14.190 -0.6240  0.6836 -0.7045
10063TIP3    H251681   1.740   0.183  14.168  0.0476 -1.3268  0.2833
10064TIP3   OH251682   4.281   1.516   0.884 -0.6382  0.3332  0.7524
10064TIP3    H151683   4.239   1.556   0.960 -2.8185  0.7841 -0.6045
10064TIP3    H251684   4.285   1.585   0.819 -0.8347 -0.5868 -0.2765
10065TIP3   OH251685   1.845   2.930  16.726 -0.2221 -0.4448 -0.9421
10065TIP3    H151686   1.850   3.025  16.722 -0.8731 -0.4515 -2.5451
10065TIP3    H251687   1.837   2.902  16.635  1.4718 -2.1388 -0.6307
10066TIP3   OH251688   5.479   1.706  14.982  0.4854 -0.0209  0.0738
10066TIP3    H151689   5.449   1.761  15.054 -1.8141  0.3539 -1.0836
10066TIP3    H251690   5.553   1.754  14.945  0.0220  1.1153  0.5695
10067TIP3   OH251691   3.653   0.102  11.172 -0.1024  0.3447 -0.6031
10067TIP3    H151692   3.741   0.118  11.207  0.2226  0.9516 -1.6748
10067TIP3    H251693   3.667   0.049  11.094 -0.8498 -1.1977  0.2660
10068TIP3   OH251694   2.490   2.895   6.139  0.1130  0.0924 -0.2078
10068TIP3    H151695   2.409   2.946   6.136 -0.5034 -0.7443  1.3008
10068TIP3    H251696   2.482   2.841   6.217  1.7592 -0.6520 -0.5051
10069TIP3   OH251697   4.283   5.264   2.232  0.1359  0.0801  0.2911
10069TIP3    H151698   4.357   5.219   2.272 -0.3774 -0.6740  0.4191
10069TIP3    H251699   4.220   5.194   2.212 -0.0899  0.5674 -0.8079
10070TIP3   OH251700   0.217   3.589   0.905  0.2963 -0.3223 -0.0521
10070TIP3    H151701   0.150   3.647   0.870  0.5327 -0.3953 -0.6356
10070TIP3    H251702   0.234   3.621   0.994 -0.6791 -0.4484  0.1905
10071TIP3   OH251703   6.712   4.499   5.202 -0.0568 -0.2270  0.2053
10071TIP3    H151704   6.696   4.541   5.287 -1.8599  0.5956 -0.4927
10071TIP3    H251705   6.792   4.541   5.170  0.5259 -0.3882  1.3786
10072TIP3   OH251706   3.941   2.687  16.146 -0.5533 -0.1038  0.4224
10072TIP3    H151707   3.974   2.771  16.180  0.2109  0.5354 -1.6839
10072TIP3    H251708   4.012   2.625  16.163  0.4301  0.5186 -1.0716
10073TIP3   OH251709   2.471   6.331   5.541 -0.3825  0.4816  0.7393
10073TIP3    H151710   2.451   6.299   5.453  0.7381  0.7375  0.3761
10073TIP3    H251711   2.389   6.372   5.571 -0.2646  2.0781 -0.9391
10074TIP3   OH251712   3.943   6.327   0.691 -0.4299 -0.2527  0.0986
10074TIP3    H151713   3.872   6.276   0.731 -0.4982 -1.0775 -1.0073
10074TIP3    H251714   3.955   6.402   0.749 -1.8757 -0.3631  0.5782
10075TIP3   OH251715   5.471   2.154   4.150 -0.3560  0.0642 -0.0077
10075TIP3    H151716   5.563   2.178   4.142 -0.0418 -0.7275  1.1005
10075TIP3    H251717   5.424   2.238   4.150  0.6075  0.6718  2.3564
10076TIP3   OH251718   6.172   2.626  16.074 -0.2924 -0.0822 -0.3214
10076TIP3    H151719   6.236   2.685  16.035  0.4810 -0.2412  0.6553
10076TIP3    H251720   6.222   2.577  16.140 -1.4224 -0.2047  0.4756
10077TIP3   OH251721   1.377   5.824  14.349  0.2800 -0.0570 -0.1032
10077TIP3    H151722   1.290   5.785  14.349 -0.2698  1.0298 -1.9140
10077TIP3    H251723   1.361   5.917  14.328  1.8911  0.0358 -1.0644
10078TIP3   OH251724   1.338   0.356   2.101 -0.0859 -0.0738  0.1581
10078TIP3    H151725   1.345   0.423   2.033  0.9538  1.2567  1.4909
10078TIP3    H251726   1.246   0.331   2.101 -0.1474  0.0257 -1.5754
10079TIP3   OH251727   0.338   2.928  12.623  0.1342 -0.0938 -0.3004
10079TIP3    H151728   0.431   2.926  12.647  0.0739 -1.1326 -0.1346
10079TIP3    H251729   0.292   2.895  12.700 -0.2194 -1.4609 -1.0707
10080TIP3   OH251730   1.474   0.584   0.808 -0.4073  0.2138 -0.2109
10080TIP3    H151731   1.518   0.634   0.876  1.0037 -2.2656  0.7997
10080TIP3    H251732   1.531   0.591   0.732 -1.8297  2.7193 -1.1788
10081TIP3   OH251733   4.423   6.781  16.097  0.1655  0.3671 -0.4033
10081TIP3    H151734   4.373   6.778  16.016 -0.1073 -1.6814 -0.2152
10081TIP3    H251735   4.391   6.706  16.147  3.3085 -0.9847 -0.2163
10082TIP3   OH251736   3.077   4.300   1.324  0.6407  0.0059 -0.0086
10082TIP3    H151737   3.140   4.228   1.318  1.2921  0.4971  0.7271
10082TIP3    H251738   2.996   4.263   1.288  0.8099 -1.2732  0.8331
10083TIP3   OH251739   5.600   0.320   2.145 -0.1718 -0.1177  0.2789
10083TIP3    H151740   5.604   0.410   2.179 -0.5847  0.1070 -0.2527
10083TIP3    H251741   5.606   0.265   2.223  1.4470  0.3362  0.5103
10084TIP3   OH251742   4.271   6.319  12.139 -0.2805  0.1154  0.0623
10084TIP3    H151743   4.305   6.408  12.134 -1.7485  0.6507 -1.1494
10084TIP3    H251744   4.349   6.264  12.148  1.0117  1.2631 -2.8803
10085TIP3   OH251745   4.397   6.014  17.027 -0.3364  0.4157 -0.0596
10085TIP3    H151746   4.311   6.043  16.998 -0.4712  2.1597  1.8858
10085TIP3    H251747   4.453   6.091  17.021  0.5550 -0.1382  0.6763
10086TIP3   OH251748   6.275   0.230   6.464  0.2321 -0.1151 -0.1212
10086TIP3    H151749   6.219   0.173   6.517 -0.0398 -0.2082 -0.5059
10086TIP3    H251750   6.244   0.218   6.374  0.8910 -0.2029 -0.3490
10087TIP3   OH251751   3.074   1.325   2.411 -0.2659 -0.7850  0.0323
10087TIP3    H151752   3.149   1.323   2.351 -1.3846  1.9376 -1.6202
10087TIP3    H251753   3.104   1.378   2.484 -0.0499 -1.1480  0.2121
10088TIP3   OH251754   3.907   0.735  15.073 -0.1882 -0.4892  0.1173
10088TIP3    H151755   3.986   0.765  15.027 -0.8256  0.1423 -0.5941
10088TIP3    H251756   3.880   0.809  15.126 -0.8852 -0.3334 -0.4403
10089TIP3   OH251757   0.005   5.416   0.042 -0.1344  0.3322  0.2081
10089TIP3    H151758   0.067   5.343   0.035  0.1208  0.5722 -0.0760
10089TIP3    H251759   0.061   5.494   0.046 -0.4277  0.5666 -0.2699
10090TIP3   OH251760   6.030   5.601  15.960  0.0993 -0.2852  0.5007
10090TIP3    H151761   6.042   5.613  15.866 -1.2468 -1.1976  0.1860
10090TIP3    H251762   6.020   5.507  15.971 -1.7876 -0.0412  1.2666
10091TIP3   OH251763   5.438   1.396  12.536  0.2101  0.3708  0.6013
10091TIP3    H151764   5.472   1.363  12.619  2.2130  0.7284 -0.0213
10091TIP3    H251765   5.450   1.323  12.475  1.1859  0.9696  0.0614
10092TIP3   OH251766   6.704   3.994   3.750 -0.0946 -0.3308 -0.1072
10092TIP3    H151767   6.792   3.998   3.785 -0.2824 -0.4145  0.3768
10092TIP3    H251768   6.690   4.080   3.709 -1.0920  1.1342  2.9706
10093TIP3   OH251769   6.791   0.459  12.397  0.2895  0.2075 -0.0971
10093TIP3    H151770   6.747   0.508  12.466 -1.9795 -1.6666 -0.0887
10093TIP3    H251771   6.771   0.367  12.416  2.2951 -0.5952 -1.4813
10094TIP3   OH251772   6.626   4.400  15.648  0.1742  0.7371  0.0350
10094TIP3    H151773   6.692   4.429  15.711  0.4572 -0.7227  0.4694
10094TIP3    H251774   6.586   4.323  15.690  0.6488 -0.5371 -1.7120
10095TIP3   OH251775   2.741   4.621  15.256 -0.0585 -0.1484  0.5829
10095TIP3    H151776   2.655   4.663  15.245 -0.1920 -0.0483  1.7991
10095TIP3    H251777   2.732   4.537  15.212 -1.4095 -0.9005  2.1629
10096TIP3   OH251778   4.968   2.889   5.830  0.6120 -0.2090  0.0301
10096TIP3    H151779   4.975   2.855   5.919  0.3288 -0.4924 -0.0551
10096TIP3    H251780   4.953   2.983   5.842  2.1788  0.0348  0.2529
10097TIP3   OH251781   4.312   5.847   1.407  0.3378 -0.0616 -0.4258
10097TIP3    H151782   4.390   5.796   1.430 -1.4802 -2.6452  0.5224
10097TIP3    H251783   4.266   5.857   1.490 -0.2012  1.7339 -0.9081
10098TIP3   OH251784   4.187   3.554   3.546  0.5551 -0.0539 -1.0698
10098TIP3    H151785   4.256   3.612   3.579  0.0008  0.3386 -0.5713
10098TIP3    H251786   4.133   3.610   3.490  0.5063 -0.3058 -1.2792
10099TIP3   OH251787   6.714   2.064  17.018 -0.6055  0.7989 -0.1339
10099TIP3    H151788   6.765   2.142  17.039  0.9592 -0.1620 -0.2272
10099TIP3    H251789   6.778   2.001  16.984 -1.6293 -0.8837  0.8952
10100TIP3   OH251790   0.710   1.433   3.147  0.2323  0.2930 -0.0848
10100TIP3    H151791   0.670   1.378   3.080  1.7336  0.6272 -1.3154
10100TIP3    H251792   0.680   1.396   3.230 -1.0349 -0.6227 -0.9249
10101TIP3   OH251793   0.289   6.029  14.645  0.2111  0.0216 -0.7893
10101TIP3    H151794   0.233   6.073  14.710 -0.9193  0.5878 -2.1067
10101TIP3    H251795   0.281   5.936  14.666 -1.4533  0.0660 -1.0795
10102TIP3   OH251796   6.336   0.235  13.569  0.3994 -0.1751 -0.1961
10102TIP3    H151797   6.295   0.291  13.504  0.8036  0.7261  0.3134
10102TIP3    H251798   6.393   0.293  13.620  1.0298 -1.0873  0.1778
10103TIP3   OH251799   6.148   3.510  15.212 -0.0139 -0.1451 -0.0755
10103TIP3    H151800   6.153   3.428  15.164 -1.0191  0.5947 -1.5247
10103TIP3    H251801   6.057   3.539  15.201 -0.0836  0.4416  1.6689
10104TIP3   OH251802   3.328   6.461  14.888 -0.0009 -0.1216 -0.3370
10104TIP3    H151803   3.233   6.473  14.892  0.0671  0.3345 -0.0113
10104TIP3    H251804   3.363   6.537  14.933  0.5096 -0.6594  0.1778
10105TIP3   OH251805   4.374   2.928   2.303  0.3333 -0.9585 -0.2555
10105TIP3    H151806   4.410   2.978   2.377  1.0448  1.4684 -2.1308
10105TIP3    H251807   4.312   2.987   2.262 -0.6075 -2.5425 -1.2218
10106TIP3   OH251808   0.030   6.114  14.047 -0.1485 -0.0502  0.0768
10106TIP3    H151809   0.048   6.187  13.988  2.0996 -0.1153  0.6031
10106TIP3    H251810   0.049   6.036  13.995 -3.5325 -0.4164 -0.8215
10107TIP3   OH251811   0.867   2.277  14.908  0.7826 -0.0768  0.2538
10107TIP3    H151812   0.929   2.308  14.974  1.5410 -1.8851  0.4578
10107TIP3    H251813   0.789   2.252  14.957  0.0689  1.6124  0.0616
10108TIP3   OH251814   1.583   4.944   4.299 -0.7479 -0.0022 -0.2526
10108TIP3    H151815   1.505   4.911   4.254 -1.0973  0.2291  0.1748
10108TIP3    H251816   1.550   4.984   4.379 -0.1061 -0.6066  0.3281
10109TIP3   OH251817   5.030   3.224  16.094 -0.4700  0.0280 -0.2408
10109TIP3    H151818   5.056   3.158  16.157 -1.3576 -0.1725 -0.0651
10109TIP3    H251819   5.106   3.281  16.085  0.2381 -0.9061 -0.2523
10110TIP3   OH251820   3.728   0.527  15.185  0.1939  0.1900 -0.6050
10110TIP3    H151821   3.721   0.543  15.279  0.4238 -0.1524 -0.5261
10110TIP3    H251822   3.793   0.591  15.155 -1.4460  1.7681 -0.9275
10111TIP3   OH251823   3.431   1.325   1.973  0.3304  1.0230 -0.7202
10111TIP3    H151824   3.344   1.358   1.949  0.3587  1.1297 -0.6758
10111TIP3    H251825   3.426   1.307   2.067 -0.2278 -0.7682 -1.0556
10112TIP3   OH251826   0.516   6.332   2.436 -0.1864 -0.0413 -0.0396
10112TIP3    H151827   0.485   6.410   2.390 -1.0287 -0.2474  0.1615
10112TIP3    H251828   0.500   6.351   2.529  1.3837  0.3221  0.1704
10113TIP3   OH251829   1.077   4.873   2.413 -0.4556  1.0008 -0.2364
10113TIP3    H151830   0.986   4.887   2.389 -0.4575  0.1339 -0.7934
10113TIP3    H251831   1.075   4.850   2.506 -0.8421  0.6748 -0.3244
10114TIP3   OH251832   1.146   1.170   0.039  0.1529  0.2124 -0.0265
10114TIP3    H151833   1.208   1.200  -0.028  0.0098 -0.1351 -0.3158
10114TIP3    H251834   1.092   1.104  -0.005  0.2943 -0.2887  0.5353
10115TIP3   OH251835   1.178   1.980   4.971 -0.2508 -0.4909 -0.0072
10115TIP3    H151836   1.263   1.993   4.929  0.2932 -1.5231  0.7072
10115TIP3    H251837   1.121   1.946   4.902  0.0751 -0.3188 -0.3618
10116TIP3   OH251838   3.322   3.806  13.305  0.0003 -0.0093  0.2697
10116TIP3    H151839   3.398   3.848  13.265  2.0367 -1.3100  2.5867
10116TIP3    H251840   3.353   3.721  13.335 -2.9032 -1.4505 -0.3881
10117TIP3   OH251841   3.230   4.858  12.770  0.0178  0.6307 -0.2148
10117TIP3    H151842   3.184   4.775  12.783 -1.9519  1.6989  0.0805
10117TIP3    H251843   3.313   4.833  12.731  0.1462 -1.5988  1.2518
10118TIP3   OH251844   1.610   4.241   1.752 -0.1557 -0.4398 -0.4835
10118TIP3    H151845   1.633   4.297   1.826  1.9754 -0.9774 -0.6891
10118TIP3    H251846   1.520   4.267   1.730  0.4861  2.4139 -0.1274
10119TIP3   OH251847   4.342   1.205  12.740  0.0953  0.1531  0.0399
10119TIP3    H151848   4.283   1.235  12.809 -0.4686  0.5306 -0.5833
10119TIP3    H251849   4.416   1.167  12.786 -0.9671 -1.0178  0.8719
10120TIP3   OH251850   0.779   1.758  15.930  0.0620 -0.0615  0.3379
10120TIP3    H151851   0.861   1.807  15.935 -0.4920  0.8966  0.4018
10120TIP3    H251852   0.721   1.815  15.879 -1.4540  0.6117  2.6664
10121TIP3   OH251853   0.747   3.263   4.998  0.5110 -0.2910 -0.5895
10121TIP3    H151854   0.780   3.352   4.992 -0.6409  0.3124  1.2872
10121TIP3    H251855   0.662   3.266   4.953  0.4267 -0.4062 -0.4400
10122TIP3   OH251856   1.092   0.408   6.419 -0.6205 -0.2709 -0.0925
10122TIP3    H151857   1.093   0.331   6.476  1.0481  0.8119  1.4628
10122TIP3    H251858   1.016   0.458   6.448 -0.6514 -0.4617  0.1619
10123TIP3   OH251859   3.572   3.322  12.523  0.4177  0.0597  0.8874
10123TIP3    H151860   3.509   3.360  12.462  0.8354  0.3380  0.6211
10123TIP3    H251861   3.658   3.346  12.487  0.6817 -0.5957  1.0605
10124TIP3   OH251862   0.047   3.051   5.452 -0.5538 -0.2340 -0.0647
10124TIP3    H151863   0.027   3.116   5.518  1.4484  0.9896 -0.5840
10124TIP3    H251864   0.077   2.974   5.501  0.3500  0.4548  0.4706
10125TIP3   OH251865   5.725   4.293  12.992  0.7828  0.1929 -0.3784
10125TIP3    H151866   5.803   4.244  13.017 -0.0463 -1.6928 -1.2879
10125TIP3    H251867   5.659   4.267  13.057  0.2117 -0.2751 -1.1262
10126TIP3   OH251868   6.154   4.384   4.171 -0.2237  0.9935 -0.1899
10126TIP3    H151869   6.081   4.322   4.166 -0.7369  1.4548  1.0485
10126TIP3    H251870   6.217   4.353   4.106 -1.7315  0.8629 -1.6681
10127TIP3   OH251871   2.164   2.364  11.388 -0.3121 -0.1332  0.3193
10127TIP3    H151872   2.229   2.388  11.454  0.6523 -0.2634 -0.5670
10127TIP3    H251873   2.105   2.304  11.433  0.2081 -0.0592  1.1173
10128TIP3   OH251874   2.271   0.237  10.855 -0.5036 -0.1883 -0.2186
10128TIP3    H151875   2.357   0.207  10.883 -0.1701  1.0082  0.1024
10128TIP3    H251876   2.282   0.255  10.761  0.1589  1.7194  0.1744
10129TIP3   OH251877   5.939   4.314  12.145 -0.5629  0.0090 -0.1542
10129TIP3    H151878   5.929   4.386  12.084 -0.6484 -0.7507 -1.0645
10129TIP3    H251879   5.956   4.237  12.090  1.2691 -0.3825  0.8379
10130TIP3   OH251880   3.679   3.771  15.458  0.5450 -0.0872  0.1062
10130TIP3    H151881   3.695   3.681  15.485 -2.3044 -1.0143 -0.9215
10130TIP3    H251882   3.685   3.822  15.539  2.7279 -1.0331  0.6195
10131TIP3   OH251883   1.023   6.781  12.677  0.0301 -0.2934  0.0272
10131TIP3    H151884   1.103   6.729  12.668  0.6949  0.7111 -0.0601
10131TIP3    H251885   1.039   6.834  12.756  0.9261  2.3610 -1.7798
10132TIP3   OH251886   0.989   0.658  16.792 -0.3355 -0.1595  0.1597
10132TIP3    H151887   0.918   0.595  16.805 -0.3266 -0.1214  0.4074
10132TIP3    H251888   1.068   0.604  16.791 -0.2700 -0.0948  1.0246
10133TIP3   OH251889   4.516   2.611  13.652  0.7222 -0.0178 -0.1566
10133TIP3    H151890   4.529   2.703  13.632 -1.1860  0.5110  0.7354
10133TIP3    H251891   4.462   2.578  13.581  2.1673 -0.7225 -0.9628
10134TIP3   OH251892   4.948   6.155   4.107  0.4024 -0.1036 -0.1200
10134TIP3    H151893   4.936   6.229   4.167 -0.5116 -1.0273  0.8874
10134TIP3    H251894   4.923   6.078   4.158 -1.4150 -0.8439 -1.9684
10135TIP3   OH251895   0.218   2.935  13.321 -0.4906 -0.2329 -0.1072
10135TIP3    H151896   0.249   2.865  13.264  0.0238 -0.8569  0.8930
10135TIP3    H251897   0.205   3.010  13.263 -2.6050 -1.5639 -1.4740
10136TIP3   OH251898   4.941   6.700   5.433 -0.1844  0.2949  0.0486
10136TIP3    H151899   4.871   6.643   5.466  0.3231  0.6047  1.7355
10136TIP3    H251900   5.012   6.640   5.410 -0.4486  0.0929 -0.2482
10137TIP3   OH251901   5.197   2.002   1.201  0.2673  0.4957  0.2217
10137TIP3    H151902   5.230   1.951   1.275  0.5157 -1.7668 -1.3418
10137TIP3    H251903   5.173   1.936   1.136  0.6830  2.4092 -1.9819
10138TIP3   OH251904   4.076   0.615   1.770  0.6389  0.5198 -0.7262
10138TIP3    H151905   4.069   0.639   1.863  1.6489  0.8918 -0.7340
10138TIP3    H251906   4.088   0.520   1.770  0.3150  0.4791 -0.4899
10139TIP3   OH251907   4.640   1.293   2.650 -0.2893  0.0111 -0.1188
10139TIP3    H151908   4.671   1.281   2.561  0.7430  2.3575 -0.1250
10139TIP3    H251909   4.718   1.283   2.705 -0.4015  1.2226  0.2828
10140TIP3   OH251910   4.410   4.781   0.088 -0.6175 -0.0689 -0.1123
10140TIP3    H151911   4.336   4.832   0.054 -1.3185 -0.3367  0.9836
10140TIP3    H251912   4.391   4.691   0.063 -1.0449 -0.2422  0.7877
10141TIP3   OH251913   3.390   0.539  16.866 -0.0198 -0.0273  0.0324
10141TIP3    H151914   3.313   0.596  16.864 -0.1880 -0.1952  1.3001
10141TIP3    H251915   3.354   0.450  16.862  0.1968 -0.0906 -0.8738
10142TIP3   OH251916   3.627   6.134  12.215 -0.0375 -0.0710  0.2735
10142TIP3    H151917   3.698   6.075  12.191 -0.3333 -0.2139 -0.2450
10142TIP3    H251918   3.576   6.086  12.280 -0.3288 -0.4251 -0.2139
10143TIP3   OH251919   1.012   3.258   4.794  0.0107  0.1182  0.2695
10143TIP3    H151920   1.067   3.181   4.804 -1.5721 -1.1709 -0.5707
10143TIP3    H251921   0.937   3.241   4.850  0.0100  1.4451  0.7059
10144TIP3   OH251922   2.941   2.544   2.097  0.1506 -0.2527  0.7035
10144TIP3    H151923   2.915   2.579   2.182  1.4408  0.4681  0.8199
10144TIP3    H251924   2.906   2.606   2.034 -0.7350 -0.7439  0.6895
10145TIP3   OH251925   3.055   2.257  14.941 -0.4867  0.5845  0.4936
10145TIP3    H151926   3.037   2.166  14.965  1.8287  0.5559  2.4024
10145TIP3    H251927   3.080   2.252  14.849 -2.4989 -0.3405 -0.0780
10146TIP3   OH251928   6.748   2.983   2.095 -0.1211  0.1058  0.0174
10146TIP3    H151929   6.809   3.054   2.112  0.1741  0.1653 -1.2362
10146TIP3    H251930   6.752   2.929   2.174  0.9771  0.5209  0.2622
10147TIP3   OH251931   4.643   2.571   5.283  0.2593 -0.0552 -0.3003
10147TIP3    H151932   4.679   2.651   5.246 -0.1946 -0.8014 -2.4705
10147TIP3    H251933   4.685   2.501   5.235 -0.0498 -1.1161  0.9238
10148TIP3   OH251934   5.755   4.823  13.491  0.5465  0.0329 -0.3175
10148TIP3    H151935   5.783   4.746  13.441  1.1775 -0.2239  0.4029
10148TIP3    H251936   5.819   4.830  13.562 -1.2715 -0.6617  1.5030
10149TIP3   OH251937   5.152   2.906   5.577 -0.2711 -0.5184  0.2987
10149TIP3    H151938   5.155   2.933   5.669 -1.1304  2.3822 -0.4169
10149TIP3    H251939   5.231   2.853   5.565  0.8753  0.6132  2.2635
10150TIP3   OH251940   2.565   5.314  10.854  0.1251  0.7141 -0.3489
10150TIP3    H151941   2.521   5.244  10.902  0.5339  0.9293  0.3636
10150TIP3    H251942   2.632   5.269  10.802 -1.4248  0.2917 -2.0971
10151TIP3   OH251943   2.475   5.932   1.155 -0.1186 -0.5776 -0.5007
10151TIP3    H151944   2.534   5.866   1.191  0.2529 -1.2081 -2.1651
10151TIP3    H251945   2.444   5.894   1.073 -1.2972  0.5828 -0.6289
10152TIP3   OH251946   5.586   2.003  15.370  0.0791  0.2457 -0.5079
10152TIP3    H151947   5.646   2.076  15.358 -1.3391  1.2556 -1.8580
10152TIP3    H251948   5.579   1.964  15.283 -2.1925  0.9845 -0.7192
10153TIP3   OH251949   0.070   1.389   3.838  0.0144 -0.3067  0.1036
10153TIP3    H151950   0.047   1.430   3.754 -1.2581 -0.0438  0.5645
10153TIP3    H251951   0.131   1.451   3.878 -0.3629  0.1859 -0.0719
10154TIP3   OH251952   6.435   3.346   4.842 -0.1573 -0.2365  0.0306
10154TIP3    H151953   6.467   3.351   4.932 -0.1881  1.4478 -0.0162
10154TIP3    H251954   6.350   3.390   4.845 -0.4342 -0.7064 -0.7116
10155TIP3   OH251955   3.299   2.200  16.931 -0.0860 -0.6123 -0.4812
10155TIP3    H151956   3.286   2.152  16.849 -0.9991 -0.6935 -0.3060
10155TIP3    H251957   3.323   2.132  16.995  0.4990 -0.5665 -0.6490
10156TIP3   OH251958   1.108   2.170  11.876  0.2862  0.1168  0.0234
10156TIP3    H151959   1.104   2.205  11.787  0.6020 -0.0593 -0.0594
10156TIP3    H251960   1.020   2.184  11.911  0.5227  1.4492  0.1574
10157TIP3   OH251961   2.499   4.574   5.168 -0.2418  0.0798  0.1902
10157TIP3    H151962   2.568   4.605   5.227 -0.5272  1.0224  0.0503
10157TIP3    H251963   2.510   4.626   5.089  0.2380 -1.2902 -0.6756
10158TIP3   OH251964   1.201   4.725  14.755 -0.2472 -0.3210 -0.0637
10158TIP3    H151965   1.187   4.778  14.676  2.2477  1.6522  0.6740
10158TIP3    H251966   1.134   4.757  14.816  0.1446  0.8342 -0.2026
10159TIP3   OH251967   3.022   6.804   2.198 -0.1953  0.0788  0.2071
10159TIP3    H151968   2.996   6.892   2.223 -0.8858  0.0916 -0.5090
10159TIP3    H251969   3.117   6.807   2.193 -0.0462  0.2262  2.1939
10160TIP3   OH251970   1.431   1.950   1.591 -0.5095 -0.5272  0.1870
10160TIP3    H151971   1.426   1.887   1.519  0.3873 -1.0744  0.5935
10160TIP3    H251972   1.494   1.912   1.652  1.0882  1.4009 -0.1732
10161TIP3   OH251973   5.813   0.689  14.802  0.2540 -0.1427 -0.2194
10161TIP3    H151974   5.825   0.745  14.725 -1.1776 -0.7977 -0.9721
10161TIP3    H251975   5.832   0.746  14.877  1.3537  0.6029 -1.0330
10162TIP3   OH251976   4.310   4.128   5.966  0.3151 -1.1640  0.1470
10162TIP3    H151977   4.320   4.084   6.051  1.2185  0.7460  1.1030
10162TIP3    H251978   4.232   4.183   5.978  0.5361 -0.7736 -0.2042
10163TIP3   OH251979   4.662   2.647   1.999  0.1378 -0.3215  0.2071
10163TIP3    H151980   4.667   2.558   2.033 -0.4097  0.1391  1.5335
10163TIP3    H251981   4.578   2.650   1.953 -0.8845  0.1329  2.0504
10164TIP3   OH251982   2.296   6.320   0.889  0.0726  0.0298 -0.0148
10164TIP3    H151983   2.267   6.282   0.806 -1.1519 -1.4471  1.0268
10164TIP3    H251984   2.245   6.273   0.955  1.5328  0.6605  1.6187
10165TIP3   OH251985   0.375   3.062  15.659  0.3373 -0.1761 -0.5424
10165TIP3    H151986   0.429   2.994  15.700  0.3129  1.0959  1.7589
10165TIP3    H251987   0.433   3.105  15.596  1.3065 -0.3156  0.2415
10166TIP3   OH251988   1.756   4.042  11.165 -0.3000  0.3191  0.4073
10166TIP3    H151989   1.786   4.005  11.082  0.2763 -0.6322  1.0107
10166TIP3    H251990   1.837   4.059  11.214 -0.6392  0.4463  0.9365
10167TIP3   OH251991   0.718   3.210   0.711 -0.2336  0.3142  0.3926
10167TIP3    H151992   0.678   3.244   0.632 -0.1937 -1.4691 -0.4410
10167TIP3    H251993   0.808   3.189   0.685 -0.2981 -0.5397  0.8063
10168TIP3   OH251994   3.152   4.759   2.623  0.0820  0.2529  0.3569
10168TIP3    H151995   3.104   4.784   2.544  2.1278  0.3997 -0.9126
10168TIP3    H251996   3.099   4.691   2.663 -1.2913  0.5813 -0.8393
10169TIP3   OH251997   5.624   4.353   2.668 -0.6798  0.4144 -0.4348
10169TIP3    H151998   5.645   4.269   2.627  1.0925  0.6096 -0.0196
10169TIP3    H251999   5.547   4.384   2.620 -1.2727 -1.3490 -0.7065
10170TIP3   OH252000   0.458   2.397   1.632  0.2264 -0.0074  0.5980
10170TIP3    H152001   0.404   2.324   1.602 -0.6072  0.8891 -0.1870
10170TIP3    H252002   0.548   2.369   1.614 -0.1554 -0.2232 -1.2174
10171TIP3   OH252003   0.031   2.012  11.426 -0.0372 -0.3815  0.3339
10171TIP3    H152004   0.016   2.037  11.335  0.4422 -1.3184 -0.0190
10171TIP3    H252005  -0.054   2.025  11.469 -0.5926 -1.0970 -0.5277
10172TIP3   OH252006   1.252   3.878   1.306 -0.1349 -0.3295  0.3786
10172TIP3    H152007   1.297   3.825   1.372 -0.9220 -0.3948  0.8695
10172TIP3    H252008   1.163   3.843   1.303  0.3654 -1.6503 -2.1404
10173TIP3   OH252009   2.741   3.044  14.121  0.4476  0.3180  0.2800
10173TIP3    H152010   2.646   3.046  14.113  0.1592 -1.5272  2.2305
10173TIP3    H252011   2.766   3.135  14.137 -1.2037  0.5944  1.5494
10174TIP3   OH252012   5.439   4.893  10.781  0.2165  0.1905  0.0868
10174TIP3    H152013   5.402   4.824  10.726  0.6163  0.3032 -0.3297
10174TIP3    H252014   5.363   4.941  10.814 -0.1896 -1.5636  1.9042
10175TIP3   OH252015   2.651   1.239  11.511  0.3809  0.5012  0.8424
10175TIP3    H152016   2.705   1.317  11.504  0.2458  0.6651  1.5515
10175TIP3    H252017   2.613   1.228  11.424  0.4590  1.1759  0.7177
10176TIP3   OH252018   5.800   1.026  12.155 -0.0146  0.2050  0.1110
10176TIP3    H152019   5.716   0.996  12.121 -0.8923  0.0771  2.2304
10176TIP3    H252020   5.784   1.116  12.184  0.3591 -0.0270  1.1024
10177TIP3   OH252021   6.577   2.703  11.360 -0.3387  0.3617  0.3995
10177TIP3    H152022   6.605   2.703  11.451  1.0574  0.7995 -0.0076
10177TIP3    H252023   6.581   2.611  11.334  0.4542  0.3805  0.4405
10178TIP3   OH252024   6.026   1.545   0.969  0.0987  0.4881 -0.0596
10178TIP3    H152025   5.968   1.501   0.906 -1.9928  1.4229  1.1183
10178TIP3    H252026   6.081   1.475   1.003 -1.6626 -0.8677  0.1649
10179TIP3   OH252027   0.458   0.960  11.489  0.2923  0.8961  0.5261
10179TIP3    H152028   0.510   1.029  11.448  0.4544  0.5430  0.1383
10179TIP3    H252029   0.369   0.997  11.493 -0.5016 -0.1752 -3.0498
10180TIP3   OH252030   0.357   1.217  14.987  0.3843 -0.6802  0.6886
10180TIP3    H152031   0.377   1.290  14.928  1.7016 -1.4578  0.1276
10180TIP3    H252032   0.418   1.228  15.060 -0.2277 -0.5675  1.1953
10181TIP3   OH252033   5.301   0.825   0.083 -0.0388  0.1241 -0.3599
10181TIP3    H152034   5.283   0.736   0.052  1.4806 -0.3979  0.1892
10181TIP3    H252035   5.321   0.874   0.004  0.1462 -0.2879 -0.5750
10182TIP3   OH252036   2.807   1.591  16.059  0.1294  0.1316  0.0659
10182TIP3    H152037   2.739   1.587  15.991 -1.1802 -1.1851  1.3796
10182TIP3    H252038   2.876   1.644  16.020 -0.6226 -0.4577 -2.2444
10183TIP3   OH252039   3.197   1.963   4.093 -0.6132 -0.3019  0.0702
10183TIP3    H152040   3.206   1.897   4.162 -0.3733 -1.1531 -0.7667
10183TIP3    H252041   3.166   1.915   4.017 -2.0599  0.8381 -0.1047
10184TIP3   OH252042   6.324   6.370  15.228  0.6371 -0.1137 -0.1179
10184TIP3    H152043   6.251   6.313  15.204 -0.4184  0.1747  2.0857
10184TIP3    H252044   6.283   6.453  15.252  1.7378  0.2700  0.5390
10185TIP3   OH252045   0.724   6.711   0.640  0.2007 -0.1556  0.3628
10185TIP3    H152046   0.673   6.710   0.559  0.6799 -0.2276  0.0571
10185TIP3    H252047   0.816   6.707   0.611  0.3825  0.0043  0.9008
10186TIP3   OH252048   1.132   5.399   5.138 -0.1426 -0.1603 -0.1592
10186TIP3    H152049   1.142   5.320   5.192  0.8301  0.2315  0.2704
10186TIP3    H252050   1.046   5.390   5.098 -1.3414 -0.0197  2.1859
10187TIP3   OH252051   0.944   6.476   5.666 -0.3168  0.0897  0.1015
10187TIP3    H152052   0.983   6.416   5.603 -0.6134  0.4773 -0.4650
10187TIP3    H252053   0.892   6.536   5.612  0.6196  1.3631  0.5613
10188TIP3   OH252054   4.703   0.279  13.094  0.4766  0.1471  0.2738
10188TIP3    H152055   4.743   0.213  13.151  1.2714  0.7876  0.4838
10188TIP3    H252056   4.659   0.340  13.154 -0.5061 -0.3425  0.0641
10189TIP3   OH252057   1.865   0.517  16.893 -0.4918  0.5003 -0.2165
10189TIP3    H152058   1.778   0.483  16.874 -0.5307  0.4441  0.0572
10189TIP3    H252059   1.882   0.490  16.983  0.8974 -1.8042 -1.0694
10190TIP3   OH252060   3.029   1.311  15.916  0.0749 -0.3915  0.0553
10190TIP3    H152061   3.110   1.356  15.940  0.3219 -1.6457  1.7873
10190TIP3    H252062   2.965   1.342  15.980 -0.0842 -1.4652  0.4323
10191TIP3   OH252063   0.264   5.265   1.537  0.0683  0.1726  0.1559
10191TIP3    H152064   0.269   5.173   1.510  0.1409  0.0989  0.4193
10191TIP3    H252065   0.174   5.291   1.515 -0.1381 -0.1305  0.6123
10192TIP3   OH252066   1.764   0.287  15.386  0.2555 -0.0593 -0.2115
10192TIP3    H152067   1.701   0.227  15.426  0.7568  0.4022  1.3137
10192TIP3    H252068   1.810   0.234  15.321  1.5027 -1.7069  1.9129
10193TIP3   OH252069   6.481   4.922  13.378 -0.1066  0.0317 -0.1215
10193TIP3    H152070   6.480   5.017  13.395 -1.1175  0.2735 -1.3066
10193TIP3    H252071   6.396   4.906  13.336 -0.1911 -1.5143  0.5943
10194TIP3   OH252072   1.203   0.698  14.836 -0.3450  0.2529 -0.5552
10194TIP3    H152073   1.138   0.750  14.788 -0.7374  0.0620 -0.2381
10194TIP3    H252074   1.153   0.622  14.867  0.0860 -0.0079 -0.5025
10195TIP3   OH252075   1.050   2.430   5.758  0.0550 -0.2079 -0.8831
10195TIP3    H152076   0.987   2.447   5.828  1.9577  1.5173  0.5499
10195TIP3    H252077   1.093   2.349   5.783  0.5081  0.2375 -0.1677
10196TIP3   OH252078   2.212   5.741   5.517  0.1329 -0.5002  0.0986
10196TIP3    H152079   2.197   5.648   5.499  2.2954 -0.7431 -0.7917
10196TIP3    H252080   2.253   5.742   5.604  0.2000 -0.3904  0.0653
10197TIP3   OH252081   4.378   6.709  15.797 -0.1839  0.2992 -0.7306
10197TIP3    H152082   4.342   6.762  15.725 -1.0012  0.4403 -0.2347
10197TIP3    H252083   4.301   6.671  15.840  0.3301 -0.3168 -0.3296
10198TIP3   OH252084   4.756   2.930  15.441  0.4882 -0.0523  0.3911
10198TIP3    H152085   4.735   3.015  15.403 -0.1298  0.2287  1.3353
10198TIP3    H252086   4.799   2.882  15.370 -2.1119 -0.1622 -1.2328
10199TIP3   OH252087   1.536   5.495   5.200 -0.7596  0.2857 -0.0593
10199TIP3    H152088   1.588   5.493   5.280 -0.1525  0.8365 -0.4305
10199TIP3    H252089   1.463   5.553   5.222 -0.8966 -0.0023  0.2663
10200TIP3   OH252090   0.519   0.546   0.434 -0.3324  0.2086 -0.8330
10200TIP3    H152091   0.520   0.583   0.523  0.9581 -0.4268 -0.5597
10200TIP3    H252092   0.589   0.592   0.388  0.6997 -1.2287 -0.7563
10201TIP3   OH252093   4.099   0.965   3.139 -0.3810 -0.1194  0.0068
10201TIP3    H152094   4.012   0.951   3.175 -0.6754 -0.1177 -0.6842
10201TIP3    H252095   4.095   0.926   3.052  1.0241 -2.2884  0.8210
10202TIP3   OH252096   3.651   4.777   1.308 -0.0547  0.2324 -0.5174
10202TIP3    H152097   3.579   4.838   1.322  0.3932  0.5978  0.2937
10202TIP3    H252098   3.636   4.741   1.221 -0.4164  1.3966 -0.9597
10203TIP3   OH252099   4.084   0.257   2.547  0.0065  0.4471  0.1513
10203TIP3    H152100   4.052   0.189   2.606  1.8103 -0.1313  0.5376
10203TIP3    H252101   4.127   0.320   2.605  0.2493  0.7800 -0.3831
10204TIP3   OH252102   3.859   0.231  16.200 -0.0042  0.1754  0.7884
10204TIP3    H152103   3.948   0.233  16.235  0.1327  0.5149  0.4274
10204TIP3    H252104   3.832   0.323  16.197 -0.1654  0.1185  0.3832
10205TIP3   OH252105   5.572   0.593   5.069 -0.5271 -0.6154  0.4940
10205TIP3    H152106   5.546   0.550   5.150  0.4461 -0.1150  1.0908
10205TIP3    H252107   5.528   0.678   5.073 -0.2886 -0.4977  0.6117
10206TIP3   OH252108   3.834   1.104   6.098 -0.0394 -0.4234 -0.0744
10206TIP3    H152109   3.925   1.133   6.105 -0.2378  0.0631  0.6349
10206TIP3    H252110   3.836   1.014   6.130 -0.0444  0.0936  1.5101
10207TIP3   OH252111   2.676   3.449  10.346  0.3658 -1.0047  0.0598
10207TIP3    H152112   2.751   3.389  10.343  0.6337 -0.6334 -1.1914
10207TIP3    H252113   2.704   3.525  10.295 -0.0699  0.0843  1.3820
10208TIP3   OH252114   1.187   3.959   5.126 -0.3091 -0.7799  0.1312
10208TIP3    H152115   1.282   3.967   5.119 -0.4647  1.4195 -0.2141
10208TIP3    H252116   1.173   3.904   5.203  1.2376 -1.1043  0.2033
10209TIP3   OH252117   4.954   5.076  14.404 -0.3910 -0.2571 -0.7380
10209TIP3    H152118   5.003   4.995  14.420 -0.8094 -0.7280 -1.7675
10209TIP3    H252119   4.975   5.132  14.479  1.9174 -0.3527 -1.2321
10210TIP3   OH252120   2.717   1.238  14.420 -0.0587  0.3564  0.2996
10210TIP3    H152121   2.701   1.167  14.482  0.0115 -0.9279 -1.1105
10210TIP3    H252122   2.747   1.311  14.475 -0.1386 -0.6769  1.7780
10211TIP3   OH252123   1.799   5.169   3.899 -0.2091 -0.6630 -0.0796
10211TIP3    H152124   1.740   5.168   3.974 -0.8690 -0.8425 -0.5906
10211TIP3    H252125   1.884   5.193   3.936 -0.1714 -2.2863  0.9892
10212TIP3   OH252126   1.829   3.078   6.034  0.4396 -0.0203 -0.2333
10212TIP3    H152127   1.896   3.092   5.968 -0.7366  0.0119 -1.4644
10212TIP3    H252128   1.750   3.057   5.984 -0.8872  1.6095  1.0598
10213TIP3   OH252129   3.684   5.114   4.599  0.1200  0.0636 -0.6054
10213TIP3    H152130   3.730   5.080   4.522  1.8026 -1.3402  0.9000
10213TIP3    H252131   3.734   5.191   4.624  1.0509 -0.8080  0.3639
10214TIP3   OH252132   5.611   1.008  17.147 -0.4584  0.5700 -0.1147
10214TIP3    H152133   5.600   1.101  17.129  2.1829  1.1016  0.6021
10214TIP3    H252134   5.694   0.985  17.104 -0.9020 -1.3763 -0.0111
10215TIP3   OH252135   1.954   5.406   1.571  0.1043  0.0375 -0.7811
10215TIP3    H152136   1.916   5.430   1.487 -0.7480 -0.1132 -0.4433
10215TIP3    H252137   2.046   5.388   1.551 -0.1263 -0.1545 -1.7053
10216TIP3   OH252138   5.329   2.881  14.795  1.0740 -0.3830  0.2362
10216TIP3    H152139   5.245   2.874  14.840  1.4083  1.4949  1.2685
10216TIP3    H252140   5.309   2.864  14.703 -0.1160 -1.6162  0.6862
10217TIP3   OH252141   3.672   4.466   5.062 -0.0376  0.0993  0.4306
10217TIP3    H152142   3.691   4.479   4.969 -0.2677 -1.2324  0.1846
10217TIP3    H252143   3.598   4.405   5.063 -1.5187  1.8027  1.4509
10218TIP3   OH252144   2.994   6.691  12.649  0.3881 -0.6272 -0.4369
10218TIP3    H152145   2.940   6.682  12.728 -0.1204 -1.2249 -0.8424
10218TIP3    H252146   3.078   6.723  12.681 -0.1909  0.2754  0.2089
10219TIP3   OH252147   5.080   2.321   0.373  0.1701 -0.3260  0.1747
10219TIP3    H152148   5.071   2.227   0.360  0.0038 -0.1946 -0.7565
10219TIP3    H252149   5.004   2.359   0.328  1.6156  0.3970 -1.7984
10220TIP3   OH252150   5.378   0.993   4.070  0.1728 -0.3556 -0.5491
10220TIP3    H152151   5.344   0.912   4.108 -2.3171 -0.3738 -2.5883
10220TIP3    H252152   5.331   1.063   4.115  0.4158 -0.1694 -0.5822
10221TIP3   OH252153   3.012   1.387  15.086  0.3381 -0.0570  0.2108
10221TIP3    H152154   3.098   1.398  15.045  1.6918  1.2984  3.1291
10221TIP3    H252155   2.987   1.476  15.112 -0.3172 -0.8183  2.3813
10222TIP3   OH252156   4.079   6.310   4.030 -0.4484 -0.3676 -0.3204
10222TIP3    H152157   4.058   6.403   4.021  0.4955 -0.0811  0.2457
10222TIP3    H252158   3.994   6.266   4.036 -0.9251  0.3625 -1.3421
10223TIP3   OH252159   0.150   4.224  16.196  0.2807 -0.0559  0.3534
10223TIP3    H152160   0.158   4.277  16.276  0.2089 -1.6334  1.4475
10223TIP3    H252161   0.217   4.157  16.206 -1.8144 -2.2198  0.6617
10224TIP3   OH252162   1.522   6.099  12.978 -0.0759  0.9411 -0.1120
10224TIP3    H152163   1.492   6.179  12.936 -1.6938  0.8506  0.7902
10224TIP3    H252164   1.444   6.062  13.019  0.9016 -0.3859  0.6633
10225TIP3   OH252165   1.610   0.878   2.024 -0.1071 -0.5829 -0.4912
10225TIP3    H152166   1.588   0.968   2.046  1.6636 -0.1826 -0.1781
10225TIP3    H252167   1.621   0.878   1.929  1.3730 -0.0619 -0.3541
10226TIP3   OH252168   6.597   3.625  15.176  0.4296 -0.3154 -1.0543
10226TIP3    H152169   6.681   3.585  15.154  0.6089 -0.4105 -0.2580
10226TIP3    H252170   6.534   3.584  15.117  0.5202 -2.1748  0.0457
10227TIP3   OH252171   4.789   5.521  10.643  0.7951  0.0629 -0.4321
10227TIP3    H152172   4.851   5.453  10.619  1.5061  0.8596 -0.8732
10227TIP3    H252173   4.714   5.473  10.678  1.2888 -0.9431 -0.7189
10228TIP3   OH252174   3.536   1.970  10.595  0.0378 -0.3376  0.1902
10228TIP3    H152175   3.569   1.989  10.683 -0.0921  1.0180 -0.0395
10228TIP3    H252176   3.520   1.875  10.596 -0.7265 -0.2263  1.8896
10229TIP3   OH252177   0.971   6.527  16.385 -0.2472  0.3194 -0.3310
10229TIP3    H152178   1.029   6.464  16.343  0.5294  0.7980 -0.0025
10229TIP3    H252179   0.976   6.506  16.478 -2.5910 -1.2694 -0.4869
10230TIP3   OH252180   0.808   5.736   5.790 -0.4241  0.0274  0.1575
10230TIP3    H152181   0.808   5.761   5.698  1.1613 -0.8956 -0.1336
10230TIP3    H252182   0.849   5.649   5.791  0.0989  0.2612  1.7987
10231TIP3   OH252183   5.781   1.540  16.099 -0.0355  0.5312  0.0944
10231TIP3    H152184   5.833   1.555  16.177  0.3461 -0.1424 -0.0197
10231TIP3    H252185   5.709   1.483  16.128 -0.3080  0.8725  0.1011
10232TIP3   OH252186   3.473   3.754   3.525 -0.1005  0.5979  0.0251
10232TIP3    H152187   3.426   3.678   3.558  2.2235 -0.9194  0.1035
10232TIP3    H252188   3.503   3.799   3.604  2.1242 -0.8584  0.1099
10233TIP3   OH252189   3.720   1.946   1.941  0.2696 -0.0235 -0.5992
10233TIP3    H152190   3.698   1.877   1.878  0.4056 -0.1510 -0.5073
10233TIP3    H252191   3.666   2.020   1.915 -1.3708 -0.7764  0.5143
10234TIP3   OH252192   1.072   3.676   4.542 -0.5416  0.0725 -0.1295
10234TIP3    H152193   1.137   3.611   4.517 -2.8787 -2.7630  0.5634
10234TIP3    H252194   0.998   3.660   4.484 -1.9236  0.8015  1.3427
10235TIP3   OH252195   1.549   4.973   5.367 -0.1590  0.1552 -0.2199
10235TIP3    H152196   1.553   5.065   5.342 -0.5818 -0.0465 -1.0741
10235TIP3    H252197   1.584   4.926   5.291  0.4524 -0.3681  0.3727
10236TIP3   OH252198   4.140   3.193   3.980  0.0016  0.1934 -0.3843
10236TIP3    H152199   4.049   3.220   3.992  0.2996  1.1462 -0.2276
10236TIP3    H252200   4.175   3.253   3.914  0.8088  0.5210  0.3196
10237TIP3   OH252201   1.927   3.236   3.112 -0.2170 -0.0121  0.4321
10237TIP3    H152202   1.926   3.286   3.031  0.5739 -2.0149 -0.9064
10237TIP3    H252203   1.852   3.268   3.162  0.3075  2.4939 -0.2854
10238TIP3   OH252204   5.506   1.567  13.115 -0.2204 -0.1833  0.4254
10238TIP3    H152205   5.566   1.629  13.156 -0.0247 -0.4437  0.5333
10238TIP3    H252206   5.563   1.508  13.065 -0.5484  1.1103 -1.5759
10239TIP3   OH252207   4.052   1.558  16.381 -0.0322 -0.4624 -0.3260
10239TIP3    H152208   3.999   1.547  16.461 -0.1633 -0.8304 -0.4619
10239TIP3    H252209   4.138   1.583  16.413 -0.3346  0.3173 -0.1089
10240TIP3   OH252210   3.227   4.242   2.426  0.2412 -0.1076 -0.0001
10240TIP3    H152211   3.189   4.254   2.339  2.2598  1.3532 -0.7456
10240TIP3    H252212   3.183   4.164   2.460  0.4707 -1.6810 -2.9317
10241TIP3   OH252213   5.407   6.793  15.586  0.2220  0.0564 -0.4592
10241TIP3    H152214   5.454   6.870  15.556  0.1238  0.7981  1.1976
10241TIP3    H252215   5.328   6.827  15.629 -0.7140 -1.0596 -1.1983
10242TIP3   OH252216   0.051   3.062  13.508 -0.4371 -0.6076 -0.0940
10242TIP3    H152217   0.104   2.983  13.501  0.2796 -0.0744 -0.9279
10242TIP3    H252218   0.023   3.079  13.418  0.7104  0.9318 -0.1994
10243TIP3   OH252219   2.595   3.058  13.669 -0.0149  0.0312  0.0258
10243TIP3    H152220   2.553   3.143  13.683  1.3554  0.4473  2.0810
10243TIP3    H252221   2.556   3.001  13.736 -0.2537 -0.7224 -0.7359
10244TIP3   OH252222   5.378   3.069  13.652 -0.0929 -0.1153  0.4113
10244TIP3    H152223   5.429   3.143  13.685  0.4880 -0.3903  0.1546
10244TIP3    H252224   5.287   3.090  13.675  0.3567 -0.8894  3.4144
10245TIP3   OH252225   3.510   4.287   5.166 -0.1058  0.0987  0.2075
10245TIP3    H152226   3.526   4.296   5.260 -2.5501 -0.1438  0.7185
10245TIP3    H252227   3.516   4.192   5.150  0.9731  0.1971 -0.0483
10246TIP3   OH252228   0.182   5.833  12.909  0.2441 -0.8564 -0.1224
10246TIP3    H152229   0.175   5.766  12.977  0.7252  0.0233  0.8216
10246TIP3    H252230   0.145   5.912  12.949 -1.3579 -0.7972 -1.6050
10247TIP3   OH252231   1.671   0.605  12.790  0.1835 -0.4597  0.3224
10247TIP3    H152232   1.649   0.680  12.846 -0.3257 -0.9227  0.7445
10247TIP3    H252233   1.761   0.623  12.761 -0.0915  0.5485  0.0326
10248TIP3   OH252234   0.837   4.993  11.173 -0.1136 -0.1061  0.4056
10248TIP3    H152235   0.827   5.011  11.079  0.9576 -0.4349  0.2029
10248TIP3    H252236   0.882   4.908  11.176  1.0331  0.5007  1.1749
10249TIP3   OH252237   5.407   5.349  15.977 -0.7296  0.0545  0.0171
10249TIP3    H152238   5.416   5.403  15.898 -1.1154  1.0076  0.6105
10249TIP3    H252239   5.390   5.412  16.047 -0.1565 -0.7610  0.9101
10250TIP3   OH252240   2.765   1.634  15.487 -0.0223 -0.3066  0.2191
10250TIP3    H152241   2.695   1.584  15.528  0.5813 -2.5152 -1.2932
10250TIP3    H252242   2.719   1.705  15.441 -1.1111 -0.8285  0.4589
10251TIP3   OH252243   5.268   2.502   4.532 -0.3206  0.2101 -0.1021
10251TIP3    H152244   5.175   2.516   4.515 -0.3122 -1.1586 -1.5023
10251TIP3    H252245   5.309   2.587   4.517 -1.6754  1.7823  3.8287
10252TIP3   OH252246   2.202   6.276  12.510  0.0954 -0.3155 -0.3938
10252TIP3    H152247   2.261   6.241  12.443  0.0670 -2.0245  0.4196
10252TIP3    H252248   2.123   6.223  12.501 -0.8597  1.0859 -0.6089
10253TIP3   OH252249   4.873   3.338  17.226 -0.2407  0.0665  0.5559
10253TIP3    H152250   4.928   3.392  17.283  0.9809 -0.6325  0.0677
10253TIP3    H252251   4.862   3.389  17.146 -0.2041  0.1524  0.6068
10254TIP3   OH252252   3.568   3.940  13.939  0.2209  0.2024  0.1293
10254TIP3    H152253   3.662   3.935  13.921  0.2343  1.8087 -0.3367
10254TIP3    H252254   3.526   3.907  13.859  0.3718  0.8913 -0.2356
10255TIP3   OH252255   5.453   6.047   1.134  0.5071  0.4273  0.7217
10255TIP3    H152256   5.459   5.953   1.151  0.9879  0.4524  0.7080
10255TIP3    H252257   5.377   6.076   1.183 -1.0818 -0.3894 -1.1184
10256TIP3   OH252258   1.608   2.332   4.441  0.2003  0.6551  0.5390
10256TIP3    H152259   1.603   2.404   4.504  1.0090 -0.3368  1.7929
10256TIP3    H252260   1.613   2.375   4.355  1.0413  2.0841  1.2692
10257TIP3   OH252261   4.405   1.651   4.508  0.1673  0.1361  0.4563
10257TIP3    H152262   4.466   1.579   4.493  0.3556  0.7087 -1.7887
10257TIP3    H252263   4.326   1.627   4.459 -0.0071  1.1440  0.2111
10258TIP3   OH252264   6.808   6.710   1.823 -0.0757 -0.4376 -0.4604
10258TIP3    H152265   6.786   6.799   1.851  1.6952 -0.0699 -0.0684
10258TIP3    H252266   6.788   6.710   1.729 -0.6450  0.1842 -0.3494
10259TIP3   OH252267   0.178   1.830  15.262 -0.1208 -0.1356  0.2041
10259TIP3    H152268   0.236   1.756  15.242  1.3753  1.0842 -0.1614
10259TIP3    H252269   0.228   1.884  15.323 -1.7783 -0.1434  1.6481
10260TIP3   OH252270   4.197   0.644   2.153 -0.0404 -0.1337 -0.0899
10260TIP3    H152271   4.119   0.618   2.104 -0.6844  1.8147 -0.1852
10260TIP3    H252272   4.269   0.597   2.111 -1.1860 -2.3154  0.2848
10261TIP3   OH252273   5.704   2.049   2.698 -0.5333  0.4564 -0.2875
10261TIP3    H152274   5.784   2.065   2.747  0.0354  2.0490 -1.6230
10261TIP3    H252275   5.634   2.051   2.764  0.4767 -1.0174  0.8998
10262TIP3   OH252276   6.668   0.414  12.775 -0.1859  0.2277  0.0961
10262TIP3    H152277   6.585   0.371  12.794  0.3028 -0.6083  0.3647
10262TIP3    H252278   6.644   0.504  12.753 -1.1916 -0.1122 -0.2209
10263TIP3   OH252279   0.797   3.432   5.496 -0.1989 -0.2822 -0.1288
10263TIP3    H152280   0.752   3.422   5.580  0.8578  1.4428  0.7021
10263TIP3    H252281   0.787   3.525   5.474  0.0277 -0.5827 -1.6409
10264TIP3   OH252282   1.642   0.205  16.644 -0.0168  0.4931  0.3082
10264TIP3    H152283   1.652   0.272  16.577  1.2580  0.9497  0.9186
10264TIP3    H252284   1.592   0.247  16.713 -0.6885  0.2596 -0.0309
10265TIP3   OH252285   2.887   4.818   0.104 -0.0582  0.1652  0.2551
10265TIP3    H152286   2.956   4.756   0.126 -1.2771 -0.9627  1.0427
10265TIP3    H252287   2.891   4.825   0.008  1.0406  0.0115  0.2761
10266TIP3   OH252288   0.769   4.673  11.884 -0.2348  0.1179 -0.2778
10266TIP3    H152289   0.816   4.634  11.957 -1.6315 -0.2285  0.4590
10266TIP3    H252290   0.677   4.656  11.901 -0.5470 -2.3526 -3.4328
10267TIP3   OH252291   4.120   4.997  11.092  0.0387  0.6790 -0.0916
10267TIP3    H152292   4.091   5.065  11.152 -0.0931  0.5706 -0.0313
10267TIP3    H252293   4.040   4.949  11.070  0.2720 -0.0618  0.6265
10268TIP3   OH252294   5.650   5.196   6.349 -0.5623  0.4500 -0.5491
10268TIP3    H152295   5.608   5.188   6.434 -1.0716  1.8543 -0.6402
10268TIP3    H252296   5.582   5.233   6.292  0.2293  0.9985 -1.1652
10269TIP3   OH252297   3.795   6.728   5.227 -0.5356 -0.0394  0.4946
10269TIP3    H152298   3.886   6.736   5.199 -0.5103 -0.5525  0.4135
10269TIP3    H252299   3.780   6.805   5.281 -0.3894  0.6274 -0.3865
10270TIP3   OH252300   1.550   5.307  15.711  0.3885 -0.1634 -0.8483
10270TIP3    H152301   1.517   5.293  15.800 -0.7528  0.2983 -1.1816
10270TIP3    H252302   1.615   5.376  15.720 -0.7331  0.8749 -0.5579
10271TIP3   OH252303   1.480   0.097   0.363 -0.2661 -0.4304  0.3451
10271TIP3    H152304   1.538   0.097   0.439  0.5641 -0.1887 -0.2777
10271TIP3    H252305   1.495   0.013   0.320  1.5450  0.6250 -1.2270
10272TIP3   OH252306   2.016   2.654   5.038  0.2029 -0.3439 -0.1502
10272TIP3    H152307   1.957   2.624   4.969  1.6660  0.0826 -1.6481
10272TIP3    H252308   2.009   2.750   5.037 -1.0186 -0.3670  1.4905
10273TIP3   OH252309   2.264   0.472  16.766 -0.2499 -0.4807 -0.2359
10273TIP3    H152310   2.180   0.456  16.723 -1.2715  1.8678  0.7416
10273TIP3    H252311   2.250   0.447  16.857  0.2037 -0.2968 -0.1121
10274TIP3   OH252312   6.807   1.815   1.967 -0.0355 -0.0254  0.2423
10274TIP3    H152313   6.806   1.785   1.876 -0.4753  2.1155 -0.5293
10274TIP3    H252314   6.892   1.856   1.978 -0.4702  0.8775  0.3536
10275TIP3   OH252315   3.144   3.659  15.391 -0.1042 -0.3036 -0.6973
10275TIP3    H152316   3.218   3.716  15.367  1.2387 -0.9078  1.6558
10275TIP3    H252317   3.170   3.572  15.362  0.4580 -0.6296  0.7073
10276TIP3   OH252318   0.336   0.171   5.671  0.0767  0.2099  0.9705
10276TIP3    H152319   0.273   0.212   5.611  0.5572 -0.7235 -0.2037
10276TIP3    H252320   0.421   0.198   5.638  0.3562 -0.5150  1.0888
10277TIP3   OH252321   2.986   6.692   2.556 -0.0898  0.4533  0.1168
10277TIP3    H152322   3.008   6.785   2.553 -1.0412  0.7404  1.3036
10277TIP3    H252323   3.071   6.648   2.567  0.3302  1.1960 -0.0908
10278TIP3   OH252324   0.809   6.482  12.097  0.6506 -0.5572 -0.1561
10278TIP3    H152325   0.739   6.447  12.151 -0.2988 -0.8364 -1.5117
10278TIP3    H252326   0.889   6.448  12.136  0.0207 -0.6081  1.1505
10279TIP3   OH252327   4.154   5.673  16.220  0.0178  0.2364  0.0374
10279TIP3    H152328   4.202   5.625  16.288 -1.0710 -0.1609  0.5358
10279TIP3    H252329   4.080   5.712  16.265  0.4195  1.7331 -0.5354
10280TIP3   OH252330   6.735   1.639  13.716  0.2862  0.4373 -1.0181
10280TIP3    H152331   6.686   1.648  13.635 -0.9711  1.3803 -0.1741
10280TIP3    H252332   6.714   1.551  13.747  1.5637 -0.3218 -2.1799
10281TIP3   OH252333   6.253   5.299   1.713  0.1973 -0.2520 -0.1651
10281TIP3    H152334   6.236   5.206   1.729  3.0224 -1.1119 -1.6862
10281TIP3    H252335   6.341   5.302   1.676 -0.0265  3.0080 -0.7017
10282TIP3   OH252336   4.493   5.712   1.766  0.0880 -0.4972 -0.3317
10282TIP3    H152337   4.441   5.634   1.785 -2.1710  1.1123  0.4782
10282TIP3    H252338   4.488   5.722   1.671 -0.7131 -0.6255 -0.3076
10283TIP3   OH252339   1.248   4.336  13.883  0.2300  0.3627  0.2120
10283TIP3    H152340   1.251   4.425  13.849 -2.0094 -0.1365 -1.5377
10283TIP3    H252341   1.278   4.281  13.810  0.6765 -0.4034  0.9516
10284TIP3   OH252342   4.425   5.125   5.027  0.3364  0.5113 -0.2196
10284TIP3    H152343   4.388   5.043   4.995 -2.0928  1.4719 -0.0816
10284TIP3    H252344   4.447   5.174   4.947 -0.4909  0.6747 -0.3563
10285TIP3   OH252345   3.158   6.561   3.031 -0.1600  0.3275 -0.2368
10285TIP3    H152346   3.227   6.583   3.093  0.3535  0.2832 -0.7743
10285TIP3    H252347   3.079   6.552   3.084  0.7065 -2.1710  0.8226
10286TIP3   OH252348   4.797   6.028  12.911  0.1773  0.0232  0.1050
10286TIP3    H152349   4.721   6.083  12.892 -1.3444 -1.4514  1.6663
10286TIP3    H252350   4.867   6.091  12.929 -1.8044  1.6354  3.0816
10287TIP3   OH252351   3.073   0.970  13.572 -0.2725 -0.1007  0.2576
10287TIP3    H152352   3.074   0.881  13.536 -1.0042 -0.3037  0.7151
10287TIP3    H252353   2.990   1.007  13.543  0.8229  1.1319 -1.5249
10288TIP3   OH252354   3.883   1.192   4.215  0.0546  0.7276  0.3661
10288TIP3    H152355   3.849   1.265   4.268 -0.9946  0.3176  0.2858
10288TIP3    H252356   3.892   1.120   4.276 -0.8002  0.3618  0.0729
10289TIP3   OH252357   2.462   0.687   2.732 -0.1938  0.7633  0.2344
10289TIP3    H152358   2.400   0.711   2.801  0.1277 -1.5820  1.4727
10289TIP3    H252359   2.543   0.667   2.779 -0.1526 -1.5210 -0.6737
10290TIP3   OH252360   2.517   2.128   5.447 -0.7042 -0.1153 -0.2453
10290TIP3    H152361   2.509   2.034   5.432 -1.5441 -0.0689 -0.1048
10290TIP3    H252362   2.578   2.135   5.521 -1.0168 -0.5694  0.0568
10291TIP3   OH252363   2.477   5.508  13.863  0.3125 -0.0468  0.4164
10291TIP3    H152364   2.530   5.487  13.940  1.2470 -0.3163 -0.2907
10291TIP3    H252365   2.430   5.427  13.844  0.1008  0.0118  0.6722
10292TIP3   OH252366   5.198   4.336   3.190 -0.2742  0.1466 -0.1433
10292TIP3    H152367   5.170   4.256   3.145 -0.4700  0.6719 -0.9955
10292TIP3    H252368   5.116   4.382   3.209 -0.1159  0.7429 -0.8341
10293TIP3   OH252369   4.396   5.865  16.699 -0.6549  0.1038 -0.3595
10293TIP3    H152370   4.389   5.830  16.788  0.8926 -2.1347 -1.0292
10293TIP3    H252371   4.457   5.938  16.706 -0.9299  0.2679  0.4729
10294TIP3   OH252372   2.583   6.755   0.423  0.3722  0.0642  0.1207
10294TIP3    H152373   2.588   6.714   0.510  0.5214 -0.8678 -0.3115
10294TIP3    H252374   2.502   6.720   0.385  0.4211  0.2987 -0.2025
10295TIP3   OH252375   1.355   6.351  13.136 -0.2814 -0.5958 -0.0199
10295TIP3    H152376   1.350   6.259  13.110 -1.1814 -0.1044 -1.7121
10295TIP3    H252377   1.329   6.352  13.228  0.2299 -2.0810  0.1585
10296TIP3   OH252378   5.326   2.414  12.818 -0.2537  0.0891 -0.6503
10296TIP3    H152379   5.274   2.434  12.740 -0.6703  1.8575  0.0388
10296TIP3    H252380   5.373   2.495  12.837 -1.8821  0.4894  2.2057
10297TIP3   OH252381   1.678   5.228   6.527  0.5152 -0.0227 -0.2478
10297TIP3    H152382   1.653   5.144   6.488  1.5375  0.4017 -1.8732
10297TIP3    H252383   1.598   5.281   6.521  0.4525 -0.1995 -1.1530
10298TIP3   OH252384   0.385   5.913  15.656  0.4411 -0.0785  0.0745
10298TIP3    H152385   0.347   5.964  15.584 -0.5116 -0.0302  0.6037
10298TIP3    H252386   0.320   5.845  15.674  1.0300 -0.5719  0.3808
10299TIP3   OH252387   3.688   5.952  11.312  0.0730 -0.0400 -0.0021
10299TIP3    H152388   3.705   5.859  11.325  2.0010  0.4207  1.0555
10299TIP3    H252389   3.612   5.954  11.252  0.6554 -2.2644 -0.9225
10300TIP3   OH252390   5.564   5.262   3.746 -0.1398  0.4049  0.5607
10300TIP3    H152391   5.618   5.215   3.810 -0.4652 -0.1912  0.4095
10300TIP3    H252392   5.475   5.233   3.764 -0.1710 -0.1992 -0.5075
10301TIP3   OH252393   0.893   2.846  16.143 -0.2618  0.1472 -0.5474
10301TIP3    H152394   0.808   2.886  16.162 -1.3892 -2.4848  0.4570
10301TIP3    H252395   0.873   2.754  16.124  2.2572 -0.2873 -1.5944
10302TIP3   OH252396   3.265   5.123  11.807  0.1761 -0.2438 -0.2657
10302TIP3    H152397   3.315   5.171  11.741 -0.5912 -0.1259 -0.7826
10302TIP3    H252398   3.220   5.054  11.757  0.0879 -0.5520  0.2327
10303TIP3   OH252399   0.470   4.281   3.148  0.0979 -0.0615 -0.3732
10303TIP3    H152400   0.400   4.278   3.083 -0.9106 -0.6518  0.6874
10303TIP3    H252401   0.483   4.375   3.165 -0.0882  0.0697 -0.9453
10304TIP3   OH252402   5.381   0.081  17.180  0.5498  0.1319  0.5522
10304TIP3    H152403   5.410   0.172  17.179  0.0610  0.5225  4.7160
10304TIP3    H252404   5.459   0.031  17.206  0.7254 -0.6467 -1.3568
10305TIP3   OH252405   3.795   6.532  15.558 -0.6281  0.1994 -0.0952
10305TIP3    H152406   3.780   6.577  15.641 -0.5829  1.4992 -0.7719
10305TIP3    H252407   3.774   6.597  15.491 -3.2930 -1.6131 -1.1915
10306TIP3   OH252408   4.130   3.613  12.301  0.1847  0.4396 -0.0905
10306TIP3    H152409   4.142   3.673  12.227 -1.3418  1.1493  0.1932
10306TIP3    H252410   4.104   3.530  12.262  0.1017  0.6093 -0.3954
10307TIP3   OH252411   4.973   6.536   5.157  0.1739 -0.0918  0.3093
10307TIP3    H152412   4.916   6.465   5.126 -0.1385 -0.2929  1.3102
10307TIP3    H252413   4.921   6.581   5.223  0.7982  0.3710  0.4911
10308TIP3   OH252414   5.179   4.223   4.828  0.3104 -0.7856 -0.5187
10308TIP3    H152415   5.085   4.241   4.818 -0.0367 -0.0939  2.8802
10308TIP3    H252416   5.186   4.127   4.824 -0.8481 -0.9583  0.9661
10309TIP3   OH252417   5.730   5.172   0.081  0.8954 -0.1080  0.1501
10309TIP3    H152418   5.731   5.093   0.028 -0.2898  0.2838 -0.4901
10309TIP3    H252419   5.701   5.143   0.168 -1.7152 -0.1100 -0.6369
10310TIP3   OH252420   5.873   0.202   2.060  0.2083  0.2669 -0.2094
10310TIP3    H152421   5.804   0.268   2.065  1.5859  1.6864  0.7895
10310TIP3    H252422   5.954   0.251   2.047  1.1953 -1.2727 -0.2306
10311TIP3   OH252423   3.400   0.857  14.091  0.0309 -0.4415 -0.4135
10311TIP3    H152424   3.459   0.811  14.151  0.4616  0.7417  0.0985
10311TIP3    H252425   3.374   0.790  14.027  5.3603 -0.2190 -3.3635
10312TIP3   OH252426   5.026   0.244   3.656  0.2501  0.5367 -0.0331
10312TIP3    H152427   5.054   0.319   3.604 -0.9693  1.0456  0.0183
10312TIP3    H252428   4.987   0.282   3.734  0.5298 -0.1884  0.4678
10313TIP3   OH252429   3.101   6.641  16.292 -0.2313 -0.2248 -0.0408
10313TIP3    H152430   3.039   6.713  16.292  1.1435  1.0171 -0.6828
10313TIP3    H252431   3.066   6.579  16.228 -0.9215  0.3390 -0.2220
10314TIP3   OH252432   4.351   5.878  12.305 -0.4955  0.0446 -0.2862
10314TIP3    H152433   4.380   5.958  12.348 -0.3854 -0.1451 -0.0056
10314TIP3    H252434   4.258   5.870  12.329 -0.0751 -0.8607  1.1844
10315TIP3   OH252435   5.875   5.636  10.874 -0.1064 -0.2134 -0.4589
10315TIP3    H152436   5.952   5.657  10.927  0.4731 -1.3342 -0.8141
10315TIP3    H252437   5.819   5.714  10.880  0.2205 -0.0736  1.2842
10316TIP3   OH252438   2.587   0.511   0.464  0.0218  0.7855  0.1828
10316TIP3    H152439   2.525   0.438   0.468  0.3944  0.4605  0.0327
10316TIP3    H252440   2.623   0.507   0.376  1.9848 -0.4656  0.9705
10317TIP3   OH252441   5.163   3.228   3.331  0.6190  0.6719  0.4497
10317TIP3    H152442   5.212   3.274   3.399  1.2379 -0.0114  0.4804
10317TIP3    H252443   5.216   3.151   3.311  0.1213  0.5216 -0.3451
10318TIP3   OH252444   2.216   6.132   5.549  0.0331 -0.0513  0.4736
10318TIP3    H152445   2.245   6.095   5.465 -1.9016 -2.3580  0.7097
10318TIP3    H252446   2.170   6.212   5.525 -1.2525 -1.1178 -0.8216
10319TIP3   OH252447   0.343   2.986   3.233 -0.0471  0.3540 -0.0802
10319TIP3    H152448   0.254   2.973   3.200  0.1544 -1.2967 -0.0605
10319TIP3    H252449   0.331   3.003   3.326 -0.2850 -1.2905  0.2083
10320TIP3   OH252450   2.435   0.460  12.059  0.3298 -0.6702 -0.7253
10320TIP3    H152451   2.357   0.406  12.053  1.1059 -1.8380 -0.5791
10320TIP3    H252452   2.466   0.469  11.969  0.6762 -1.1860 -0.6584
10321TIP3   OH252453   5.980   0.711  12.218  0.7163  0.0157  0.6463
10321TIP3    H152454   6.073   0.701  12.196  0.5001 -0.3198 -0.1684
10321TIP3    H252455   5.979   0.727  12.312  1.6220  0.3456  0.6122
10322TIP3   OH252456   5.558   5.206  11.514  0.0480 -0.4320 -0.0105
10322TIP3    H152457   5.478   5.179  11.559  0.0277 -0.7259 -0.2176
10322TIP3    H252458   5.544   5.298  11.493 -0.9273 -0.8615 -1.4597
10323TIP3   OH252459   6.485   5.234   0.996 -0.4341 -0.2258  0.0528
10323TIP3    H152460   6.432   5.197   0.926  0.9877 -1.3235 -0.4972
10323TIP3    H252461   6.568   5.255   0.954  0.3590 -0.6716  1.3355
10324TIP3   OH252462   5.929   4.795  16.374  0.3620 -0.3415  0.5743
10324TIP3    H152463   6.014   4.813  16.335 -0.4129 -0.0929 -1.0712
10324TIP3    H252464   5.866   4.807  16.303 -1.0268 -0.8790  1.6527
10325TIP3   OH252465   0.099   1.664   1.688  0.6693  0.1639 -0.2834
10325TIP3    H152466   0.050   1.637   1.610 -1.3177 -0.5679  1.1303
10325TIP3    H252467   0.187   1.627   1.675  0.3921  0.0461 -2.1278
10326TIP3   OH252468   6.698   6.237   1.707 -0.0139  0.6731 -0.3887
10326TIP3    H152469   6.654   6.315   1.672 -2.2015 -0.5296 -0.4906
10326TIP3    H252470   6.667   6.165   1.651  3.5351 -0.0926 -1.6277
10327TIP3   OH252471   0.539   5.725  14.593  0.3213 -0.2085  0.3318
10327TIP3    H152472   0.589   5.806  14.588 -2.1242  1.4278  0.3444
10327TIP3    H252473   0.504   5.724  14.682 -0.9840 -0.4087 -0.1613
10328TIP3   OH252474   4.571   5.440  11.218  0.2604 -0.5698  0.5439
10328TIP3    H152475   4.645   5.486  11.179  1.5242 -1.1620  2.1456
10328TIP3    H252476   4.513   5.420  11.144  3.1641 -2.8863 -1.3141
10329TIP3   OH252477   4.874   2.925  14.023  0.3006  0.2947  0.0830
10329TIP3    H152478   4.845   2.975  13.947 -0.0297 -0.7410 -0.4936
10329TIP3    H252479   4.812   2.851  14.028  0.7014  0.0040  0.9789
10330TIP3   OH252480   2.413   5.671  16.294 -0.8146 -0.4840 -0.1937
10330TIP3    H152481   2.418   5.581  16.264 -0.4736  0.4080 -3.1814
10330TIP3    H252482   2.328   5.702  16.264 -0.6794  0.3604  0.2582
10331TIP3   OH252483   4.844   3.779  16.324 -0.0003 -0.4136  0.0435
10331TIP3    H152484   4.905   3.722  16.278  1.6434  0.3039  1.2510
10331TIP3    H252485   4.863   3.765  16.417  1.7044  3.2980  0.4211
10332TIP3   OH252486   5.414   3.669   1.354 -0.1904 -0.2678 -0.7231
10332TIP3    H152487   5.338   3.619   1.324 -0.6145 -0.9400  1.3009
10332TIP3    H252488   5.422   3.741   1.291 -0.5158 -1.9631 -2.8083
10333TIP3   OH252489   5.193   5.239  15.635  0.1460  0.4132 -0.2909
10333TIP3    H152490   5.266   5.178  15.630  0.4270  0.4014  2.5505
10333TIP3    H252491   5.234   5.326  15.636 -0.1127  0.5836 -1.7276
10334TIP3   OH252492   1.860   4.657  13.430 -0.0193 -0.0240 -0.2251
10334TIP3    H152493   1.830   4.680  13.343  0.5531 -1.5303 -0.8531
10334TIP3    H252494   1.952   4.684  13.432  0.0591 -0.2885 -0.2080
10335TIP3   OH252495   5.260   4.613  11.688 -0.4532  0.2834  0.0298
10335TIP3    H152496   5.168   4.613  11.716 -0.6957  0.1699 -0.7334
10335TIP3    H252497   5.292   4.526  11.712 -0.8310 -0.0311 -0.5738
10336TIP3   OH252498   6.774   1.219  16.012 -0.6491 -1.1486 -0.4327
10336TIP3    H152499   6.790   1.129  16.038 -3.2112 -1.3832  0.5188
10336TIP3    H252500   6.693   1.244  16.056  1.1922  2.4544  1.3462
10337TIP3   OH252501   5.992   5.020  14.413 -0.0729  0.3484 -0.2748
10337TIP3    H152502   6.068   5.015  14.471  0.2383 -1.1609 -0.7579
10337TIP3    H252503   6.003   5.102  14.365  0.6361  0.7069  0.4825
10338TIP3   OH252504   3.862   4.665  13.122 -0.5851 -0.0564  0.2783
10338TIP3    H152505   3.933   4.730  13.121 -0.3749 -0.2831 -0.0544
10338TIP3    H252506   3.907   4.581  13.119 -0.8731 -0.1933 -0.6868
10339TIP3   OH252507   2.366   0.159  11.717 -0.2488 -0.0591 -0.0335
10339TIP3    H152508   2.362   0.074  11.674  1.0160 -0.5711  0.7983
10339TIP3    H252509   2.370   0.223  11.646  0.3943 -0.7909 -0.6564
10340TIP3   OH252510   6.683   5.829  12.261 -0.3903 -0.0867 -0.0319
10340TIP3    H152511   6.745   5.862  12.326  1.0949 -0.7187 -1.0485
10340TIP3    H252512   6.653   5.746  12.298 -0.8033  0.3219  0.5654
10341TIP3   OH252513   4.034   6.285   5.433 -0.3290  0.1523 -0.7791
10341TIP3    H152514   4.061   6.338   5.509 -0.4705  1.5130 -1.6377
10341TIP3    H252515   4.115   6.270   5.384 -0.4251  0.3825 -1.0135
10342TIP3   OH252516   5.549   3.436  17.254 -0.6341  0.3084 -0.1086
10342TIP3    H152517   5.480   3.424  17.189 -0.8007  2.1036 -0.3173
10342TIP3    H252518   5.625   3.463  17.203 -0.2127 -0.1243  0.2787
10343TIP3   OH252519   0.282   1.033   1.220 -0.6602  0.5266 -0.5584
10343TIP3    H152520   0.330   0.963   1.176 -0.6499  0.5127 -0.5246
10343TIP3    H252521   0.193   1.025   1.186 -0.4825  0.9872 -1.1399
10344TIP3   OH252522   2.884   0.466  15.082 -0.5390  0.0537 -0.8390
10344TIP3    H152523   2.816   0.421  15.133  0.2099 -0.9456 -0.6958
10344TIP3    H252524   2.838   0.501  15.006 -1.4566  0.5425 -0.0775
10345TIP3   OH252525   6.569   4.465   2.244  0.6082 -0.0903 -0.4293
10345TIP3    H152526   6.504   4.414   2.293  0.0445 -1.6037 -2.5936
10345TIP3    H252527   6.518   4.534   2.202  0.7984  0.1378 -0.2858
10346TIP3   OH252528   4.693   6.426  15.933  0.4843 -0.0317  0.0703
10346TIP3    H152529   4.666   6.516  15.919  0.6417  0.0683  0.3945
10346TIP3    H252530   4.612   6.375  15.926 -0.2254  0.4962  3.1386
10347TIP3   OH252531   3.546   0.773   3.907 -0.3249 -0.5384  0.0174
10347TIP3    H152532   3.458   0.760   3.872  0.0939 -0.2725 -1.1883
10347TIP3    H252533   3.594   0.815   3.836  0.6873 -0.3644  0.7786
10348TIP3   OH252534   1.912   0.641   4.695  0.2770  0.1242  0.2972
10348TIP3    H152535   1.860   0.562   4.684 -0.9188  0.5306  2.4489
10348TIP3    H252536   1.976   0.638   4.624 -1.3544 -1.4486 -1.1837
10349TIP3   OH252537   3.913   5.759  16.896  0.3453  0.4155  0.0168
10349TIP3    H152538   3.902   5.706  16.975 -1.0656  0.3830 -0.1816
10349TIP3    H252539   3.984   5.716  16.848 -1.1298 -1.6662 -0.4200
10350TIP3   OH252540   3.300   3.210   4.068  0.0144  0.0364 -0.4352
10350TIP3    H152541   3.371   3.146   4.075 -1.4460 -1.7101 -0.8068
10350TIP3    H252542   3.241   3.173   4.003 -1.0557  1.6342 -0.4262
10351TIP3   OH252543   0.713   6.753   4.974  0.4006  0.9768  0.9056
10351TIP3    H152544   0.640   6.711   5.020  1.2366  1.0797  2.3802
10351TIP3    H252545   0.750   6.683   4.920 -1.5775  1.2518 -0.9403
10352TIP3   OH252546   2.139   1.478   1.142  0.3935 -0.0438 -0.7181
10352TIP3    H152547   2.177   1.432   1.067  1.3515  2.3993 -1.8629
10352TIP3    H252548   2.117   1.565   1.107  0.4328  1.0191  1.7441
10353TIP3   OH252549   5.705   5.113  13.633 -0.5284  0.3817  0.2747
10353TIP3    H152550   5.749   5.149  13.710 -0.6028  0.2631  0.3734
10353TIP3    H252551   5.738   5.165  13.559  2.0049 -1.5750 -0.0934
10354TIP3   OH252552   3.590   0.073  13.061  0.7295 -0.1575  0.0470
10354TIP3    H152553   3.594  -0.014  13.102  1.5727  0.6209  1.7180
10354TIP3    H252554   3.559   0.130  13.131 -2.4831  0.5372 -1.7284
10355TIP3   OH252555   6.032   5.010  12.269 -0.2737 -0.1466  0.2714
10355TIP3    H152556   6.071   4.940  12.216 -1.5852 -1.6665  1.2121
10355TIP3    H252557   5.960   5.043  12.216 -0.5891 -0.5699  0.4262
10356TIP3   OH252558   4.420   3.703   2.239  0.2232  0.3223 -0.1552
10356TIP3    H152559   4.494   3.665   2.287  0.9519  0.8251 -0.8580
10356TIP3    H252560   4.460   3.763   2.176 -0.8183  0.9989 -0.1982
10357TIP3   OH252561   6.766   0.946  10.857  0.4119 -0.3896  0.4885
10357TIP3    H152562   6.709   0.911  10.788  0.6181 -0.4635  0.3561
10357TIP3    H252563   6.819   0.871  10.885 -1.1723 -0.9393  2.2612
10358TIP3   OH252564   5.905   3.721  15.640 -0.0047  0.7048  0.2525
10358TIP3    H152565   5.822   3.763  15.618  0.2809  1.3090  0.3193
10358TIP3    H252566   5.972   3.776  15.600  0.3732  0.3271  0.3598
10359TIP3   OH252567   4.930   0.346  16.871 -0.2766 -0.7731 -0.4013
10359TIP3    H152568   4.927   0.436  16.903 -2.6387 -1.1318  0.6182
10359TIP3    H252569   4.910   0.353  16.778  1.2911 -0.1299 -0.7094
10360TIP3   OH252570   0.113   3.769   5.981 -0.1657 -0.1627 -0.6626
10360TIP3    H152571   0.162   3.713   6.042  1.9748  1.9564 -0.2844
10360TIP3    H252572   0.059   3.824   6.037  0.6182  0.7029 -0.7186
10361TIP3   OH252573   4.690   1.008  16.801  0.2599  0.1481 -0.0564
10361TIP3    H152574   4.768   0.963  16.769 -0.7443 -0.2795 -2.1067
10361TIP3    H252575   4.721   1.093  16.831  1.3589  0.5684 -2.1981
10362TIP3   OH252576   0.825   1.192   0.249  0.1713  0.3069 -0.0101
10362TIP3    H152577   0.851   1.100   0.245  0.8474  0.3274  2.2614
10362TIP3    H252578   0.729   1.190   0.249  0.1648 -0.5089  1.0062
10363TIP3   OH252579   4.858   3.901  16.591  0.0737  0.3510  0.4022
10363TIP3    H152580   4.808   3.964  16.539 -0.6196 -0.5669 -0.0777
10363TIP3    H252581   4.947   3.906  16.556 -0.2910  0.0560 -0.5785
10364TIP3   OH252582   3.881   6.787  10.881 -0.1272 -0.0204 -0.2598
10364TIP3    H152583   3.946   6.857  10.871  0.8468 -0.7115  0.9611
10364TIP3    H252584   3.870   6.751  10.792  0.8680  0.3630 -0.5457
10365TIP3   OH252585   0.801   6.214  14.613  0.2649 -0.8014  0.4367
10365TIP3    H152586   0.823   6.249  14.700 -0.6874 -2.4519  1.3887
10365TIP3    H252587   0.772   6.291  14.564 -0.1397  0.0434  1.9174
10366TIP3   OH252588   1.806   1.737   1.093  0.7220 -0.6303 -0.1036
10366TIP3    H152589   1.847   1.691   1.019 -0.9670 -0.3092 -1.3014
10366TIP3    H252590   1.731   1.683   1.116 -0.0590  0.4215 -0.1152
10367TIP3   OH252591   1.395   5.113  11.488  0.0880  0.0465  0.4531
10367TIP3    H152592   1.413   5.022  11.512  0.1199 -1.0082 -2.9210
10367TIP3    H252593   1.481   5.154  11.480  0.3148 -0.6177 -1.0149
10368TIP3   OH252594   3.372   4.875   4.362  0.0219  0.4882  0.1604
10368TIP3    H152595   3.370   4.964   4.399  0.3940 -0.1399  1.7439
10368TIP3    H252596   3.451   4.874   4.308  1.1539  0.5384  1.7429
10369TIP3   OH252597   5.121   2.205  15.712 -0.6468 -0.3074  0.0431
10369TIP3    H152598   5.036   2.233  15.747 -0.2976  1.7677 -0.6105
10369TIP3    H252599   5.100   2.156  15.632 -1.2613 -1.0195  0.6293
10370TIP3   OH252600   0.029   3.458   1.357 -0.2814 -0.7164  0.1794
10370TIP3    H152601   0.091   3.427   1.291 -0.0834 -1.8876  0.8818
10370TIP3    H252602   0.065   3.541   1.386 -0.5957  0.0297 -1.4649
10371TIP3   OH252603   3.917   1.179  14.061 -0.1471  0.2926  0.2017
10371TIP3    H152604   3.931   1.243  14.130  0.2620  0.1281  0.2751
10371TIP3    H252605   3.822   1.170  14.055 -0.1842 -0.7320  1.7276
10372TIP3   OH252606   0.250   5.504  11.664  0.5932  0.1177 -0.3656
10372TIP3    H152607   0.221   5.413  11.667 -1.0076  0.5729 -0.7692
10372TIP3    H252608   0.281   5.522  11.752  1.3919 -0.9484 -0.4106
10373TIP3   OH252609   4.743   4.863  16.814  0.0371  0.1566  0.6413
10373TIP3    H152610   4.818   4.917  16.839 -0.0108 -0.2196  1.6370
10373TIP3    H252611   4.780   4.800  16.751  0.5540  0.0221  1.0652
10374TIP3   OH252612   1.665   1.421   0.602 -0.9385  0.9259  0.4451
10374TIP3    H152613   1.714   1.341   0.622  0.6213  2.0384  1.3816
10374TIP3    H252614   1.714   1.462   0.531 -2.7110  0.2545 -1.2388
10375TIP3   OH252615   2.432   6.025  11.422  0.7682 -0.7400 -0.2417
10375TIP3    H152616   2.467   6.113  11.430  0.2825 -0.4632 -0.9643
10375TIP3    H252617   2.436   5.988  11.510  2.2872 -0.5122 -0.1964
10376TIP3   OH252618   4.489   4.222   2.436 -0.0301  0.1539  0.2621
10376TIP3    H152619   4.446   4.207   2.353  0.8903 -1.7416  0.0757
10376TIP3    H252620   4.578   4.251   2.413  0.4127 -0.9240  0.5437
10377TIP3   OH252621   5.371   2.494   5.700  1.0234  0.6250 -0.4166
10377TIP3    H152622   5.373   2.527   5.790  0.2754 -1.9214  0.6256
10377TIP3    H252623   5.441   2.429   5.697 -0.0613 -0.5540 -1.1077
10378TIP3   OH252624   4.042   6.376  14.263  0.4386  0.3802 -0.1535
10378TIP3    H152625   4.060   6.429  14.341 -0.3763  0.1853  0.1742
10378TIP3    H252626   4.004   6.295  14.297 -1.3647  0.8930 -0.8059
10379TIP3   OH252627   2.790   4.716  14.223  0.3225  0.1587 -0.1403
10379TIP3    H152628   2.708   4.713  14.174  0.0439 -0.7905  0.3642
10379TIP3    H252629   2.776   4.657  14.297  1.6797 -0.5229 -0.3938
10380TIP3   OH252630   0.904   4.560   1.726 -0.4872 -0.3180 -0.5311
10380TIP3    H152631   0.907   4.556   1.821  0.2463 -2.0867 -0.5757
10380TIP3    H252632   0.842   4.630   1.706 -0.4457  0.2550  1.2348
10381TIP3   OH252633   5.483   1.220  14.847  0.1005  0.1315 -0.4028
10381TIP3    H152634   5.449   1.137  14.878  0.7259 -0.4430 -1.2243
10381TIP3    H252635   5.500   1.270  14.927 -2.1376  0.2604  0.0543
10382TIP3   OH252636   6.693   3.984   0.251 -0.2267  0.2875 -0.2482
10382TIP3    H152637   6.740   4.056   0.293  0.0349  0.0208 -0.0855
10382TIP3    H252638   6.676   4.016   0.162  0.4943  0.2811 -0.3918
10383TIP3   OH252639   3.906   0.750  10.532  0.6941  0.9620  0.0330
10383TIP3    H152640   3.942   0.674  10.578 -0.1251  1.5213  1.6871
10383TIP3    H252641   3.980   0.785  10.482  1.2332 -0.5526 -0.2999
10384TIP3   OH252642   2.734   3.093   1.741 -0.0263 -0.5656  0.2788
10384TIP3    H152643   2.805   3.142   1.782 -0.7114  0.9783 -0.3105
10384TIP3    H252644   2.768   3.068   1.655 -0.0366 -0.2193  0.1737
10385TIP3   OH252645   3.564   1.439   6.029  0.0898 -0.1454  0.0342
10385TIP3    H152646   3.572   1.504   5.960 -0.1962 -0.0073  0.1292
10385TIP3    H252647   3.514   1.483   6.098 -0.4788 -0.5982 -0.0774
10386TIP3   OH252648   0.345   2.746  15.470 -0.3694 -0.6228 -0.2217
10386TIP3    H152649   0.422   2.799  15.490 -1.1424  0.0669  1.0780
10386TIP3    H252650   0.270   2.802  15.493 -1.2783 -1.2047 -1.6163
10387TIP3   OH252651   0.369   3.798  12.626 -0.2744 -0.1376  0.0431
10387TIP3    H152652   0.437   3.842  12.576  0.9371 -2.0842 -0.1277
10387TIP3    H252653   0.304   3.772  12.561  1.2978 -2.6702 -0.6528
10388TIP3   OH252654   3.443   2.220  15.751  0.3348 -0.0150  0.1859
10388TIP3    H152655   3.506   2.195  15.683  0.6696  1.5871 -0.1242
10388TIP3    H252656   3.438   2.315  15.746 -2.7161 -0.1197 -0.3295
10389TIP3   OH252657   6.421   3.737   4.324 -0.1415 -0.2750  0.0162
10389TIP3    H152658   6.479   3.751   4.249 -0.2868 -0.5646 -0.1509
10389TIP3    H252659   6.341   3.700   4.286 -0.0142 -0.9338  0.3752
10390TIP3   OH252660   0.649   6.270  15.458  0.3295 -0.0137  0.0106
10390TIP3    H152661   0.574   6.318  15.493  1.0569  0.0323  1.5594
10390TIP3    H252662   0.616   6.181  15.445 -0.3728  0.3315 -0.6769
10391TIP3   OH252663   0.407   0.306   0.534 -0.0200 -0.4605 -0.1502
10391TIP3    H152664   0.338   0.355   0.579 -0.8383 -1.9808  0.3015
10391TIP3    H252665   0.476   0.371   0.519 -0.7695  0.6648  1.0471
10392TIP3   OH252666   3.668   3.950  16.592 -0.2315  1.0271  0.6897
10392TIP3    H152667   3.618   3.921  16.667 -0.8660  2.3508  0.8012
10392TIP3    H252668   3.659   4.046  16.592  1.0883  1.1796 -0.1271
10393TIP3   OH252669   2.977   6.365  16.564  0.2469  0.4920 -0.0730
10393TIP3    H152670   2.933   6.449  16.575 -1.8908 -0.4640 -0.8796
10393TIP3    H252671   2.944   6.332  16.480 -0.4742 -2.0121  1.1141
10394TIP3   OH252672   5.358   0.118   6.668  0.1446 -0.3035 -0.1442
10394TIP3    H152673   5.274   0.114   6.714  0.6473  1.2709  0.9489
10394TIP3    H252674   5.376   0.211   6.658  0.6934 -0.5970 -2.4164
10395TIP3   OH252675   4.687   4.835  15.372  0.0125  0.3191  1.1085
10395TIP3    H152676   4.608   4.874  15.336 -1.4195 -1.6497  1.9165
10395TIP3    H252677   4.667   4.822  15.465 -0.3436 -3.7046  0.6617
10396TIP3   OH252678   1.067   2.335  15.558  0.1029  0.1721 -0.3814
10396TIP3    H152679   1.125   2.268  15.524  1.4314  1.5745 -0.9660
10396TIP3    H252680   0.980   2.311  15.525  0.6859 -0.7783 -1.2709
10397TIP3   OH252681   0.029   5.349  14.244 -0.3441 -0.1521  0.8207
10397TIP3    H152682   0.113   5.383  14.213 -1.0259 -0.4242 -1.4532
10397TIP3    H252683   0.021   5.263  14.202 -2.2907  0.3845  0.0381
10398TIP3   OH252684   0.783   5.732  11.418  0.0511  0.8536  0.3611
10398TIP3    H152685   0.848   5.769  11.358 -1.2462  0.3038 -1.4869
10398TIP3    H252686   0.711   5.705  11.361 -0.7205 -0.9041  2.0631
10399TIP3   OH252687   3.119   0.172  14.464 -0.3234  0.0888  0.6055
10399TIP3    H152688   3.198   0.147  14.511 -0.2943 -0.5674  0.2106
10399TIP3    H252689   3.148   0.189  14.375 -0.5600  0.2416  0.5553
10400TIP3   OH252690   2.906   0.660  14.189  1.2342 -0.5076  0.3066
10400TIP3    H152691   2.992   0.678  14.152  1.6582 -0.4882  1.2582
10400TIP3    H252692   2.924   0.602  14.264  0.2729 -1.7958 -0.4152
10401TIP3   OH252693   0.766   2.081  15.206  0.2081  0.1696  0.2139
10401TIP3    H152694   0.829   2.151  15.222  0.9358 -0.2448 -0.7152
10401TIP3    H252695   0.772   2.026  15.285  0.6282  0.4200  0.3642
10402TIP3   OH252696   0.025   2.943   3.861  0.1706  0.3057  0.1084
10402TIP3    H152697  -0.003   2.861   3.901 -1.5201  0.9365  0.2697
10402TIP3    H252698   0.102   2.919   3.809 -0.2092 -1.3463  0.2602
10403TIP3   OH252699   4.346   1.059   3.212 -0.3621 -0.1574  0.2527
10403TIP3    H152700   4.414   0.994   3.229  0.2137  0.8231  2.0233
10403TIP3    H252701   4.269   1.008   3.189  0.9571 -1.2972 -1.9845
10404TIP3   OH252702   1.934   0.966  14.064  0.0091 -0.0207  0.4989
10404TIP3    H152703   1.998   1.037  14.064  1.4117 -1.2474  1.2333
10404TIP3    H252704   1.850   1.010  14.047  1.1606  1.4677 -1.8461
10405TIP3   OH252705   3.282   3.363   1.917  0.0163 -0.2236 -0.4489
10405TIP3    H152706   3.221   3.314   1.974  0.9378 -0.7190  0.1294
10405TIP3    H252707   3.229   3.384   1.840 -0.6946 -1.2842 -0.2815
10406TIP3   OH252708   3.101   5.596   0.403 -0.2792 -0.1758  0.2800
10406TIP3    H152709   3.010   5.614   0.378 -0.4719 -0.4031  0.8065
10406TIP3    H252710   3.141   5.560   0.324 -0.5207  0.3526 -0.0902
10407TIP3   OH252711   0.964   4.689   5.221 -0.1919 -0.5465 -0.1034
10407TIP3    H152712   0.906   4.729   5.285  0.1642  0.6899 -0.5137
10407TIP3    H252713   0.926   4.603   5.203 -1.6403  0.0546 -0.0183
10408TIP3   OH252714   0.712   2.766   4.324 -0.2769 -0.3941 -0.0826
10408TIP3    H152715   0.804   2.788   4.341 -1.2342  2.3141  2.4318
10408TIP3    H252716   0.701   2.679   4.361  1.0439 -0.2704  0.6635
10409TIP3   OH252717   4.501   0.626   5.485 -0.1407 -0.1120  0.0212
10409TIP3    H152718   4.491   0.531   5.483  2.3390 -0.4181 -0.7230
10409TIP3    H252719   4.521   0.646   5.576 -0.7891 -0.2734  0.2036
10410TIP3   OH252720   6.687   1.210  16.969 -0.5923 -0.2252 -0.0966
10410TIP3    H152721   6.781   1.199  16.958 -0.4183 -2.6603  2.4676
10410TIP3    H252722   6.648   1.158  16.898  0.0461 -0.7266 -0.0898
10411TIP3   OH252723   1.744   6.128   0.898 -0.3782  0.1357 -0.8207
10411TIP3    H152724   1.702   6.172   0.825  1.1671  1.3268 -1.0373
10411TIP3    H252725   1.688   6.146   0.973 -0.4589  1.3778 -1.1653
10412TIP3   OH252726   4.173   0.096   2.343 -0.2476 -0.1339 -0.3015
10412TIP3    H152727   4.222   0.024   2.384 -0.8424 -1.5757 -1.9693
10412TIP3    H252728   4.143   0.149   2.416 -1.1925 -2.5255  1.1645
10413TIP3   OH252729   4.479   1.103   0.475 -0.1418  0.1828 -0.3218
10413TIP3    H152730   4.421   1.028   0.487 -0.7164  0.7785  0.7904
10413TIP3    H252731   4.564   1.073   0.509 -0.5216  0.2046  0.6962
10414TIP3   OH252732   4.768   5.734  10.801  0.2978 -0.1820  0.4575
10414TIP3    H152733   4.676   5.724  10.824  0.6534 -2.4112  1.1959
10414TIP3    H252734   4.782   5.672  10.730  0.5115  2.6500 -2.1852
10415TIP3   OH252735   3.122   0.403  12.903  0.6870 -0.4577 -0.5756
10415TIP3    H152736   3.186   0.381  12.971  0.8595 -0.8407 -0.8586
10415TIP3    H252737   3.038   0.404  12.949  0.7750 -0.9228 -0.3969
10416TIP3   OH252738   3.452   1.551   5.222 -0.6291  0.9629 -0.1535
10416TIP3    H152739   3.526   1.529   5.165 -1.7977 -4.3140 -0.1555
10416TIP3    H252740   3.380   1.570   5.161 -0.6830  0.2108 -0.3316
10417TIP3   OH252741   6.251   5.833  13.110  0.1201  0.6709  0.1868
10417TIP3    H152742   6.171   5.809  13.064  0.4438 -1.0841  0.4835
10417TIP3    H252743   6.274   5.756  13.162  2.7937  0.5349 -0.9960
10418TIP3   OH252744   5.881   1.959   3.641  0.2050 -0.6087  1.0632
10418TIP3    H152745   5.887   1.866   3.621  1.7110 -0.8636  2.4553
10418TIP3    H252746   5.796   1.970   3.683 -1.9698 -0.4763 -2.8369
10419TIP3   OH252747   3.000   4.346   2.012  0.1435  0.3033 -0.5078
10419TIP3    H152748   3.042   4.272   2.055  0.7229  0.2508 -1.1532
10419TIP3    H252749   2.914   4.353   2.055  0.6952  0.2466  0.6421
10420TIP3   OH252750   1.876   4.981   0.231  0.4299 -0.0199  0.3810
10420TIP3    H152751   1.872   4.922   0.306  1.9166  0.8334  1.1808
10420TIP3    H252752   1.837   5.062   0.262  1.2915  0.4222  0.3307
10421TIP3   OH252753   6.429   4.645  16.450  0.6369  0.1977  0.2398
10421TIP3    H152754   6.512   4.662  16.495  0.0989 -0.8960  1.7329
10421TIP3    H252755   6.380   4.589  16.511 -0.0901 -1.4771 -1.7818
10422TIP3   OH252756   6.806   1.408  11.010 -0.5564 -0.0116 -0.0218
10422TIP3    H152757   6.747   1.351  10.961 -2.2570  0.4863  1.3208
10422TIP3    H252758   6.795   1.381  11.101 -1.5251  2.4306  0.6887
10423TIP3   OH252759   4.235   1.788   2.344 -0.2022  0.3370 -0.3489
10423TIP3    H152760   4.189   1.767   2.262 -0.4899  0.1320 -0.1335
10423TIP3    H252761   4.295   1.715   2.357 -1.6544 -0.6943  0.7378
10424TIP3   OH252762   1.941   1.671  12.941 -0.6687 -0.0679  0.1301
10424TIP3    H152763   1.999   1.678  12.865  0.8881 -0.1434  1.2577
10424TIP3    H252764   1.931   1.761  12.972  0.5095 -0.2271  1.0820
10425TIP3   OH252765   3.132   2.374   0.250  0.0108  0.0236 -0.4337
10425TIP3    H152766   3.079   2.346   0.176 -0.2147 -0.0505 -0.2456
10425TIP3    H252767   3.169   2.459   0.223 -1.0494  0.5863 -0.1618
10426TIP3   OH252768   4.851   2.910   4.163 -0.1186 -0.1189  0.1407
10426TIP3    H152769   4.845   2.977   4.232 -1.6635  0.2376 -0.3226
10426TIP3    H252770   4.847   2.959   4.081 -0.9064 -0.7528 -0.2087
10427TIP3   OH252771   5.079   1.844  15.769  0.0133 -0.5160 -0.6922
10427TIP3    H152772   5.110   1.864  15.681  1.4404 -0.0128 -0.0977
10427TIP3    H252773   4.984   1.832  15.759  0.2759 -1.4641 -2.4551
10428TIP3   OH252774   0.851   6.304   4.118  0.0871  0.3162  0.0212
10428TIP3    H152775   0.884   6.391   4.139 -1.9901  1.9057 -2.6503
10428TIP3    H252776   0.888   6.284   4.032 -0.6726 -0.7613 -0.0848
10429TIP3   OH252777   6.526   6.131   3.871  0.5320 -0.4402  0.1478
10429TIP3    H152778   6.583   6.090   3.937  0.4342  1.7733  1.7470
10429TIP3    H252779   6.586   6.178   3.814  0.5242  3.2718  2.7967
10430TIP3   OH252780   6.399   5.251  14.329 -0.4752 -0.1594  0.5168
10430TIP3    H152781   6.320   5.269  14.379  0.1782 -0.7899  1.8272
10430TIP3    H252782   6.462   5.219  14.394  1.9145  3.2191  0.1669
10431TIP3   OH252783   2.202   0.222   2.141 -0.2831 -0.5562  0.3081
10431TIP3    H152784   2.135   0.166   2.180 -1.0628 -1.4191 -2.1032
10431TIP3    H252785   2.153   0.280   2.083  1.0028 -0.7964 -1.0553
10432TIP3   OH252786   2.095   4.342  15.608 -0.1368 -0.5103  0.0547
10432TIP3    H152787   2.145   4.332  15.689 -1.9614 -0.4107  1.2324
10432TIP3    H252788   2.104   4.258  15.563 -1.3337 -1.5498  1.6898
10433TIP3   OH252789   5.497   2.834   0.452 -0.4664  0.3903  0.3397
10433TIP3    H152790   5.413   2.790   0.447 -0.2534 -0.0126  0.2325
10433TIP3    H252791   5.561   2.763   0.449 -0.1419  0.6289  1.2962
10434TIP3   OH252792   1.935   5.568   2.553  0.6314 -0.3454 -0.2467
10434TIP3    H152793   2.008   5.628   2.541 -0.7684  1.2055 -1.5976
10434TIP3    H252794   1.927   5.522   2.470 -0.5295  0.2447 -0.4807
10435TIP3   OH252795   5.550   2.272  16.020 -0.1902  0.3724  0.0268
10435TIP3    H152796   5.457   2.248  16.018 -0.3618  0.9320 -2.8159
10435TIP3    H252797   5.573   2.286  15.928  3.1810 -1.4151  0.4627
10436TIP3   OH252798   6.777   3.758  11.334  0.1586 -0.6517 -0.7521
10436TIP3    H152799   6.697   3.808  11.317  0.7194  0.2356 -0.8250
10436TIP3    H252800   6.827   3.765  11.252  2.2489  2.4617  0.5890
10437TIP3   OH252801   3.121   6.194   0.053 -0.2589 -0.3498 -0.0745
10437TIP3    H152802   3.202   6.144   0.067 -0.2762 -0.5451 -0.6312
10437TIP3    H252803   3.051   6.134   0.079 -0.1958  0.0712  1.0829
10438TIP3   OH252804   3.578   5.051  15.002 -0.5129  0.0823 -0.1454
10438TIP3    H152805   3.486   5.030  14.986 -0.6981  0.8967 -0.1801
10438TIP3    H252806   3.579   5.146  15.017  0.4797  0.3069 -1.3835
10439TIP3   OH252807   2.726   4.485   3.263  0.6562  0.5513  0.5791
10439TIP3    H152808   2.756   4.565   3.221  0.6387 -0.2259 -0.9805
10439TIP3    H252809   2.655   4.513   3.320  0.4730  1.6048 -0.1377
10440TIP3   OH252810   2.329   0.690  12.325 -0.1024 -0.3196 -0.1592
10440TIP3    H152811   2.414   0.647  12.336 -0.1546 -0.2891  0.4327
10440TIP3    H252812   2.296   0.699  12.415 -1.3103 -1.4989 -0.4525
10441TIP3   OH252813   4.604   0.079   5.758  0.1958 -0.5321 -0.4699
10441TIP3    H152814   4.678   0.131   5.789 -0.9998  1.0473 -0.1481
10441TIP3    H252815   4.585   0.113   5.671 -2.0726  1.3035  0.6447
10442TIP3   OH252816   1.083   0.284   4.088 -0.4296 -0.6191  0.4405
10442TIP3    H152817   1.103   0.206   4.140 -1.8029 -2.6874 -1.9231
10442TIP3    H252818   1.004   0.261   4.040 -1.8999  2.9181  0.8747
10443TIP3   OH252819   4.485   0.653   3.095 -0.5804 -0.1422 -0.4718
10443TIP3    H152820   4.455   0.663   3.004 -0.5112 -0.3875 -0.5224
10443TIP3    H252821   4.505   0.560   3.103 -0.5405 -0.1112 -0.2177
10444TIP3   OH252822   5.331   5.773   2.187  0.1993  0.1217 -0.2319
10444TIP3    H152823   5.397   5.795   2.120  0.9313  0.1783  0.4914
10444TIP3    H252824   5.318   5.855   2.235  0.7666 -0.2646  0.6112
10445TIP3   OH252825   0.945   6.175  11.232 -0.5424  0.3482  0.4261
10445TIP3    H152826   1.026   6.124  11.236 -0.1138  0.7382 -1.8547
10445TIP3    H252827   0.880   6.120  11.274 -0.0793 -2.1176 -1.7729
10446TIP3   OH252828   4.394   5.823   0.134  0.8102  0.2714 -0.6100
10446TIP3    H152829   4.458   5.882   0.095 -0.7653  1.5642 -1.3690
10446TIP3    H252830   4.380   5.755   0.069  1.5262 -0.1396 -0.3520
10447TIP3   OH252831   5.920   4.316  14.007  0.1121 -0.0125  1.0358
10447TIP3    H152832   5.955   4.327  14.096  3.2094 -2.2350  0.2356
10447TIP3    H252833   5.948   4.229  13.981 -1.0698  0.4063 -2.0172
10448TIP3   OH252834   6.200   3.692   1.143 -0.3951 -0.5740  0.3455
10448TIP3    H152835   6.244   3.651   1.068  0.7590  0.2756  0.5408
10448TIP3    H252836   6.162   3.618   1.192 -3.2768 -1.0591 -2.2812
10449TIP3   OH252837   2.215   4.739   0.659 -0.2222  0.5747 -0.3464
10449TIP3    H152838   2.133   4.692   0.647 -0.4550  1.3052 -1.7357
10449TIP3    H252839   2.283   4.679   0.628 -0.4210  0.7103 -1.0623
10450TIP3   OH252840   2.389   3.111  10.807  0.5570 -0.0340 -0.0447
10450TIP3    H152841   2.456   3.145  10.747  0.3279 -0.7233 -0.7081
10450TIP3    H252842   2.310   3.161  10.787  0.8447  0.7720  0.7310
10451TIP3   OH252843   0.874   4.070  13.421  0.4362  0.9776  0.1477
10451TIP3    H152844   0.813   4.143  13.411  0.2555  0.9889  1.2377
10451TIP3    H252845   0.824   4.003  13.468 -0.2793 -0.9336 -3.0145
10452TIP3   OH252846   4.216   6.585  14.911 -0.0114 -0.0400  0.7178
10452TIP3    H152847   4.269   6.615  14.837  0.6886 -1.2285  0.7257
10452TIP3    H252848   4.184   6.666  14.951  2.0743  0.7558  0.9178
10453TIP3   OH252849   2.024   4.559  15.061 -0.2764 -0.1131 -0.2113
10453TIP3    H152850   2.037   4.486  15.000 -2.2070 -0.0245 -0.7874
10453TIP3    H252851   1.968   4.620  15.014  1.6380  2.0097  0.1088
10454TIP3   OH252852   3.051   1.685   5.603  0.2768  0.1604  0.2787
10454TIP3    H152853   3.040   1.781   5.601 -2.1019 -0.0515 -0.0718
10454TIP3    H252854   3.010   1.659   5.686  1.9542 -0.4917  0.9344
10455TIP3   OH252855   5.576   1.479   6.052  0.2048 -0.3314  0.2830
10455TIP3    H152856   5.528   1.408   6.095 -0.2534  0.6568  1.4497
10455TIP3    H252857   5.632   1.435   5.987 -2.4765 -1.5154 -1.3815
10456TIP3   OH252858   4.073   6.407   2.057 -0.6134 -0.3843 -0.1153
10456TIP3    H152859   4.032   6.459   1.988  0.7440 -0.4747 -1.0391
10456TIP3    H252860   4.002   6.353   2.093 -1.1370 -1.2989 -2.3378
10457TIP3   OH252861   1.050   3.590  11.634 -0.5828  0.0972  0.3585
10457TIP3    H152862   1.145   3.597  11.643 -0.5236  1.1865 -0.8576
10457TIP3    H252863   1.016   3.653  11.697 -0.4560  0.6045 -0.0736
10458TIP3   OH252864   4.154   3.733   0.557 -0.2688 -0.3977 -0.1265
10458TIP3    H152865   4.182   3.669   0.622 -1.1725 -0.6762  0.0014
10458TIP3    H252866   4.102   3.683   0.494  0.1100 -0.0243 -0.7487
10459TIP3   OH252867   0.365   5.379   3.892  0.1875 -0.0515 -1.0033
10459TIP3    H152868   0.332   5.301   3.938  1.3767 -0.1157 -0.2245
10459TIP3    H252869   0.286   5.422   3.859 -0.8122  0.3424  1.6558
10460TIP3   OH252870   4.578   2.024  11.753 -0.0798  0.3041 -0.0726
10460TIP3    H152871   4.497   2.064  11.722  0.1497  1.2325  0.4819
10460TIP3    H252872   4.561   1.930  11.750 -1.4965  0.4969  0.8566
10461TIP3   OH252873   0.541   4.622   1.744  1.0455  0.3314 -0.0177
10461TIP3    H152874   0.478   4.680   1.702  1.1716  0.4672 -0.0165
10461TIP3    H252875   0.564   4.559   1.676  0.3223 -0.1921  0.2004
10462TIP3   OH252876   0.727   0.686   0.131  0.6440  0.2178  0.3800
10462TIP3    H152877   0.684   0.736   0.061 -0.9757 -0.2635  0.9807
10462TIP3    H252878   0.655   0.644   0.178  1.6504  0.7105  2.4977
10463TIP3   OH252879   1.607   0.136  17.065 -0.0604 -0.0400 -0.8215
10463TIP3    H152880   1.656   0.108  16.988 -0.6063 -0.9804 -0.8426
10463TIP3    H252881   1.561   0.057  17.095 -0.5084  0.5022 -0.0213
10464TIP3   OH252882   1.399   1.460   1.811  0.0841 -0.2511 -0.1507
10464TIP3    H152883   1.459   1.417   1.751  0.9439 -0.0335  0.5327
10464TIP3    H252884   1.446   1.539   1.840  0.2465 -1.0133  1.7993
10465TIP3   OH252885   3.491   1.060   2.487  0.6783 -0.6753 -0.1616
10465TIP3    H152886   3.576   1.092   2.517  0.0727  1.0372 -0.1897
10465TIP3    H252887   3.428   1.123   2.521 -0.2524  0.1839 -3.1644
10466TIP3   OH252888   0.910   2.157  16.993  0.1679  0.2250 -0.3433
10466TIP3    H152889   0.978   2.121  16.937  0.0760  1.3647 -1.2051
10466TIP3    H252890   0.900   2.248  16.965 -0.7096  0.4866  0.7269
10467TIP3   OH252891   5.900   3.679   1.153 -0.4497 -0.3846 -0.1176
10467TIP3    H152892   5.900   3.673   1.248  1.5193 -1.4230 -0.1378
10467TIP3    H252893   5.931   3.768   1.134 -0.2933 -0.3699  0.2030
10468TIP3   OH252894   2.746   5.340  16.099 -0.1399 -0.5046  0.4502
10468TIP3    H152895   2.735   5.435  16.100 -0.4585 -0.5401  1.3288
10468TIP3    H252896   2.823   5.325  16.043  0.1819  0.2979  0.6617
10469TIP3   OH252897   3.945   5.743  14.666  0.1703 -0.1829  0.1020
10469TIP3    H152898   3.876   5.772  14.725 -1.2613  2.3448 -2.5616
10469TIP3    H252899   3.913   5.661  14.630  0.1319 -0.6992  1.2559
10470TIP3   OH252900   4.239   5.952   5.400  0.0071  0.6513 -0.3908
10470TIP3    H152901   4.273   5.959   5.311 -0.2064 -0.2927 -0.5477
10470TIP3    H252902   4.318   5.951   5.455  0.1193  2.7950 -0.4207
10471TIP3   OH252903   1.874   3.412  13.005 -0.2107 -0.2226 -0.4139
10471TIP3    H152904   1.952   3.365  12.977  0.1804  0.6601 -0.8713
10471TIP3    H252905   1.831   3.354  13.067  0.2768 -1.1438 -0.9265
10472TIP3   OH252906   0.009   3.974   2.623 -0.3131 -0.6792  0.0162
10472TIP3    H152907   0.050   3.934   2.546 -1.5733  2.3973 -2.4435
10472TIP3    H252908  -0.082   3.987   2.598 -0.2197  2.7238  0.9587
10473TIP3   OH252909   1.436   3.408  13.429  0.0611 -0.1772 -0.0282
10473TIP3    H152910   1.450   3.362  13.346  0.6829 -0.3403  0.1695
10473TIP3    H252911   1.374   3.478  13.407  0.2140 -0.2268 -0.6288
10474TIP3   OH252912   2.222   1.839   3.286 -0.5976  0.2177  0.3987
10474TIP3    H152913   2.307   1.883   3.299 -0.7192  0.2105  1.2273
10474TIP3    H252914   2.182   1.837   3.373 -1.7397  0.7993 -0.0999
10475TIP3   OH252915   0.378   6.396  13.367 -0.0702 -0.4649 -0.5681
10475TIP3    H152916   0.286   6.375  13.354 -0.3822  0.5555 -0.0595
10475TIP3    H252917   0.382   6.492  13.369  0.8236 -0.4994  0.6077
10476TIP3   OH252918   5.096   3.495  14.487  0.0154  0.4924  0.6031
10476TIP3    H152919   5.174   3.472  14.537  0.1539  1.9733  1.1251
10476TIP3    H252920   5.053   3.412  14.470  1.5272 -0.3283  0.5936
10477TIP3   OH252921   0.654   4.429  11.269 -0.3449  0.6818 -0.9708
10477TIP3    H152922   0.656   4.339  11.236  0.9993 -0.2440  1.3909
10477TIP3    H252923   0.570   4.435  11.315  0.1945  0.0879  0.1367
10478TIP3   OH252924   5.982   1.856   3.296 -0.0613 -0.1745 -0.2212
10478TIP3    H152925   6.035   1.839   3.374  0.5788  0.2943 -0.5394
10478TIP3    H252926   5.998   1.780   3.240 -0.8590 -0.7183  0.2696
10479TIP3   OH252927   5.512   3.842  15.019 -0.0628  0.2559  0.1549
10479TIP3    H152928   5.562   3.804  14.947 -2.1942 -0.7167 -0.8964
10479TIP3    H252929   5.428   3.867  14.980 -0.8434  0.8021  2.0450
10480TIP3   OH252930   1.258   1.143   3.281 -1.2651  0.3820  0.0745
10480TIP3    H152931   1.200   1.207   3.241  1.1774  0.8346 -3.1395
10480TIP3    H252932   1.315   1.195   3.338 -0.6222  0.7899 -0.9202
10481TIP3   OH252933   5.870   5.346  14.382 -0.0023 -0.2393 -0.3778
10481TIP3    H152934   5.829   5.420  14.337  0.8852 -0.0688 -0.9411
10481TIP3    H252935   5.950   5.329  14.331  0.8534 -0.2723  0.9216
10482TIP3   OH252936   1.458   6.341  16.683 -0.8102 -0.9530 -0.5913
10482TIP3    H152937   1.472   6.336  16.589 -0.0098  2.5559 -0.7993
10482TIP3    H252938   1.368   6.373  16.691  0.1775  2.1489 -0.4578
10483TIP3   OH252939   5.734   0.720   6.173  0.3212 -0.3079 -0.4260
10483TIP3    H152940   5.670   0.733   6.243 -4.2348 -1.1002 -3.9634
10483TIP3    H252941   5.750   0.626   6.172  0.5215 -0.2747 -0.3450
10484TIP3   OH252942   5.832   0.186   5.602 -0.2412 -1.0375  0.3075
10484TIP3    H152943   5.811   0.220   5.689  1.2541  0.9567 -0.0126
10484TIP3    H252944   5.747   0.173   5.560 -1.1121 -3.9825  2.6426
10485TIP3   OH252945   3.644   4.969   3.976  0.8339  0.4503 -0.0607
10485TIP3    H152946   3.626   5.054   3.938 -1.9341  0.7462  1.6545
10485TIP3    H252947   3.561   4.941   4.014  1.2866 -3.5968 -1.5411
10486TIP3   OH252948   3.690   1.649   1.157 -0.1464 -0.2389  0.5297
10486TIP3    H152949   3.748   1.581   1.191 -0.7476 -0.1184  1.8825
10486TIP3    H252950   3.607   1.635   1.203 -0.6079  0.7603  0.0426
10487TIP3   OH252951   6.436   0.616   1.433  0.1825 -0.3258  0.0238
10487TIP3    H152952   6.446   0.555   1.360 -0.4514 -0.0955 -0.2688
10487TIP3    H252953   6.341   0.624   1.444  0.2283  1.3027 -0.5435
10488TIP3   OH252954   2.779   0.047   0.613 -0.0354 -0.5221  0.7095
10488TIP3    H152955   2.744   0.014   0.531  1.0555  0.1900 -0.0753
10488TIP3    H252956   2.850  -0.013   0.635  1.0960  0.5066 -0.0348
10489TIP3   OH252957   5.369   4.699   6.429 -0.3407 -0.5183  0.4590
10489TIP3    H152958   5.419   4.748   6.363 -0.6789  2.5542  2.3160
10489TIP3    H252959   5.278   4.716   6.407 -0.4863 -1.0072  0.6804
10490TIP3   OH252960   6.473   4.384  13.129  0.2502 -0.2471  0.5327
10490TIP3    H152961   6.414   4.316  13.096 -3.6103  1.9037  2.2714
10490TIP3    H252962   6.522   4.413  13.052 -0.5741 -2.5283 -0.9562
10491TIP3   OH252963   5.094   6.637  16.677  0.1713  0.8404  0.2389
10491TIP3    H152964   5.162   6.682  16.726 -0.0185  1.2056  0.1707
10491TIP3    H252965   5.013   6.654  16.726  0.2619 -0.3921  0.8543
10492TIP3   OH252966   1.055   5.921  16.757 -0.0882  0.5635 -0.7200
10492TIP3    H152967   1.145   5.894  16.776 -0.6699 -0.1483  1.3450
10492TIP3    H252968   1.042   5.898  16.665  2.0934  1.4984 -1.3275
10493TIP3   OH252969   5.159   0.425  14.893  0.0161  0.4660  0.1198
10493TIP3    H152970   5.180   0.341  14.853  0.6555  0.1794  1.0327
10493TIP3    H252971   5.064   0.423  14.905 -0.2059  0.5747 -1.3682
10494TIP3   OH252972   5.274   2.701   0.585 -0.4951 -0.3040  0.6503
10494TIP3    H152973   5.360   2.725   0.619  0.1289  2.2689 -2.2773
10494TIP3    H252974   5.266   2.607   0.605  1.6616 -0.0076  3.5159
10495TIP3   OH252975   6.062   1.190   5.757 -0.1518  0.1687 -0.1661
10495TIP3    H152976   6.158   1.201   5.760  0.1569 -2.0186 -0.5726
10495TIP3    H252977   6.041   1.153   5.843 -0.9208  2.2341  0.5924
10496TIP3   OH252978   1.946   0.615  14.608  0.2986 -0.0007 -0.2919
10496TIP3    H152979   1.851   0.611  14.597 -0.0868  1.4215  1.9189
10496TIP3    H252980   1.979   0.638  14.521 -1.4184 -0.0638 -0.9976
10497TIP3   OH252981   2.837   5.928   2.790 -0.4521 -0.2441  0.3301
10497TIP3    H152982   2.851   6.021   2.776 -0.0251 -0.4010 -0.2951
10497TIP3    H252983   2.749   5.911   2.758 -0.1725 -0.2400 -0.4453
10498TIP3   OH252984   3.411   4.947  13.296 -0.3779 -0.0676 -0.1579
10498TIP3    H152985   3.331   4.949  13.243 -0.4609 -2.2743 -0.1822
10498TIP3    H252986   3.479   4.920  13.235  0.4344  1.8230 -0.1420
10499TIP3   OH252987   2.893   5.705   1.530  0.5637 -0.1613 -0.6532
10499TIP3    H152988   2.976   5.666   1.558  0.5267 -0.6318 -1.1939
10499TIP3    H252989   2.876   5.772   1.596  2.8091  1.9240 -2.0060
10500TIP3   OH252990   4.267   5.628  14.065 -0.4965 -0.7066 -0.3951
10500TIP3    H152991   4.181   5.635  14.107  0.1914  0.7172  0.8658
10500TIP3    H252992   4.292   5.718  14.046  1.0390 -1.0346 -0.0665
10501TIP3   OH252993   3.414   0.201  16.675  0.3122 -0.2297  1.0738
10501TIP3    H152994   3.357   0.144  16.624  0.1890  0.6872  0.1543
10501TIP3    H252995   3.453   0.261  16.611 -0.2310  1.2850  2.0874
10502TIP3   OH252996   5.609   5.295  16.551 -0.9386 -0.3686  0.2377
10502TIP3    H152997   5.606   5.208  16.590 -0.1200 -1.1257 -1.2790
10502TIP3    H252998   5.612   5.278  16.456  1.5647  1.1983 -0.0637
10503TIP3   OH252999   5.550   6.215   1.377 -0.1562  0.1255  0.4499
10503TIP3    H153000   5.561   6.144   1.440 -1.8185 -0.1309  0.4866
10503TIP3    H253001   5.561   6.295   1.428  3.4099  0.0274  0.1217
10504TIP3   OH253002   3.005   4.336  14.547 -0.2217  0.5531 -0.4643
10504TIP3    H153003   3.000   4.423  14.587 -1.5765  1.0542 -1.6491
10504TIP3    H253004   2.965   4.278  14.612 -2.3641  1.3487 -1.0055
10505TIP3   OH253005   5.663   3.269  15.686 -0.2614 -0.1139  0.4065
10505TIP3    H153006   5.713   3.222  15.618 -0.0944  2.7414 -1.6159
10505TIP3    H253007   5.575   3.231  15.681  0.3350 -1.5411  0.2441
10506TIP3   OH253008   5.288   5.524  12.104  0.3030  0.0627 -0.8846
10506TIP3    H153009   5.361   5.570  12.144 -0.2279 -1.0292  1.4936
10506TIP3    H253010   5.329   5.458  12.048  1.0780  0.8017 -1.2200
10507TIP3   OH253011   1.086   1.034   5.770  0.2589 -0.2036  0.2884
10507TIP3    H153012   1.163   1.025   5.714 -0.7875 -0.1144 -1.2363
10507TIP3    H253013   1.092   1.123   5.805  0.9888 -0.3038  0.4335
10508TIP3   OH253014   3.808   0.058   3.631  0.4315  0.3823 -0.2978
10508TIP3    H153015   3.775   0.147   3.624  1.9585  0.9559 -0.6742
10508TIP3    H253016   3.835   0.036   3.542 -0.1969 -0.5867 -0.2675
10509TIP3   OH253017   4.793   0.115   0.377 -0.2323  0.4061  0.8122
10509TIP3    H153018   4.809   0.206   0.353  0.1445  0.2849  0.5962
10509TIP3    H253019   4.849   0.099   0.452  1.0918 -0.1620 -0.2505
10510TIP3   OH253020   5.569   2.185  12.241 -0.1410  0.7512  0.1561
10510TIP3    H153021   5.584   2.100  12.200 -2.7806 -0.2358  1.0232
10510TIP3    H253022   5.599   2.249  12.177 -0.4748 -0.8037 -1.6250
10511TIP3   OH253023   2.051   5.045  15.808  0.1860 -0.2781 -0.2041
10511TIP3    H153024   2.010   5.085  15.885  1.2202 -0.1959  0.3233
10511TIP3    H253025   2.143   5.069  15.816  0.4783 -1.1421 -0.9280
10512TIP3   OH253026   3.946   6.764  11.889  0.4766 -0.3352 -0.7326
10512TIP3    H153027   3.965   6.854  11.862 -0.7836 -0.2046 -1.2166
10512TIP3    H253028   3.867   6.740  11.841  1.5302 -2.1873 -1.6298
10513TIP3   OH253029   3.733   6.776   1.875  0.2462  0.9272  0.0706
10513TIP3    H153030   3.695   6.855   1.838  0.9089  1.7968  1.1882
10513TIP3    H253031   3.828   6.793   1.876  0.4266 -0.0165  0.0197
10514TIP3   OH253032   3.484   4.911  11.815  0.3657 -0.0366  0.8146
10514TIP3    H153033   3.494   4.993  11.766  3.6869 -0.9492 -0.3035
10514TIP3    H253034   3.493   4.937  11.906  1.9932  0.8401  0.4474
10515TIP3   OH253035   1.854   5.446   3.403 -0.1601  1.0362 -0.0217
10515TIP3    H153036   1.898   5.408   3.479 -1.9873  0.4431  0.7975
10515TIP3    H253037   1.817   5.372   3.356 -0.6275  1.5306 -0.4567
10516TIP3   OH253038   5.282   1.315  10.899  0.2946  0.5542 -0.0133
10516TIP3    H153039   5.217   1.351  10.839 -1.2030 -1.3215  0.3693
10516TIP3    H253040   5.362   1.310  10.848 -0.3630  1.1272 -1.1304
10517TIP3   OH253041   0.919   0.297   1.796 -0.1537 -0.6246  0.1554
10517TIP3    H153042   0.979   0.354   1.748 -1.5498  0.8233  0.0683
10517TIP3    H253043   0.917   0.216   1.744 -1.1139  0.6486 -1.9124
10518TIP3   OH253044   4.657   4.932  13.087 -0.4597  0.6167  0.3188
10518TIP3    H153045   4.593   4.894  13.027  0.0214  1.4663 -0.7730
10518TIP3    H253046   4.612   4.937  13.171 -1.1522 -0.6032  0.0425
10519TIP3   OH253047   5.753   1.096  16.795 -0.2534  0.1089 -0.0098
10519TIP3    H153048   5.677   1.040  16.780  0.6102 -1.3545  0.7748
10519TIP3    H253049   5.790   1.064  16.877  0.3558  1.7921  0.4120
10520TIP3   OH253050   2.334   2.270   5.785 -0.1259 -0.3339  0.2709
10520TIP3    H153051   2.424   2.304   5.777  0.6354 -1.4157  3.0423
10520TIP3    H253052   2.284   2.344   5.818 -0.9664  1.0207 -3.4848
10521TIP3   OH253053   6.067   6.441  15.058  0.1687 -0.4358 -1.0892
10521TIP3    H153054   6.032   6.364  15.102 -2.6509  0.7263 -1.1029
10521TIP3    H253055   6.086   6.411  14.969 -0.1115 -1.2960 -0.8738
10522TIP3   OH253056   2.256   0.594   0.996 -0.2542 -0.1351 -0.1800
10522TIP3    H153057   2.301   0.676   1.015  0.5532 -0.3851 -0.9270
10522TIP3    H253058   2.289   0.533   1.061 -0.4935  0.0114  0.0792
10523TIP3   OH253059   0.573   5.226   4.419  0.1556  0.6240 -0.5471
10523TIP3    H153060   0.554   5.139   4.454  1.3370  0.2979 -0.6512
10523TIP3    H253061   0.634   5.210   4.347  0.9963  1.5756 -0.0817
10524TIP3   OH253062   2.322   0.213   4.566  0.4376 -0.5696  0.2058
10524TIP3    H153063   2.239   0.165   4.569  0.8226 -1.2332  0.4127
10524TIP3    H253064   2.308   0.281   4.500 -1.0162  0.7583  1.7569
10525TIP3   OH253065   4.767   4.455   3.666 -0.7915  0.2208 -0.6037
10525TIP3    H153066   4.773   4.405   3.585 -0.0682  0.2051 -0.5452
10525TIP3    H253067   4.685   4.504   3.658 -1.6921 -1.2031 -0.5332
10526TIP3   OH253068   5.409   3.416  13.922 -0.0576  0.1322 -0.0269
10526TIP3    H153069   5.442   3.465  13.997  2.8581  0.3492 -1.3005
10526TIP3    H253070   5.421   3.475  13.847 -0.0541 -1.1255 -1.0598
10527TIP3   OH253071   4.485   1.900   1.089  0.8307  0.1778  0.1053
10527TIP3    H153072   4.407   1.948   1.063  0.3016 -1.4415 -1.5451
10527TIP3    H253073   4.519   1.863   1.008  1.9291 -1.1456  1.1051
10528TIP3   OH253074   4.930   3.000  17.188 -0.0210 -0.3537  0.1395
10528TIP3    H153075   4.950   2.907  17.182 -0.4261 -0.4613  0.4261
10528TIP3    H253076   4.970   3.038  17.110  0.8401 -0.6415  0.4224
10529TIP3   OH253077   1.195   0.402   1.848  0.1178 -0.5630 -0.8539
10529TIP3    H153078   1.261   0.436   1.788  0.9390  0.1474  0.3987
10529TIP3    H253079   1.122   0.464   1.842 -0.2502 -1.0698 -1.8611
10530TIP3   OH253080   1.154   0.539  17.111  0.6808  0.3738  0.9412
10530TIP3    H153081   1.110   0.604  17.165  0.3855 -0.5674  1.8566
10530TIP3    H253082   1.166   0.463  17.168  0.4012 -0.6323 -0.2811
10531TIP3   OH253083   2.320   5.897   4.417  0.3205 -0.0148  0.4744
10531TIP3    H153084   2.255   5.847   4.368  0.1365 -1.3913  2.0369
10531TIP3    H253085   2.401   5.889   4.365 -0.1275 -0.4688 -0.1683
10532TIP3   OH253086   2.212   6.794   3.255 -0.1701  0.2144 -0.1495
10532TIP3    H153087   2.149   6.818   3.322 -1.1935  0.9215 -1.3271
10532TIP3    H253088   2.159   6.773   3.178  1.0179  2.1051 -1.5860
10533TIP3   OH253089   1.433   2.068  14.598  0.2300  0.1025  0.5167
10533TIP3    H153090   1.399   2.063  14.508  0.9507  1.4451  0.1458
10533TIP3    H253091   1.380   2.004  14.647 -0.9467  0.1669 -0.6129
10534TIP3   OH253092   1.774   4.049   2.378  0.3910 -0.1422  0.1551
10534TIP3    H153093   1.854   4.017   2.336  0.2404 -0.2645 -0.0401
10534TIP3    H253094   1.792   4.041   2.472 -0.1750 -2.1903  0.1378
10535TIP3   OH253095   0.744   3.557  12.801 -0.2761  0.3100 -0.2507
10535TIP3    H153096   0.681   3.539  12.871  0.7347  0.7977  0.8270
10535TIP3    H253097   0.692   3.560  12.721 -1.6829  1.1319  0.6643
10536TIP3   OH253098   2.706   5.519  15.102 -0.2831 -0.3177  0.3712
10536TIP3    H153099   2.714   5.512  15.197 -0.7513  1.1190  0.5314
10536TIP3    H253100   2.758   5.446  15.068 -1.2443 -1.6905  1.7492
10537TIP3   OH253101   0.023   3.449  12.502 -0.1451  0.4916  0.2238
10537TIP3    H153102  -0.064   3.413  12.522  0.3794  0.1116  2.0272
10537TIP3    H253103   0.076   3.372  12.480  0.0424  0.5819  0.3588
10538TIP3   OH253104   6.281   4.442   0.320 -0.3382  0.2075  0.0695
10538TIP3    H153105   6.257   4.532   0.301  2.6841  1.0301 -0.3599
10538TIP3    H253106   6.207   4.390   0.289 -1.9270  2.4787 -0.1368
10539TIP3   OH253107   4.676   1.980   2.825  0.1104  0.0926 -0.3032
10539TIP3    H153108   4.632   2.064   2.838 -0.3283 -0.2981  0.8717
10539TIP3    H253109   4.762   2.003   2.792  0.0341  1.0191  0.1080
10540TIP3   OH253110   6.119   5.145   4.683 -0.2664  0.4258 -0.1132
10540TIP3    H153111   6.060   5.212   4.720  0.4274  0.3811  1.1516
10540TIP3    H253112   6.189   5.138   4.748  0.7145 -0.1014 -1.2050
10541TIP3   OH253113   4.418   1.193   2.755 -0.0597 -0.4227 -0.3141
10541TIP3    H153114   4.495   1.247   2.737  0.5267 -1.1376 -0.0047
10541TIP3    H253115   4.379   1.177   2.669  0.5849 -0.6936 -0.5632
10542TIP3   OH253116   6.738   6.237   3.230 -0.2725  0.2467 -0.4686
10542TIP3    H153117   6.763   6.155   3.272  1.9764  0.3462 -1.4613
10542TIP3    H253118   6.755   6.222   3.137 -0.4143  1.6386 -0.7385
10543TIP3   OH253119   4.325   0.937   5.287  0.0674 -0.0168  0.7437
10543TIP3    H153120   4.328   1.022   5.331  2.3565  0.8933 -0.9346
10543TIP3    H253121   4.363   0.876   5.350  1.7367  0.9354  0.7316
10544TIP3   OH253122   6.762   6.507   2.311  0.3963  0.3275  0.2059
10544TIP3    H153123   6.722   6.590   2.284  0.6684  0.3324 -0.1950
10544TIP3    H253124   6.698   6.441   2.286  0.0926  0.4307  0.7044
10545TIP3   OH253125   2.605   1.753   1.533  0.3242  0.2273  0.2966
10545TIP3    H153126   2.656   1.673   1.544 -1.0431 -0.8347 -0.7465
10545TIP3    H253127   2.552   1.759   1.613 -0.1500 -0.3739  0.0402
10546TIP3   OH253128   4.332   3.240  13.736 -0.2512 -0.1340  0.1979
10546TIP3    H153129   4.329   3.179  13.662 -0.7661  0.9883 -0.7372
10546TIP3    H253130   4.413   3.289  13.723  1.5425 -2.2470  2.3639
10547TIP3   OH253131   5.827   5.026   2.603 -0.1995 -0.1598  0.1860
10547TIP3    H153132   5.900   4.971   2.573 -0.9578 -1.2595  0.3022
10547TIP3    H253133   5.751   4.994   2.555 -0.4899  1.4817 -0.4933
10548TIP3   OH253134   6.782   0.292  10.411 -0.3461 -0.3875  0.3465
10548TIP3    H153135   6.814   0.214  10.366 -2.4832 -0.9314 -0.3438
10548TIP3    H253136   6.822   0.366  10.364 -0.5431 -1.0121 -0.8316
10549TIP3   OH253137   2.292   0.587   2.238 -0.3661  0.4002  0.7100
10549TIP3    H153138   2.211   0.603   2.190 -0.9837  1.3449  1.9846
10549TIP3    H253139   2.361   0.615   2.179 -0.9047 -0.8960 -0.6044
10550TIP3   OH253140   5.697   2.562   5.936  0.4036 -0.3751 -0.0792
10550TIP3    H153141   5.668   2.623   6.004 -0.2295  0.3744 -0.9800
10550TIP3    H253142   5.716   2.481   5.982 -1.5250 -0.3734  0.7958
10551TIP3   OH253143   4.180   0.297  13.998  0.0021 -0.3431  0.5231
10551TIP3    H153144   4.181   0.358  14.072 -0.2634  0.1191  0.1488
10551TIP3    H253145   4.128   0.341  13.931  2.9441  0.7025 -1.2311
10552TIP3   OH253146   4.973   1.367  17.242 -0.7063 -0.0455  0.1178
10552TIP3    H153147   5.035   1.295  17.240 -1.0931 -0.3723 -0.9723
10552TIP3    H253148   4.960   1.385  17.335  0.2178 -0.6517  0.3831
10553TIP3   OH253149   0.968   0.978  17.200 -0.0567  0.3288 -0.7799
10553TIP3    H153150   0.962   0.909  17.134 -1.4345 -0.1316 -0.2038
10553TIP3    H253151   0.897   1.039  17.177 -0.3026  0.3607  0.0541
10554TIP3   OH253152   2.026   4.588  16.758  0.2045  0.2998 -0.5019
10554TIP3    H153153   2.026   4.493  16.742 -0.3727  0.0020  1.0666
10554TIP3    H253154   1.954   4.601  16.820  1.4126  1.5173  0.6977
10555TIP3   OH253155   0.633   6.316   0.017 -0.5534 -0.5840  0.6066
10555TIP3    H153156   0.569   6.322   0.087  1.0739  0.3673  2.1196
10555TIP3    H253157   0.704   6.374   0.045 -0.0367  0.2133 -2.0810
10556TIP3   OH253158   6.055   0.668   5.129 -0.3123 -0.4773 -0.0125
10556TIP3    H153159   6.016   0.750   5.160 -1.2877 -1.4847  1.6190
10556TIP3    H253160   6.015   0.653   5.043 -0.0809  0.7639 -0.3475
10557TIP3   OH253161   2.224   3.380   4.716  0.0767 -0.0750  0.2936
10557TIP3    H153162   2.266   3.418   4.793 -0.2452 -1.5346  1.2249
10557TIP3    H253163   2.282   3.309   4.689 -0.0883  0.0825 -0.4934
10558TIP3   OH253164   3.241   2.053  15.799 -0.0040 -0.1147 -0.2807
10558TIP3    H153165   3.305   2.118  15.770 -0.2458  0.3075  0.1093
10558TIP3    H253166   3.156   2.090  15.773 -0.2494  0.4064  1.1620
10559TIP3   OH253167   5.188   3.778   6.388  0.0775  0.5715 -0.5813
10559TIP3    H153168   5.228   3.844   6.445 -0.3820  0.2821  0.1006
10559TIP3    H253169   5.094   3.785   6.407 -0.1157  0.6909 -1.5546
10560TIP3   OH253170   4.740   0.016  15.567 -0.2016 -0.4894  0.8174
10560TIP3    H153171   4.783  -0.026  15.641  0.0399  1.4104  1.8215
10560TIP3    H253172   4.790   0.096  15.552 -1.9798  0.6341  0.5282
10561TIP3   OH253173   3.493   5.949  13.297 -0.0780  0.8070 -0.3084
10561TIP3    H153174   3.517   5.910  13.213  0.9520  0.3253  0.1899
10561TIP3    H253175   3.544   5.900  13.361 -3.3130 -1.1313  1.0141
10562TIP3   OH253176   6.100   4.048   5.432 -0.6080 -0.2517  0.5817
10562TIP3    H153177   6.125   4.081   5.345 -0.8811 -2.6315 -0.4957
10562TIP3    H253178   6.167   4.081   5.491  0.0932  0.6857 -0.6875
10563TIP3   OH253179   6.188   0.880  12.842  0.0895 -0.2712  0.4561
10563TIP3    H153180   6.141   0.949  12.795 -0.6287 -0.8665  0.2880
10563TIP3    H253181   6.211   0.816  12.774 -1.4833 -1.4326  0.9625
10564TIP3   OH253182   0.785   6.775  16.046 -0.4339 -0.1910 -0.5697
10564TIP3    H153183   0.874   6.810  16.054 -0.8787  0.6354  1.6493
10564TIP3    H253184   0.757   6.799  15.958 -0.1144  3.7345  0.2462
10565TIP3   OH253185   6.061   1.848  15.365  0.0011 -0.0875  0.4232
10565TIP3    H153186   5.971   1.845  15.398 -0.4675 -1.4245 -0.9128
10565TIP3    H253187   6.078   1.760  15.332  1.7258  0.2171  0.4150
10566TIP3   OH253188   5.333   1.507  15.242 -0.5984 -0.2762 -0.2554
10566TIP3    H153189   5.411   1.507  15.186 -0.7471  0.3784 -0.4743
10566TIP3    H253190   5.324   1.416  15.270 -0.0855 -0.4693 -0.6904
10567TIP3   OH253191   5.575   5.705  12.755 -0.2662 -0.1643 -0.2252
10567TIP3    H153192   5.568   5.732  12.664 -1.3486  0.9158  0.1467
10567TIP3    H253193   5.575   5.609  12.752 -0.2880 -0.1380 -1.3516
10568TIP3   OH253194   3.846   2.724  11.041 -0.0192  0.3269 -0.2398
10568TIP3    H153195   3.856   2.639  11.085  0.7461  1.5875  2.1589
10568TIP3    H253196   3.751   2.732  11.027 -0.1369 -0.7619 -0.1932
10569TIP3   OH253197   2.104   1.558   2.817 -0.3680 -0.0791 -0.0016
10569TIP3    H153198   2.192   1.594   2.814 -0.3269 -0.1463  0.4363
10569TIP3    H253199   2.086   1.532   2.726 -0.1869  0.5274 -0.2139
10570TIP3   OH253200   3.769   0.929  16.527  0.1828 -0.0781  0.7153
10570TIP3    H153201   3.797   1.009  16.572 -1.4777  0.9410  0.0434
10570TIP3    H253202   3.758   0.865  16.597  0.6786  0.5431  1.3802
10571TIP3   OH253203   2.929   2.336  16.360 -0.5445  0.3085  0.3182
10571TIP3    H153204   2.977   2.406  16.403 -0.6900  2.0067 -2.0991
10571TIP3    H253205   2.973   2.256  16.388  0.6593  1.4696  1.8936
10572TIP3   OH253206   1.980   3.773   6.561  0.1008  0.1972  0.1611
10572TIP3    H153207   2.034   3.783   6.483 -0.8083  1.2259 -0.3659
10572TIP3    H253208   1.972   3.678   6.573  0.9237  0.0368 -0.5071
10573TIP3   OH253209   2.771   1.854  15.289  0.0096  0.4189  0.6943
10573TIP3    H153210   2.818   1.913  15.347  1.0208 -0.6895  1.0423
10573TIP3    H253211   2.729   1.911  15.225  2.4365  1.4259 -0.0973
10574TIP3   OH253212   5.647   6.002  13.131  0.3699 -0.0124 -0.3957
10574TIP3    H153213   5.610   6.036  13.212 -0.7089 -1.7950 -0.0873
10574TIP3    H253214   5.572   5.989  13.073  1.1887  1.8183 -1.9577
10575TIP3   OH253215   2.520   0.488  17.289  0.6546 -0.2699  0.5271
10575TIP3    H153216   2.561   0.466  17.373  0.1645  1.9152  1.3916
10575TIP3    H253217   2.427   0.472  17.304  0.5333  0.4082  0.5054
10576TIP3   OH253218   6.729   3.815   1.188  0.1326 -0.2294  0.5268
10576TIP3    H153219   6.775   3.808   1.272  0.8958 -0.8601  0.0653
10576TIP3    H253220   6.762   3.896   1.149 -0.1238 -0.0060  0.7589
10577TIP3   OH253221   6.439   2.645  12.288  0.0999 -0.6473 -0.4581
10577TIP3    H153222   6.519   2.672  12.333 -1.7733  2.4245  1.3453
10577TIP3    H253223   6.443   2.689  12.203 -0.3272  0.8465  0.2590
10578TIP3   OH253224   5.088   3.578   5.684  0.5859 -0.2809 -0.1692
10578TIP3    H153225   5.013   3.561   5.626  0.0316  1.6823 -0.1109
10578TIP3    H253226   5.055   3.559   5.772 -0.3615  1.8400  0.0059
10579TIP3   OH253227   1.094   5.159   2.435  0.2196  0.0285  0.1017
10579TIP3    H153228   1.024   5.113   2.388  1.3940 -1.0474 -0.6482
10579TIP3    H253229   1.171   5.104   2.424  0.8754  0.4486  2.1443
10580TIP3   OH253230   5.813   0.563   1.489  0.1759  0.4526  0.0859
10580TIP3    H153231   5.809   0.547   1.584  0.7144  0.5098  0.1226
10580TIP3    H253232   5.792   0.479   1.450 -2.0067  0.8620  0.2201
10581TIP3   OH253233   2.510   6.474   5.899 -0.0411 -0.6982 -0.2168
10581TIP3    H153234   2.528   6.382   5.884 -1.1663 -0.6763 -2.1369
10581TIP3    H253235   2.589   6.519   5.870 -0.2611 -0.9758 -1.2931
10582TIP3   OH253236   1.463   2.801   0.402  0.6132 -0.0043  0.4298
10582TIP3    H153237   1.525   2.728   0.397 -0.0082 -0.4971 -3.8157
10582TIP3    H253238   1.378   2.760   0.415  0.3802  0.0068 -0.9627
10583TIP3   OH253239   2.822   0.749   1.436  0.3179  0.4959  0.3654
10583TIP3    H153240   2.745   0.805   1.425 -0.0535  0.1428  1.0693
10583TIP3    H253241   2.839   0.713   1.349  0.1645  1.1877  0.0419
10584TIP3   OH253242   6.548   3.007  11.460  0.2701  1.0196 -0.4028
10584TIP3    H153243   6.577   3.030  11.548  2.7317 -3.4830  0.2233
10584TIP3    H253244   6.482   2.939  11.473  1.1322 -0.1848 -1.9938
10585TIP3   OH253245   0.161   1.205  11.486  0.0135 -0.0389 -0.8392
10585TIP3    H153246   0.111   1.135  11.445 -1.6236 -0.0152  0.9887
10585TIP3    H253247   0.160   1.276  11.422 -0.9640 -0.5929 -1.4626
10586TIP3   OH253248   0.660   3.756   0.943  0.8187 -0.5950 -0.2586
10586TIP3    H153249   0.596   3.775   0.874  1.1601  0.7540 -0.2375
10586TIP3    H253250   0.626   3.678   0.986  0.4539 -1.3141 -1.7663
10587TIP3   OH253251   5.022   4.014   4.469  0.5784 -0.3400  0.6524
10587TIP3    H153252   5.093   4.053   4.418  1.6674 -1.1511  1.4966
10587TIP3    H253253   4.944   4.025   4.414  0.7633  3.0782  0.8696
10588TIP3   OH253254   3.647   6.616  11.119 -0.1591 -0.4157  0.0945
10588TIP3    H153255   3.598   6.656  11.190  1.0978 -0.8420  1.2545
10588TIP3    H253256   3.625   6.668  11.042 -1.3131  0.2565  0.8471
10589TIP3   OH253257   4.995   2.033  11.981 -0.4404  0.7335  0.2418
10589TIP3    H153258   5.017   2.010  12.072  1.3505 -1.0015 -0.5445
10589TIP3    H253259   5.039   2.116  11.967  0.8006  0.1511  0.4838
10590TIP3   OH253260   1.894   1.334   5.136  0.2664 -0.4117 -0.4109
10590TIP3    H153261   1.989   1.338   5.147  0.1928  0.1108  0.0332
10590TIP3    H253262   1.882   1.327   5.041  0.7781 -1.4913 -0.4119
10591TIP3   OH253263   4.640   4.596  15.893  0.0855  0.8480  0.3888
10591TIP3    H153264   4.569   4.542  15.928 -0.8392  0.9483 -1.2270
10591TIP3    H253265   4.715   4.578  15.950 -0.5942 -1.0425  0.7372
10592TIP3   OH253266   0.791   1.620  13.808  0.5288 -0.0412  0.0380
10592TIP3    H153267   0.753   1.553  13.751  0.1647  0.3786 -0.2193
10592TIP3    H253268   0.814   1.691  13.750 -1.0640  0.9416  0.5464
10593TIP3   OH253269   5.725   4.608  15.148  0.1284  0.3038 -0.2242
10593TIP3    H153270   5.749   4.694  15.113 -1.9821  1.4118  0.8577
10593TIP3    H253271   5.791   4.591  15.215  0.7899  0.8750 -0.7070
10594TIP3   OH253272   6.671   5.209  14.016  0.0492 -0.2404  0.1908
10594TIP3    H153273   6.687   5.118  13.993  0.5482 -0.6707  2.0831
10594TIP3    H253274   6.577   5.213  14.034 -0.4092  0.1680 -1.9656
10595TIP3   OH253275   3.143   2.918  14.413 -0.1960 -0.1347  0.4203
10595TIP3    H153276   3.070   2.976  14.391 -1.4669 -1.5208  0.8501
10595TIP3    H253277   3.110   2.830  14.395  1.8488 -0.7397 -0.6723
10596TIP3   OH253278   4.631   6.282   4.360 -0.0849  0.1369 -0.3020
10596TIP3    H153279   4.610   6.343   4.289  0.8896  0.9288  0.0689
10596TIP3    H253280   4.596   6.323   4.438 -1.0307 -0.6692 -0.2851
10597TIP3   OH253281   2.439   1.738  16.020  0.1701 -0.2147 -0.6739
10597TIP3    H153282   2.377   1.791  15.971  0.1085  2.1049  1.6514
10597TIP3    H253283   2.525   1.759  15.983 -0.1790 -1.7705 -2.4764
10598TIP3   OH253284   1.479   5.997   6.252  0.5500  0.5430  0.6181
10598TIP3    H153285   1.447   5.913   6.283  0.2654  0.1265 -0.7249
10598TIP3    H253286   1.459   5.997   6.158  0.6609  2.0526  0.5687
10599TIP3   OH253287   3.776   0.376  14.548 -0.1834 -0.3638 -0.2728
10599TIP3    H153288   3.745   0.329  14.471 -0.9159  0.6817 -0.6309
10599TIP3    H253289   3.846   0.321  14.583 -1.2558 -1.9177 -0.4484
10600TIP3   OH253290   0.428   2.523  11.106  0.0428 -0.4600  0.1806
10600TIP3    H153291   0.339   2.492  11.084 -0.4046  0.0552  1.2102
10600TIP3    H253292   0.455   2.573  11.029  0.3382 -2.4122 -1.0698
10601TIP3   OH253293   1.370   3.007   4.655 -0.6141 -0.0917  0.3155
10601TIP3    H153294   1.288   3.029   4.612  0.0245  0.4926 -0.6500
10601TIP3    H253295   1.434   3.000   4.583  0.2698 -0.0702  1.0775
10602TIP3   OH253296   1.611   5.544   0.007 -0.2314  0.8549 -0.1054
10602TIP3    H153297   1.628   5.559  -0.086 -0.2353  1.2298 -0.0479
10602TIP3    H253298   1.529   5.590   0.025 -0.2535  0.7484  0.0722
10603TIP3   OH253299   5.597   2.621  17.274  0.0897 -0.7095  0.2237
10603TIP3    H153300   5.690   2.611  17.255 -0.2577 -0.5744 -1.7571
10603TIP3    H253301   5.587   2.588  17.364  2.0914 -0.3363  0.6251
10604TIP3   OH253302   3.173   2.568  13.205  0.2402  0.0701  0.1237
10604TIP3    H153303   3.093   2.590  13.252 -0.0148  1.6098 -0.9599
10604TIP3    H253304   3.215   2.500  13.259  0.9436  3.0173  3.6409
10605TIP3   OH253305   3.094   0.896  12.974  0.0424  0.2596 -0.6169
10605TIP3    H153306   3.162   0.860  12.917  0.5832  0.5158 -0.1443
10605TIP3    H253307   3.087   0.988  12.949  0.4464  0.4294 -0.1180
10606TIP3   OH253308   5.598   5.349   0.748 -0.2168  0.3266 -0.1722
10606TIP3    H153309   5.588   5.277   0.686 -1.9960  0.6184 -0.2630
10606TIP3    H253310   5.513   5.358   0.790  0.9104  0.1832  2.3283
10607TIP3   OH253311   3.916   2.372  16.708  0.1519  0.1907 -0.1990
10607TIP3    H153312   3.965   2.399  16.785  0.2576 -0.4169 -0.0432
10607TIP3    H253313   3.936   2.278  16.699 -2.5111 -0.5903  1.0089
10608TIP3   OH253314   2.017   0.970  12.275  0.2552 -0.1008 -0.3786
10608TIP3    H153315   2.088   0.958  12.212 -1.0214  1.1130 -2.1581
10608TIP3    H253316   1.995   1.063  12.269 -1.8296 -0.5302 -0.3028
10609TIP3   OH253317   5.659   5.175   5.117  0.1298  0.9281  0.1514
10609TIP3    H153318   5.747   5.146   5.092 -0.4879 -1.3335  0.4316
10609TIP3    H253319   5.674   5.253   5.171  2.0617 -0.0995  1.1911
10610TIP3   OH253320   3.383   3.900  11.633 -0.1120 -0.1596 -0.0024
10610TIP3    H153321   3.442   3.828  11.612 -1.3653 -1.5533  1.0124
10610TIP3    H253322   3.315   3.897  11.565 -0.0079  0.2581 -0.1267
10611TIP3   OH253323   0.296   4.359  15.576  0.1674 -0.1043  0.3721
10611TIP3    H153324   0.207   4.325  15.566  0.3447 -0.8530  1.2276
10611TIP3    H253325   0.334   4.354  15.488 -0.1690 -1.1035  0.2736
10612TIP3   OH253326   2.699   0.628   2.846  0.4727 -0.0912  0.0779
10612TIP3    H153327   2.716   0.585   2.762  3.0244  0.0783  0.4144
10612TIP3    H253328   2.737   0.569   2.911  1.4343  1.2614  0.7937
10613TIP3   OH253329   2.643   2.479  15.646 -0.2243  0.4375 -0.0862
10613TIP3    H153330   2.577   2.461  15.713  0.8353  0.8047  1.0960
10613TIP3    H253331   2.662   2.572  15.656 -0.1749  0.5435 -1.0411
10614TIP3   OH253332   5.675   3.247   1.876 -0.7463 -0.0974 -0.6761
10614TIP3    H153333   5.750   3.198   1.911 -0.9698 -1.0452 -1.4626
10614TIP3    H253334   5.700   3.339   1.885  0.2268 -0.3820 -0.3097
10615TIP3   OH253335   6.816   6.390   2.575 -0.4650 -1.1906  0.3073
10615TIP3    H153336   6.846   6.407   2.486 -0.3559 -2.9513 -0.0341
10615TIP3    H253337   6.736   6.442   2.585 -0.8256 -1.4604 -1.0414
10616TIP3   OH253338   6.704   1.497   1.195 -0.0493 -0.4414  0.0213
10616TIP3    H153339   6.706   1.572   1.135 -0.2923 -1.1203 -0.8514
10616TIP3    H253340   6.722   1.422   1.139  2.4314 -0.8481  1.2253
10617TIP3   OH253341   3.884   2.878   0.558 -0.3145 -0.7196  0.2302
10617TIP3    H153342   3.900   2.813   0.490 -1.0727  0.8884 -1.5648
10617TIP3    H253343   3.790   2.895   0.555 -0.0615  0.8575  0.2520
10618TIP3   OH253344   2.585   2.377  13.907 -0.0968  0.6789  0.2927
10618TIP3    H153345   2.505   2.407  13.863 -1.0653  0.1897  1.6711
10618TIP3    H253346   2.620   2.456  13.949 -0.1524  0.7846  0.1425
10619TIP3   OH253347   0.205   0.238   0.968 -0.2232  0.3471  0.0650
10619TIP3    H153348   0.138   0.259   1.033 -1.1117 -1.6740 -0.1423
10619TIP3    H253349   0.260   0.172   1.011 -0.4346 -0.5305 -0.9724
10620TIP3   OH253350   4.588   1.950   1.321  0.0945  0.5838 -0.3634
10620TIP3    H153351   4.682   1.936   1.326  0.2579  1.5441 -0.4748
10620TIP3    H253352   4.564   1.925   1.232  0.2609  0.4400 -0.3672
10621TIP3   OH253353   5.520   6.134  15.564  0.1998 -0.3788 -0.1288
10621TIP3    H153354   5.524   6.226  15.591  0.8997 -0.2383 -0.6638
10621TIP3    H253355   5.565   6.086  15.634 -1.1702 -0.4688  0.7202
10622TIP3   OH253356   6.686   5.476  11.979 -0.1905 -0.0602  0.6893
10622TIP3    H153357   6.710   5.466  12.071  0.1459  3.2299  1.0719
10622TIP3    H253358   6.732   5.555  11.951  0.9535 -1.7774 -2.8178
10623TIP3   OH253359   4.099   4.778   2.750  0.0459 -0.3290 -1.4350
10623TIP3    H153360   4.009   4.809   2.761  0.2355 -0.1689 -0.2136
10623TIP3    H253361   4.120   4.796   2.658 -0.5756  1.2188 -1.2993
10624TIP3   OH253362   0.956   1.006   3.487 -0.2834 -0.1642  0.7252
10624TIP3    H153363   0.909   1.073   3.438 -3.0077 -1.1355  1.7831
10624TIP3    H253364   0.996   0.951   3.420 -1.7186  0.0199 -0.3342
10625TIP3   OH253365   2.963   5.429  12.696  0.2713 -0.5605 -0.1457
10625TIP3    H153366   2.991   5.519  12.712  1.8274 -0.9831 -0.3801
10625TIP3    H253367   3.040   5.386  12.659 -0.7772 -1.7202 -1.0411
10626TIP3   OH253368   4.160   1.434   0.333 -0.3495  0.6495 -0.8422
10626TIP3    H153369   4.153   1.444   0.428  0.4218  2.0984 -0.9131
10626TIP3    H253370   4.210   1.354   0.321 -0.1307  0.6529 -0.0202
10627TIP3   OH253371   6.733   4.868  15.052  0.3241 -0.2137 -0.1695
10627TIP3    H153372   6.784   4.788  15.043 -0.5413 -1.1027  2.1541
10627TIP3    H253373   6.642   4.838  15.054  0.0545  0.6307  2.1234
10628TIP3   OH253374   6.241   2.777   6.734  0.2405 -0.2648 -0.8049
10628TIP3    H153375   6.244   2.688   6.698 -0.9825 -0.0190 -1.5945
10628TIP3    H253376   6.148   2.800   6.731  0.2197  0.1953  1.5668
10629TIP3   OH253377   5.593   3.927   0.553  0.7144  0.9479 -0.4603
10629TIP3    H153378   5.686   3.948   0.550  0.5969  1.5758  0.1106
10629TIP3    H253379   5.589   3.839   0.589  1.1959  0.0188 -2.5159
10630TIP3   OH253380   4.936   3.953  12.132 -0.0828 -0.1417 -0.6227
10630TIP3    H153381   4.964   4.043  12.121  0.4068 -0.2687 -0.4457
10630TIP3    H253382   5.016   3.901  12.123 -0.5312 -0.6523 -1.9099
10631TIP3   OH253383   0.559   4.173  12.709 -0.0785 -0.4983  0.3190
10631TIP3    H153384   0.550   4.263  12.741  1.6019 -0.6238  1.2500
10631TIP3    H253385   0.565   4.120  12.788  0.7753 -1.2223 -0.2119
10632TIP3   OH253386   3.418   4.926  12.340  0.5820 -0.1034  0.1730
10632TIP3    H153387   3.439   4.951  12.250 -0.1578 -0.7214 -0.1834
10632TIP3    H253388   3.502   4.925  12.385  0.8704  1.0012 -0.3038
10633TIP3   OH253389   5.016   6.800  16.012 -0.1802  0.1428 -0.5225
10633TIP3    H153390   5.066   6.880  16.029 -0.4459  0.2176 -0.0717
10633TIP3    H253391   4.951   6.797  16.082 -0.0181 -0.6040 -0.3929
10634TIP3   OH253392   6.275   5.562  13.828  0.7666 -0.3618  0.2271
10634TIP3    H153393   6.362   5.573  13.866  0.4527 -2.2282  1.6516
10634TIP3    H253394   6.216   5.599  13.894  0.4568  1.1308 -0.8455
10635TIP3   OH253395   3.249   6.467  15.803 -0.6875  0.2025 -0.2779
10635TIP3    H153396   3.275   6.433  15.889  0.9294  1.1480 -0.3552
10635TIP3    H253397   3.329   6.505  15.767 -2.0297  2.6054 -0.8951
10636TIP3   OH253398   3.268   5.557  15.518  0.4952 -0.2058 -0.0065
10636TIP3    H153399   3.253   5.466  15.489  0.5139  0.0919 -0.9905
10636TIP3    H253400   3.189   5.579  15.568 -0.5010 -0.0830 -1.5418
10637TIP3   OH253401   1.535   0.169   3.343  0.4311 -0.1409  0.1446
10637TIP3    H153402   1.452   0.121   3.347 -0.6856  1.6990  0.1295
10637TIP3    H253403   1.515   0.255   3.380  1.7219  1.2014 -2.0378
10638TIP3   OH253404   1.071   4.491  14.614 -0.1074  0.3418 -0.0351
10638TIP3    H153405   1.116   4.556  14.667 -0.3267  1.3929 -1.0920
10638TIP3    H253406   1.132   4.471  14.543 -0.4027  0.0696 -0.2153
10639TIP3   OH253407   0.164   2.943  15.512  0.1260 -0.1631 -0.0348
10639TIP3    H153408   0.080   2.955  15.556  0.4530 -0.4746  0.6925
10639TIP3    H253409   0.224   3.002  15.558  0.1452  0.6523 -1.0602
10640TIP3   OH253410   0.385   6.098   2.943 -0.3269 -0.3737  0.4064
10640TIP3    H153411   0.351   6.136   2.862 -0.0001 -0.7905  0.0659
10640TIP3    H253412   0.478   6.120   2.942 -0.8742  2.5174  2.3261
10641TIP3   OH253413   1.768   4.758   3.269  0.5627 -0.5115  0.3369
10641TIP3    H153414   1.791   4.824   3.334  1.6056 -0.3940 -0.1341
10641TIP3    H253415   1.831   4.687   3.282  0.3237 -0.8041 -0.0628
10642TIP3   OH253416   2.416   1.987  11.998  0.6727 -0.3294 -0.5478
10642TIP3    H153417   2.349   1.970  12.065  0.3510 -0.7000 -0.9560
10642TIP3    H253418   2.442   2.078  12.012 -0.0758 -0.1170 -0.5283
10643TIP3   OH253419   3.466   4.037  16.994  0.0629 -0.5870  0.4091
10643TIP3    H153420   3.500   3.997  16.914 -1.4680 -1.4012  0.1123
10643TIP3    H253421   3.485   3.973  17.062 -1.3844 -1.3806  0.1234
10644TIP3   OH253422   1.105   5.567  13.579  0.6178  0.3952 -0.2088
10644TIP3    H153423   1.048   5.514  13.523  0.5577  0.5255 -0.2692
10644TIP3    H253424   1.056   5.647  13.595  0.8319  0.5573 -0.3563
10645TIP3   OH253425   5.568   1.007  16.237  0.1224 -0.0713  0.5189
10645TIP3    H153426   5.506   1.009  16.164 -1.0309 -0.0800  1.4700
10645TIP3    H253427   5.638   0.949  16.208 -0.7425 -0.7502 -0.2542
10646TIP3   OH253428   3.177   4.888  16.230  0.5287 -0.3574  0.7716
10646TIP3    H153429   3.202   4.976  16.199 -0.0249 -1.1132 -2.1119
10646TIP3    H253430   3.104   4.903  16.289  0.3860  1.1202  0.2650
10647TIP3   OH253431   6.478   2.560   4.855 -0.2740 -0.3196 -0.3905
10647TIP3    H153432   6.571   2.538   4.863 -0.3814 -0.2795  1.7564
10647TIP3    H253433   6.433   2.476   4.852 -0.2244 -0.3658 -0.0027
10648TIP3   OH253434   2.057   6.307   6.175 -0.0610 -0.5053 -0.0876
10648TIP3    H153435   2.020   6.372   6.115  1.7227 -0.1512 -0.8515
10648TIP3    H253436   2.138   6.279   6.134  0.7351 -0.9668  1.6934
10649TIP3   OH253437   6.093   1.427  14.122 -0.2917 -0.4014 -0.4284
10649TIP3    H153438   6.180   1.466  14.111  0.3990 -1.7001  0.2098
10649TIP3    H253439   6.110   1.341  14.161 -1.8215 -0.9589 -0.9203
10650TIP3   OH253440   3.175   5.300  15.731 -0.0964  0.2600  0.0162
10650TIP3    H153441   3.142   5.323  15.818 -1.1584 -1.7560  0.1878
10650TIP3    H253442   3.240   5.232  15.747 -1.0433 -0.8669 -0.8125
10651TIP3   OH253443   6.736   1.924   2.639  0.1913 -0.0000 -0.3935
10651TIP3    H153444   6.647   1.912   2.604 -0.2238 -0.1595  0.6971
10651TIP3    H253445   6.793   1.900   2.566 -0.6575 -0.5687 -0.8907
10652TIP3   OH253446   6.341   3.780   5.375 -0.1457 -0.2931 -0.0187
10652TIP3    H153447   6.381   3.775   5.288 -0.7167  0.5657 -0.3427
10652TIP3    H253448   6.336   3.689   5.404  1.8860 -0.4547 -0.0112
10653TIP3   OH253449   1.815   3.322  16.653  0.8176 -0.8164  0.3702
10653TIP3    H153450   1.893   3.354  16.698  0.9334  1.2417 -1.1809
10653TIP3    H253451   1.834   3.333  16.560 -1.5294  0.3923 -0.0477
10654TIP3   OH253452   5.460   2.187   1.082  0.1285 -0.4465  0.0707
10654TIP3    H153453   5.365   2.192   1.067  0.2288  1.2598 -0.2115
10654TIP3    H253454   5.470   2.121   1.151 -1.3859  0.2145  0.9867
10655TIP3   OH253455   2.629   3.955  12.404 -0.0896 -0.0484 -0.3680
10655TIP3    H153456   2.540   3.947  12.438  0.3745 -3.1630  0.4092
10655TIP3    H253457   2.684   3.955  12.482  0.6657  0.3064 -0.8959
10656TIP3   OH253458   3.534   6.038  11.510 -0.4696  0.1058 -0.0050
10656TIP3    H153459   3.487   5.973  11.561 -0.1783 -1.0184 -1.1169
10656TIP3    H253460   3.582   5.988  11.444  0.7553  1.3504 -0.1347
10657TIP3   OH253461   3.050   3.626  17.130 -0.0014 -0.2254  0.4835
10657TIP3    H153462   2.966   3.618  17.175 -0.2002  1.1625  0.4055
10657TIP3    H253463   3.085   3.537  17.127 -1.3809 -0.7882  0.6775
10658TIP3   OH253464   5.066   0.704   4.353  0.2388 -0.0709 -0.2110
10658TIP3    H153465   5.032   0.743   4.433  1.7691  0.5692  0.1653
10658TIP3    H253466   5.005   0.732   4.285 -0.9120 -0.3758  0.6569
10659TIP3   OH253467   3.789   0.477  16.118  0.1103  1.0249  0.0205
10659TIP3    H153468   3.798   0.556  16.172 -2.2198  1.4191 -0.0313
10659TIP3    H253469   3.750   0.509  16.036  1.2998  0.1000 -0.9231
10660TIP3   OH253470   4.982   4.844   3.960  0.2766 -0.1528 -0.5664
10660TIP3    H153471   5.010   4.914   4.019 -1.9542  0.5316 -0.2320
10660TIP3    H253472   5.062   4.793   3.944  1.2456  0.3886  1.9934
10661TIP3   OH253473   1.850   3.134   1.724  0.3363 -0.4773  0.5427
10661TIP3    H153474   1.901   3.123   1.644 -0.3025 -1.3575  0.2442
10661TIP3    H253475   1.888   3.072   1.786  1.4453  0.8701  1.2507
10662TIP3   OH253476   0.307   5.032   5.942  0.1356  0.1665 -0.2425
10662TIP3    H153477   0.216   5.031   5.971 -0.0828  1.2085 -0.8370
10662TIP3    H253478   0.348   5.101   5.993  0.0662  1.1141 -1.4191
10663TIP3   OH253479   1.086   3.567   2.611  0.0117 -0.0428  0.4591
10663TIP3    H153480   1.005   3.604   2.577 -0.3053  0.7542  1.9833
10663TIP3    H253481   1.125   3.637   2.664  2.0549 -0.1759 -0.7467
10664TIP3   OH253482   3.121   3.153   1.056  0.3494  0.1011 -0.4562
10664TIP3    H153483   3.155   3.209   0.986  1.4663  0.7255  0.5420
10664TIP3    H253484   3.162   3.068   1.041 -1.6156 -0.6298 -2.1788
10665TIP3   OH253485   0.935   2.415   3.323  0.5916  0.1105 -0.1269
10665TIP3    H153486   0.968   2.334   3.284  0.2190 -0.6282  1.0236
10665TIP3    H253487   0.883   2.385   3.398 -1.5857  1.2764 -1.0894
10666TIP3   OH253488   3.969   0.935   3.505  0.2412 -0.4454 -0.1636
10666TIP3    H153489   3.981   1.004   3.570 -1.0329  0.3574 -0.7457
10666TIP3    H253490   4.037   0.953   3.439 -0.5477  0.7432 -0.6900
10667TIP3   OH253491   3.682   3.495   2.811  0.4682 -0.6349  0.9155
10667TIP3    H153492   3.625   3.549   2.864  2.5254 -0.3405  2.9917
10667TIP3    H253493   3.717   3.554   2.744  0.4297 -0.1361  1.3333
10668TIP3   OH253494   0.835   0.263  16.228 -0.2541 -0.0944 -0.4626
10668TIP3    H153495   0.889   0.256  16.149 -0.0339 -1.1281 -0.2430
10668TIP3    H253496   0.892   0.232  16.299 -0.5753  0.4614  0.0450
10669TIP3   OH253497   5.377   0.767   3.789 -0.7473 -0.5029  0.0751
10669TIP3    H153498   5.451   0.778   3.849 -2.0707 -0.4204  1.7870
10669TIP3    H253499   5.355   0.856   3.761 -1.4460 -0.2854  1.2184
10670TIP3   OH253500   6.380   1.538   3.601  0.0952 -0.0581 -0.1069
10670TIP3    H153501   6.444   1.528   3.672  1.9708 -1.1077 -1.8359
10670TIP3    H253502   6.351   1.448   3.583  0.2249  0.1014 -1.1565
10671TIP3   OH253503   1.272   6.325  14.614  0.1497  0.1523 -0.2915
10671TIP3    H153504   1.272   6.281  14.699  1.3531  1.6843  0.5526
10671TIP3    H253505   1.233   6.262  14.554 -1.8060 -0.5474  1.6041
10672TIP3   OH253506   4.341   6.638  14.289 -0.4832 -0.2268 -0.1560
10672TIP3    H153507   4.372   6.589  14.213  1.5463  0.5932  0.0892
10672TIP3    H253508   4.313   6.722  14.255  3.2393  1.3424  0.1877
10673TIP3   OH253509   4.699   0.023  14.393 -0.2158 -0.1754  0.0079
10673TIP3    H153510   4.714   0.020  14.487  2.1967  1.2781 -0.2556
10673TIP3    H253511   4.737  -0.059  14.360  0.3548  0.0232  0.1586
10674TIP3   OH253512   4.529   4.644  16.703 -0.3876  0.0464 -0.0509
10674TIP3    H153513   4.518   4.562  16.751  1.4097  0.1405  0.6195
10674TIP3    H253514   4.563   4.618  16.618  0.9119  0.0835  0.4256
10675TIP3   OH253515   0.166   6.486   1.881  0.0931  0.7136  0.6289
10675TIP3    H153516   0.110   6.417   1.916 -0.3557  0.9078  0.3020
10675TIP3    H253517   0.109   6.563   1.875 -0.4173  0.2229 -2.2905
10676TIP3   OH253518   3.408   4.711   3.468  0.5519  0.2371  0.6743
10676TIP3    H153519   3.470   4.638   3.465  0.0150 -0.2141 -0.5358
10676TIP3    H253520   3.325   4.672   3.439  0.0181  1.1113  0.9981
10677TIP3   OH253521   6.810   3.945   4.663  0.2290  0.7023 -0.7383
10677TIP3    H153522   6.745   3.996   4.615 -1.1759 -1.0465 -0.8031
10677TIP3    H253523   6.769   3.928   4.748  0.9919  0.3221 -0.4353
10678TIP3   OH253524   2.510   4.046  11.200 -0.7527  0.2155  0.1129
10678TIP3    H153525   2.539   3.992  11.126  0.7076 -0.7474  1.3279
10678TIP3    H253526   2.418   4.024  11.212 -0.4683 -1.1883 -0.1257
10679TIP3   OH253527   4.156   3.528   5.308 -0.5581  0.2639  0.3692
10679TIP3    H153528   4.145   3.453   5.366 -2.3560 -0.5656 -0.9210
10679TIP3    H253529   4.250   3.538   5.298 -0.2692 -0.8918  1.7293
10680TIP3   OH253530   5.626   0.575  16.510  0.3384  0.1103 -0.4975
10680TIP3    H153531   5.593   0.489  16.535 -0.5819  0.5602 -0.1151
10680TIP3    H253532   5.578   0.636  16.566  2.2193  0.7699  0.5053
10681TIP3   OH253533   0.063   4.406   1.461  0.6079 -0.2299 -0.2028
10681TIP3    H153534   0.042   4.350   1.536  0.3728  0.6999  0.4454
10681TIP3    H253535  -0.004   4.474   1.462 -0.6893 -1.3292 -2.5257
10682TIP3   OH253536   3.943   5.123  10.746  0.5605  0.3370 -0.3273
10682TIP3    H153537   3.876   5.149  10.683  0.0887 -1.6258 -0.7141
10682TIP3    H253538   3.929   5.029  10.757  2.2675  0.1830  0.7842
10683TIP3   OH253539   4.084   4.867  12.033  0.0396 -0.1679  0.0739
10683TIP3    H153540   4.046   4.862  11.945 -1.8912 -1.1780  0.9146
10683TIP3    H253541   4.114   4.778  12.051  0.2818  0.0010  0.5046
10684TIP3   OH253542   0.188   0.670   5.001 -0.3889 -0.0006  0.0937
10684TIP3    H153543   0.134   0.640   5.074 -0.8119 -0.1108 -0.2668
10684TIP3    H253544   0.149   0.753   4.974 -1.9823 -1.2959 -1.8457
10685TIP3   OH253545   3.888   3.598   4.648 -0.3235  0.0335 -0.4109
10685TIP3    H153546   3.937   3.533   4.599 -1.5431 -0.2781 -1.2594
10685TIP3    H253547   3.948   3.625   4.718  0.5606 -1.2803 -0.6139
10686TIP3   OH253548   4.499   0.072   0.926  0.4025  0.7597  0.4650
10686TIP3    H153549   4.474   0.157   0.962  2.5263  2.5371 -1.8625
10686TIP3    H253550   4.586   0.055   0.961 -0.2696 -0.8889  1.4669
10687TIP3   OH253551   0.428   0.390  10.758  0.3860 -0.3279 -0.2736
10687TIP3    H153552   0.391   0.348  10.680  1.8765  1.4757 -2.0364
10687TIP3    H253553   0.358   0.448  10.789 -0.1506 -0.9158 -0.3508
10688TIP3   OH253554   1.531   6.817   6.278  0.5470 -0.2563 -0.5634
10688TIP3    H153555   1.537   6.870   6.358  0.2213 -2.3810  0.9405
10688TIP3    H253556   1.622   6.805   6.251  0.7545 -0.6694  0.2952
10689TIP3   OH253557   4.496   4.434  14.495 -0.4057 -0.4273  0.5622
10689TIP3    H153558   4.448   4.457  14.416  0.4838 -2.0781 -0.5141
10689TIP3    H253559   4.582   4.475  14.484 -0.5084 -0.0766  1.0215
10690TIP3   OH253560   3.709   1.157  13.323  0.4946  0.0154  0.0676
10690TIP3    H153561   3.744   1.069  13.337  1.4229  0.3268 -0.2560
10690TIP3    H253562   3.782   1.215  13.341 -0.0045  0.7080 -0.1162
10691TIP3   OH253563   3.287   0.693   0.569 -0.0623 -0.1455 -0.4555
10691TIP3    H153564   3.375   0.663   0.590  0.4137  1.5172  0.0602
10691TIP3    H253565   3.251   0.723   0.652 -0.9451 -0.3926 -0.7420
10692TIP3   OH253566   4.941   1.827   0.606  0.5461 -0.0646 -0.0179
10692TIP3    H153567   5.004   1.890   0.571  0.0140 -0.0616 -1.0035
10692TIP3    H253568   4.975   1.742   0.579  0.3511 -0.0883 -0.1916
10693TIP3   OH253569   0.442   2.582  14.157 -0.0021  0.4884  0.0653
10693TIP3    H153570   0.413   2.540  14.075  2.7823 -1.0147 -0.2748
10693TIP3    H253571   0.375   2.557  14.221  0.0010 -2.1421 -0.8127
10694TIP3   OH253572   3.289   0.028   0.993  0.4908 -0.3562 -0.0445
10694TIP3    H153573   3.314  -0.064   0.989  1.3864 -0.2255  1.6601
10694TIP3    H253574   3.255   0.047   0.906  2.0044 -1.8131 -1.0317
10695TIP3   OH253575   2.697   0.426   4.275  0.6001  0.2063 -0.3204
10695TIP3    H153576   2.705   0.456   4.184 -1.3240  0.4907 -0.4281
10695TIP3    H253577   2.697   0.331   4.268 -0.2529  0.2236 -0.7165
10696TIP3   OH253578   5.715   3.408  11.759  0.0615  0.1119  0.2109
10696TIP3    H153579   5.794   3.440  11.717 -0.0573 -1.4835 -1.3435
10696TIP3    H253580   5.707   3.460  11.839  2.0576  1.0439 -0.1494
10697TIP3   OH253581   2.253   5.257  11.590  0.1921  0.6119  0.0949
10697TIP3    H153582   2.226   5.219  11.506  3.2963 -1.5089 -0.1102
10697TIP3    H253583   2.241   5.187  11.654  0.2335  1.3775  0.9646
10698TIP3   OH253584   2.200   5.322   1.533  0.3034 -0.4011 -0.6185
10698TIP3    H153585   2.251   5.403   1.524  0.6095 -0.5247 -0.0030
10698TIP3    H253586   2.248   5.259   1.479  0.4625 -0.3613 -0.5238
10699TIP3   OH253587   3.237   4.597   5.518 -0.1517  0.0737 -0.6604
10699TIP3    H153588   3.203   4.644   5.442 -1.7355  0.6229  0.3352
10699TIP3    H253589   3.262   4.665   5.580 -0.3740 -0.3752 -0.0702
10700TIP3   OH253590   4.231   1.541  16.168  0.0072  0.1224  0.2934
10700TIP3    H153591   4.160   1.548  16.232  1.2849  0.9001  1.7060
10700TIP3    H253592   4.294   1.482  16.209  0.2671 -0.4273 -0.8591
10701TIP3   OH253593   4.180   5.294  15.849 -0.0624 -0.5052  0.5170
10701TIP3    H153594   4.210   5.280  15.939 -1.5790  0.1464  1.1571
10701TIP3    H253595   4.114   5.227  15.834  0.8365 -1.1955 -0.4584
10702TIP3   OH253596   1.364   5.436  12.889 -0.3392  0.8338  0.5078
10702TIP3    H153597   1.432   5.489  12.931  1.3009 -1.7380  1.3435
10702TIP3    H253598   1.305   5.410  12.961 -1.2622  1.6502  0.0698
10703TIP3   OH253599   1.820   1.558   1.900 -0.0713 -0.2335 -0.7350
10703TIP3    H153600   1.822   1.607   1.819  0.1955  0.3614 -0.3750
10703TIP3    H253601   1.865   1.614   1.963 -1.6012  0.0072  0.2044
10704TIP3   OH253602   4.001   0.490  11.157 -0.4788  0.6119  1.0454
10704TIP3    H153603   3.911   0.500  11.127 -0.5075  0.3391  1.0323
10704TIP3    H253604   4.052   0.480  11.077 -0.8923 -2.9194  1.0502
10705TIP3   OH253605   0.452   4.652  14.728  0.4698  0.3841  0.1918
10705TIP3    H153606   0.510   4.590  14.773  1.5267  1.3476  0.2158
10705TIP3    H253607   0.467   4.637  14.635 -0.3760 -0.3818  0.1669
10706TIP3   OH253608   1.587   2.153   5.652 -0.6088  0.0823  0.4775
10706TIP3    H153609   1.653   2.124   5.590  0.0316  1.5097  0.4360
10706TIP3    H253610   1.627   2.139   5.738 -1.0006 -0.7503  0.5312
10707TIP3   OH253611   1.130   1.972   2.440 -0.0816  0.0986 -0.4605
10707TIP3    H153612   1.040   1.939   2.428  0.3035 -1.1347 -0.1552
10707TIP3    H253613   1.119   2.058   2.481 -1.1137 -1.0183  1.8228
10708TIP3   OH253614   2.725   2.925   3.376  0.4226  0.1333 -0.0199
10708TIP3    H153615   2.698   2.876   3.299  1.1160  1.5442 -1.2034
10708TIP3    H253616   2.709   2.865   3.449 -0.4580 -1.1549 -1.2146
10709TIP3   OH253617   6.524   1.348  16.372 -0.0695 -0.2150 -0.1317
10709TIP3    H153618   6.543   1.276  16.312  0.1469  0.3098 -0.6970
10709TIP3    H253619   6.554   1.427  16.326  1.2752  0.0777  1.1626
10710TIP3   OH253620   5.275   3.808  14.305 -0.3545  0.9779  0.6141
10710TIP3    H153621   5.278   3.900  14.279 -1.8654  1.1741  1.0866
10710TIP3    H253622   5.361   3.774  14.279 -0.1242  2.2694 -0.4461
10711TIP3   OH253623   4.079   0.641   3.366 -0.0503 -0.3519  0.3731
10711TIP3    H153624   4.124   0.558   3.383  0.5798  0.0135  0.5210
10711TIP3    H253625   3.988   0.625   3.393  0.0693 -0.9892  0.4104
10712TIP3   OH253626   4.965   4.291  14.382 -0.4341  0.3826  0.0374
10712TIP3    H153627   4.961   4.224  14.450 -1.9308 -0.7908 -1.1347
10712TIP3    H253628   4.931   4.370  14.424  0.2180  0.1267  1.0921
10713TIP3   OH253629   2.972   2.804  14.919  0.1850  0.0579  0.8154
10713TIP3    H153630   3.013   2.849  14.844 -0.3824 -1.3339 -0.3714
10713TIP3    H253631   2.920   2.872  14.961 -1.2829  0.4013 -1.4024
10714TIP3   OH253632   6.096   0.586  13.051 -0.1031  0.2377  0.2228
10714TIP3    H153633   6.083   0.662  13.108  0.5811  0.5673 -0.0584
10714TIP3    H253634   6.075   0.618  12.963 -0.1289  0.0173  0.1494
10715TIP3   OH253635   0.334   0.519  16.191  0.4777 -0.2029  0.6963
10715TIP3    H153636   0.328   0.614  16.184  0.0624 -0.2939 -0.2836
10715TIP3    H253637   0.422   0.497  16.162  0.9391 -0.0368  1.9303
10716TIP3   OH253638   4.040   3.319  16.851 -0.1244  0.1661 -0.2950
10716TIP3    H153639   3.977   3.343  16.782 -0.0547 -0.9591 -0.7716
10716TIP3    H253640   3.988   3.319  16.931 -0.7208 -0.5956 -0.6600
10717TIP3   OH253641   5.609   4.595   0.231  0.0632 -0.0133 -0.6003
10717TIP3    H153642   5.535   4.534   0.235  0.8229 -0.9824 -1.0637
10717TIP3    H253643   5.603   4.634   0.143  0.4672 -0.5630 -0.8742
10718TIP3   OH253644   1.242   6.754   0.884 -0.3419  0.5604  0.0712
10718TIP3    H153645   1.270   6.693   0.952 -0.0162  0.9859  0.3250
10718TIP3    H253646   1.228   6.836   0.931  0.5927  1.0519 -0.4877
10719TIP3   OH253647   5.277   3.726  12.345 -0.4708 -0.0140  0.0973
10719TIP3    H153648   5.297   3.712  12.252 -0.1503  2.9227 -0.3634
10719TIP3    H253649   5.185   3.700  12.354  0.2631 -3.1152 -0.2895
10720TIP3   OH253650   5.021   3.686  15.260  0.3018 -0.2839 -0.2836
10720TIP3    H153651   5.090   3.620  15.268  0.8224  0.0893 -1.5262
10720TIP3    H253652   4.983   3.671  15.174 -1.1367 -0.4210  0.3427
10721TIP3   OH253653   1.533   0.163  14.149  0.0919 -0.3838 -0.0231
10721TIP3    H153654   1.478   0.198  14.078 -0.9075  1.2948  1.4897
10721TIP3    H253655   1.473   0.108  14.200  0.6821 -1.1917 -0.1782
10722TIP3   OH253656   2.893   1.689  14.013 -0.2845 -0.1937  0.0245
10722TIP3    H153657   2.957   1.752  14.046 -1.5483  0.3776  1.5465
10722TIP3    H253658   2.904   1.690  13.918  0.7067  1.2319  0.1288
10723TIP3   OH253659   0.558   3.301  13.630  0.1158 -0.2708 -0.0554
10723TIP3    H153660   0.595   3.343  13.552  0.6867 -1.1412 -0.2768
10723TIP3    H253661   0.490   3.243  13.595  0.1298 -0.3951  0.1208
10724TIP3   OH253662   4.725   5.437  14.316  0.6488 -0.3122 -0.4689
10724TIP3    H153663   4.669   5.448  14.393  0.3731 -0.2156 -0.6831
10724TIP3    H253664   4.677   5.479  14.245  0.6640 -0.8500 -0.8024
10725TIP3   OH253665   4.509   0.108  16.429 -0.2861  0.2484 -0.2132
10725TIP3    H153666   4.536   0.022  16.395 -1.0133 -0.3440  0.6483
10725TIP3    H253667   4.566   0.171  16.384  0.3273 -0.6884 -0.7872
10726TIP3   OH253668   5.438   0.616   1.993  0.4865 -0.1356 -0.4100
10726TIP3    H153669   5.416   0.603   1.900  0.1358  0.7047 -0.4495
10726TIP3    H253670   5.507   0.682   1.993  0.8925 -0.5496 -0.0967
10727TIP3   OH253671   3.721   2.138   5.071  0.4112  0.2016  0.2242
10727TIP3    H153672   3.774   2.096   5.139  0.8606 -1.4156 -1.0466
10727TIP3    H253673   3.631   2.124   5.098  0.5890 -0.0584  0.6927
10728TIP3   OH253674   6.117   4.349  14.695 -0.2391 -0.3157  1.1916
10728TIP3    H153675   6.212   4.344  14.682 -0.2441 -3.8173  1.5638
10728TIP3    H253676   6.081   4.342  14.606 -0.1761  0.7999  1.0692
10729TIP3   OH253677   2.058   6.137  11.235  0.6306 -0.5906  0.1690
10729TIP3    H153678   2.086   6.062  11.286 -1.2096 -1.4322  0.0015
10729TIP3    H253679   2.027   6.201  11.300 -2.1720 -1.8491  0.2136
10730TIP3   OH253680   1.352   1.663  14.200  0.1232 -0.5563 -0.1656
10730TIP3    H153681   1.283   1.601  14.176  0.2725 -0.4849 -0.7925
10730TIP3    H253682   1.423   1.646  14.139  1.3829 -1.7960  1.5628
10731TIP3   OH253683   3.795   1.472  13.919  0.5062 -0.1071  0.1069
10731TIP3    H153684   3.791   1.516  13.834 -0.0194  0.2547  0.3133
10731TIP3    H253685   3.883   1.494  13.952  0.6914 -0.2041 -0.3153
10732TIP3   OH253686   6.070   2.160  16.105 -0.1104  0.2390  0.1164
10732TIP3    H153687   6.149   2.177  16.157  1.5517  0.9261 -2.4495
10732TIP3    H253688   6.021   2.241  16.109  0.0774  0.3375  0.4812
10733TIP3   OH253689   0.314   2.614   0.043  0.4819 -0.0156  0.0536
10733TIP3    H153690   0.368   2.537   0.062  2.3576  1.7250  2.4340
10733TIP3    H253691   0.345   2.680   0.105 -2.1381  2.1785 -0.8159
10734TIP3   OH253692   6.815   3.462  10.743 -0.2564 -0.4082  0.0588
10734TIP3    H153693   6.753   3.534  10.755  1.1729  0.9485 -0.4130
10734TIP3    H253694   6.869   3.464  10.822 -1.3877 -2.2619  0.9736
10735TIP3   OH253695   4.204   3.926  12.881  0.4922 -0.3789  0.2054
10735TIP3    H153696   4.160   3.905  12.799  0.2365 -1.1969  0.5382
10735TIP3    H253697   4.145   3.895  12.950  0.8026  0.0868  0.6960
10736TIP3   OH253698   6.541   2.769  13.771  0.7389  0.3274 -0.3416
10736TIP3    H153699   6.618   2.823  13.790  0.6514  0.5732 -0.6734
10736TIP3    H253700   6.476   2.831  13.738  0.9084 -0.0796 -1.4808
10737TIP3   OH253701   5.936   0.299  15.102 -0.2282 -0.1925 -0.1113
10737TIP3    H153702   5.945   0.345  15.018 -0.2180 -1.0563 -0.6010
10737TIP3    H253703   5.955   0.365  15.168 -2.6905  1.1849 -0.6601
10738TIP3   OH253704   0.770   6.199  13.965  0.1934 -0.1856  0.7018
10738TIP3    H153705   0.738   6.113  13.937 -1.7923 -0.2072  2.7779
10738TIP3    H253706   0.704   6.260  13.934 -0.3332  0.1415  2.4182
10739TIP3   OH253707   5.217   4.567   5.906  0.4447  0.1334  0.8958
10739TIP3    H153708   5.139   4.545   5.855  1.7321 -3.2590  0.1287
10739TIP3    H253709   5.231   4.661   5.890 -1.8486  0.2099 -1.1857
10740TIP3   OH253710   5.345   6.644  13.212  0.4342 -0.0993  0.2232
10740TIP3    H153711   5.361   6.688  13.295 -0.1559  2.5480 -0.9577
10740TIP3    H253712   5.428   6.652  13.164  0.8202 -1.7433  0.5657
10741TIP3   OH253713   6.808   2.768  15.678  0.2958 -0.2012  0.5010
10741TIP3    H153714   6.902   2.786  15.688 -0.1377  1.8521  1.2856
10741TIP3    H253715   6.803   2.672  15.673  2.4131 -0.3712  0.5753
10742TIP3   OH253716   6.493   4.171  16.378 -0.0235  0.3787 -0.2546
10742TIP3    H153717   6.543   4.114  16.436  0.1347  0.4810 -0.2886
10742TIP3    H253718   6.482   4.120  16.298  0.2752  0.4660 -0.3513
10743TIP3   OH253719   4.776   2.571  11.292  0.7297  0.6065 -0.1848
10743TIP3    H153720   4.823   2.492  11.318 -0.8886 -0.6827 -1.0056
10743TIP3    H253721   4.683   2.548  11.301  0.1583  3.2340  1.9249
10744TIP3   OH253722   2.710   0.312   0.681  0.2944 -0.2452 -0.0169
10744TIP3    H153723   2.747   0.227   0.659 -0.1644 -0.5251  0.2736
10744TIP3    H253724   2.743   0.371   0.613 -0.0377 -0.8249 -0.6904
10745TIP3   OH253725   2.560   0.081  16.806 -0.0757  0.4371 -0.0243
10745TIP3    H153726   2.605   0.149  16.755  0.3377  0.5685  0.5015
10745TIP3    H253727   2.547   0.122  16.892  0.6223 -0.3161  0.4563
10746TIP3   OH253728   1.623   5.308  17.128  0.2001  0.0124 -0.0288
10746TIP3    H153729   1.653   5.281  17.215  0.3023  1.4738  0.4155
10746TIP3    H253730   1.540   5.261  17.115  2.0675 -3.4417 -0.9149
10747TIP3   OH253731   2.450   0.698   3.937 -0.4073 -0.2506 -0.1844
10747TIP3    H153732   2.415   0.755   3.869 -1.2925  0.5141  0.8832
10747TIP3    H253733   2.475   0.618   3.891  1.2562  1.1087 -1.8000
10748TIP3   OH253734   6.000   1.247  16.639 -0.2349 -0.7965  0.2954
10748TIP3    H153735   6.077   1.216  16.591  1.4876  2.5735  0.5621
10748TIP3    H253736   5.929   1.244  16.575  0.9919 -0.5482 -1.1342
10749TIP3   OH253737   3.217   0.690  12.313  0.4009  0.0826 -0.3185
10749TIP3    H153738   3.240   0.598  12.302  1.0237  0.3266 -1.1319
10749TIP3    H253739   3.301   0.736  12.316  0.1646  1.0504 -3.9143
10750TIP3   OH253740   6.247   1.177   3.318  0.2610  0.1483 -0.1068
10750TIP3    H153741   6.283   1.115   3.255  1.5463  0.4968  0.2513
10750TIP3    H253742   6.275   1.263   3.285  0.9948  0.3312  0.9569
10751TIP3   OH253743   1.457   2.810  11.283 -0.3719 -0.0247 -0.6073
10751TIP3    H153744   1.380   2.828  11.229 -0.1842 -2.4045 -1.8010
10751TIP3    H253745   1.531   2.816  11.223  0.1700  0.3309  0.0873
10752TIP3   OH253746   6.544   5.017   1.131 -0.0138  0.4703  0.5042
10752TIP3    H153747   6.490   4.940   1.114  0.3130  0.2781  0.3203
10752TIP3    H253748   6.506   5.085   1.075 -0.5781  0.5699  1.0032
10753TIP3   OH253749   5.832   5.748   2.994  0.3565 -0.8272 -0.2283
10753TIP3    H153750   5.843   5.660   2.957 -0.1941 -1.1391  0.3188
10753TIP3    H253751   5.756   5.784   2.948  0.5380 -0.6671 -0.4016
10754TIP3   OH253752   4.607   4.283  13.696  0.1194  0.1749  0.3579
10754TIP3    H153753   4.572   4.227  13.766  3.6583  1.4532  3.4659
10754TIP3    H253754   4.658   4.224  13.641 -1.2874 -0.5507 -0.2401
10755TIP3   OH253755   1.236   4.858   2.187  0.5646  0.3132  0.1903
10755TIP3    H153756   1.191   4.875   2.270 -0.2901 -1.5431  0.1714
10755TIP3    H253757   1.298   4.789   2.208 -0.0095 -0.5338 -0.7941
10756TIP3   OH253758   3.160   3.104  12.503 -0.0916 -0.2800 -0.3905
10756TIP3    H153759   3.230   3.137  12.559 -0.5566  0.4131 -0.2066
10756TIP3    H253760   3.104   3.180  12.487  0.6989 -0.1241 -2.8170
10757TIP3   OH253761   0.295   4.786  16.885 -0.5986 -0.2498 -0.1637
10757TIP3    H153762   0.351   4.737  16.825 -2.3623  0.6539 -2.7292
10757TIP3    H253763   0.305   4.877  16.857 -1.4712  0.2074  0.9412
10758TIP3   OH253764   0.956   1.812   3.209  0.0904  0.5855  0.7801
10758TIP3    H153765   1.048   1.799   3.234  0.2132 -1.4112 -0.5386
10758TIP3    H253766   0.907   1.794   3.288  0.6944 -1.3601  0.7487
10759TIP3   OH253767   3.483   3.901   6.495  0.5177  0.1812  0.0937
10759TIP3    H153768   3.544   3.831   6.472  0.7893  0.0601  1.1397
10759TIP3    H253769   3.523   3.944   6.571 -0.0770  0.9102  0.0033
10760TIP3   OH253770   5.833   4.290   3.501  0.2249 -0.1615 -0.6476
10760TIP3    H153771   5.784   4.296   3.419 -0.8095 -0.7825 -0.1108
10760TIP3    H253772   5.765   4.272   3.567  1.1854 -1.0871  0.1269
10761TIP3   OH253773   4.930   3.548  17.000 -0.6146  0.5489 -0.0662
10761TIP3    H153774   5.006   3.516  16.951 -0.5454 -0.4171  0.6356
10761TIP3    H253775   4.925   3.641  16.979 -0.2330  0.2849 -1.4239
10762TIP3   OH253776   4.144   0.414   3.199  0.0230  0.6066  0.3705
10762TIP3    H153777   4.158   0.486   3.137 -0.8724 -0.1678 -0.7700
10762TIP3    H253778   4.225   0.363   3.194  1.1406  2.1147  2.0478
10763TIP3   OH253779   1.106   3.255   0.004  0.5306 -0.2157 -0.3848
10763TIP3    H153780   1.036   3.297  -0.046  1.7269  1.3365 -0.8417
10763TIP3    H253781   1.142   3.190  -0.056  0.4800  0.0489 -0.7034
10764TIP3   OH253782   1.662   5.478  12.190 -0.2131  0.3511 -0.2521
10764TIP3    H153783   1.591   5.450  12.249  0.4307 -0.4993  0.1511
10764TIP3    H253784   1.702   5.552  12.235 -1.7815  1.8408 -1.2090
10765TIP3   OH253785   2.077   3.628  14.011 -0.9339 -0.3592  0.5618
10765TIP3    H153786   2.103   3.544  14.048 -0.5627 -0.3200  0.3931
10765TIP3    H253787   2.009   3.660  14.070  0.6221  0.3739  2.0380
10766TIP3   OH253788   1.406   6.481  16.082 -0.1961 -0.1691  0.0013
10766TIP3    H153789   1.363   6.475  15.997 -2.1786 -1.4876  1.0326
10766TIP3    H253790   1.351   6.541  16.133  0.4121 -0.1559  0.6616
10767TIP3   OH253791   6.634   4.384  16.286 -0.1485 -0.3522 -0.4400
10767TIP3    H153792   6.585   4.312  16.324 -0.3541 -0.6542 -1.2647
10767TIP3    H253793   6.647   4.359  16.194  0.0087  0.5316 -0.6679
10768TIP3   OH253794   1.864   5.619  17.077 -0.0853  0.7963  0.0127
10768TIP3    H153795   1.794   5.617  17.011 -0.6047  1.8692  0.5027
10768TIP3    H253796   1.920   5.693  17.051 -1.4033  2.5492  1.8015
10769TIP3   OH253797   2.641   3.920   5.364  0.2654 -0.3693 -0.5547
10769TIP3    H153798   2.609   3.922   5.274 -0.0178 -0.6781 -0.4636
10769TIP3    H253799   2.686   3.836   5.372  0.3843 -0.2952 -0.4397
10770TIP3   OH253800   0.227   2.389  10.446 -0.4946 -0.1005  0.2112
10770TIP3    H153801   0.205   2.296  10.434 -2.7135  0.3610  0.3272
10770TIP3    H253802   0.199   2.409  10.535 -0.0019  0.6801  0.1981
10771TIP3   OH253803   3.029   5.657   0.864 -0.6728  0.0169 -0.3048
10771TIP3    H153804   2.959   5.709   0.903 -0.9212  0.4429 -1.2933
10771TIP3    H253805   3.054   5.706   0.785  0.2377 -0.5057 -0.3507
10772TIP3   OH253806   2.706   3.704  13.602  0.4263 -0.4600 -0.2639
10772TIP3    H153807   2.792   3.685  13.562 -0.2676 -0.1721 -1.9794
10772TIP3    H253808   2.648   3.638  13.564 -0.2687 -0.1935  0.3277
10773TIP3   OH253809   0.545   5.425   5.393 -0.1944 -0.6454 -0.1179
10773TIP3    H153810   0.593   5.466   5.322 -1.3970 -0.5720 -0.9075
10773TIP3    H253811   0.475   5.376   5.350 -1.0507 -0.4612  1.0122
10774TIP3   OH253812   6.054   2.740  16.990 -0.2368  0.1379 -0.1343
10774TIP3    H153813   6.133   2.756  16.940 -0.7724  0.5774 -0.8663
10774TIP3    H253814   6.073   2.662  17.041  0.1131 -0.6882 -1.4895
10775TIP3   OH253815   2.261   3.737   0.634 -0.0334 -0.2499 -0.3677
10775TIP3    H153816   2.243   3.650   0.670  0.5313 -0.0681  0.3746
10775TIP3    H253817   2.334   3.723   0.573  1.5943  0.0372  1.4291
10776TIP3   OH253818   5.610   3.348  16.070 -0.1913 -0.4172  0.4367
10776TIP3    H153819   5.595   3.284  16.001 -2.2791  0.5827 -0.1252
10776TIP3    H253820   5.636   3.297  16.146 -0.2731 -1.7607 -0.4174
10777TIP3   OH253821   4.131   6.752   6.256 -0.0601  0.1301  0.5309
10777TIP3    H153822   4.208   6.723   6.206  0.8536  0.5366  1.6599
10777TIP3    H253823   4.085   6.810   6.196  0.7419  0.2245 -0.0232
10778TIP3   OH253824   3.278   2.197   0.023 -0.2788  0.2274 -0.1960
10778TIP3    H153825   3.297   2.286  -0.007 -0.4243  0.3064 -0.0529
10778TIP3    H253826   3.279   2.203   0.118 -0.7661  0.1722 -0.1886
10779TIP3   OH253827   4.851   1.276  13.223  0.4008 -0.5800  0.3130
10779TIP3    H153828   4.758   1.290  13.242 -0.0261  0.2385 -2.0942
10779TIP3    H253829   4.868   1.187  13.256 -0.8781 -0.3046  1.8761
10780TIP3   OH253830   0.918   3.887  15.044 -0.2974  0.0571 -0.6110
10780TIP3    H153831   0.860   3.936  14.986 -1.3787  0.3611  0.6765
10780TIP3    H253832   0.898   3.921  15.132  0.7305 -0.9319  0.0324
10781TIP3   OH253833   4.697   5.565  15.227  0.6365  0.0687  0.1642
10781TIP3    H153834   4.649   5.632  15.178  0.3650 -1.7914 -2.3406
10781TIP3    H253835   4.783   5.562  15.185  0.5256 -1.3449 -0.0068
10782TIP3   OH253836   6.677   4.289   1.138 -0.0613  0.0241 -0.6583
10782TIP3    H153837   6.608   4.229   1.111 -3.1882  2.8178  0.3549
10782TIP3    H253838   6.651   4.317   1.226  3.2771  0.1195  0.4221
10783TIP3   OH253839   4.472   4.578   4.078 -0.2854 -0.2276 -0.0778
10783TIP3    H153840   4.519   4.499   4.052 -0.6446 -0.1585 -0.9446
10783TIP3    H253841   4.468   4.631   3.999 -0.3183  0.5302  0.4237
10784TIP3   OH253842   2.657   1.716  16.921  0.5108 -0.4712 -0.0559
10784TIP3    H153843   2.737   1.664  16.912  0.8599  0.0535 -0.0298
10784TIP3    H253844   2.660   1.777  16.847  0.1617 -0.4182 -0.0244
10785TIP3   OH253845   1.908   4.786   5.806 -0.6612 -0.6671  0.4571
10785TIP3    H153846   1.935   4.695   5.789 -1.5156 -0.8334 -0.0638
10785TIP3    H253847   1.947   4.806   5.891 -1.5199 -1.9702  1.1962
10786TIP3   OH253848   6.105   5.469   5.075  0.3279  0.1255 -0.3593
10786TIP3    H153849   6.011   5.480   5.061  0.1725 -0.3648  0.2617
10786TIP3    H253850   6.114   5.381   5.111  0.9233  0.5252  0.5159
10787TIP3   OH253851   1.797   2.251   5.980  0.0370  0.4544 -0.3754
10787TIP3    H153852   1.837   2.168   6.008  1.9240  0.6967 -2.1173
10787TIP3    H253853   1.715   2.226   5.939  0.8844 -0.6666 -1.4582
10788TIP3   OH253854   4.323   5.192   3.941  0.5856 -0.2784 -0.7602
10788TIP3    H153855   4.270   5.128   3.894 -0.4176 -0.7326  0.9176
10788TIP3    H253856   4.383   5.139   3.994  0.4575  0.1829 -0.1422
10789TIP3   OH253857   0.895   1.413  16.783 -0.2196  0.2754 -0.4230
10789TIP3    H153858   0.821   1.454  16.827 -1.4700  1.0073 -2.9841
10789TIP3    H253859   0.960   1.484  16.774  0.1412  0.0582  0.4268
10790TIP3   OH253860   0.784   1.859   5.856  0.6068 -0.5153  0.3347
10790TIP3    H153861   0.698   1.817   5.869  1.1002 -1.9519 -0.7204
10790TIP3    H253862   0.764   1.942   5.813 -0.2745 -0.6639  0.4360
10791TIP3   OH253863   3.892   2.873  13.137 -0.3303 -0.3154 -0.1558
10791TIP3    H153864   3.883   2.783  13.106  0.6349 -0.7334  0.6894
10791TIP3    H253865   3.987   2.886  13.144 -0.4770  0.5499  0.3134
10792TIP3   OH253866   4.831   3.145   2.888 -0.2654  0.2759  0.1188
10792TIP3    H153867   4.783   3.084   2.832 -0.5005  2.0498 -1.7174
10792TIP3    H253868   4.872   3.206   2.827 -1.4369  2.9938  1.8718
10793TIP3   OH253869   5.661   3.798  15.511 -0.8115 -0.2506  0.1776
10793TIP3    H153870   5.693   3.880  15.473  1.1102 -0.4426  1.2272
10793TIP3    H253871   5.632   3.747  15.435 -1.8923  1.3076 -0.5066
10794TIP3   OH253872   3.882   6.080  12.421 -0.1028  0.3426 -0.7026
10794TIP3    H153873   3.903   6.146  12.356  0.3733  0.1495 -0.7501
10794TIP3    H253874   3.799   6.042  12.391 -0.0901  0.5311 -0.9768
10795TIP3   OH253875   2.778   2.777  12.296 -0.0960 -0.2386 -0.7167
10795TIP3    H153876   2.847   2.711  12.286  0.4019  0.1648 -0.0851
10795TIP3    H253877   2.773   2.791  12.391  0.1961  1.0192 -0.8688
10796TIP3   OH253878   0.652   0.393  10.929  0.1830 -0.4598 -0.4788
10796TIP3    H153879   0.591   0.395  10.855 -1.7650  0.6812  1.0698
10796TIP3    H253880   0.694   0.307  10.924 -2.5128 -1.8351 -0.8794
10797TIP3   OH253881   0.609   0.864  14.196 -0.1397  0.5875 -0.0722
10797TIP3    H153882   0.545   0.902  14.255  0.3295  1.8807 -0.3579
10797TIP3    H253883   0.692   0.904  14.222  0.6160 -1.1795  0.4138
10798TIP3   OH253884   4.037   2.023  12.386 -0.4514 -0.4602  0.4486
10798TIP3    H153885   4.087   2.067  12.317 -1.2310  0.8774  0.7044
10798TIP3    H253886   4.088   2.039  12.465 -0.2853 -0.7702  0.4036
10799TIP3   OH253887   2.871   6.170  17.025 -0.5252  0.4432 -0.2481
10799TIP3    H153888   2.801   6.231  17.003 -1.6703 -0.0088  1.8322
10799TIP3    H253889   2.826   6.089  17.048  0.8390 -0.5593 -0.9450
10800TIP3   OH253890   4.486   5.142  12.286 -0.4104 -0.1803 -0.4529
10800TIP3    H153891   4.397   5.146  12.321 -0.6940 -1.7049 -0.9140
10800TIP3    H253892   4.485   5.201  12.210 -0.9778 -0.0612 -0.3554
10801TIP3   OH253893   1.608   5.898   0.083 -0.1461  0.0565 -0.1116
10801TIP3    H153894   1.590   5.846   0.162  0.9337 -1.6621 -0.9398
10801TIP3    H253895   1.522   5.908   0.041 -0.6451  0.5077  0.9692
10802TIP3   OH253896   0.059   5.985   1.292  0.4852  0.8742  0.8158
10802TIP3    H153897  -0.023   6.004   1.337 -0.5149 -0.8204 -0.1956
10802TIP3    H253898   0.063   6.047   1.220 -0.2714  0.5057  0.4495
10803TIP3   OH253899   2.886   3.761   5.399 -0.3407 -0.9154 -0.6285
10803TIP3    H153900   2.871   3.780   5.492 -0.8962 -0.5790 -0.7853
10803TIP3    H253901   2.917   3.671   5.398  1.8356 -0.2500  0.0837
10804TIP3   OH253902   3.179   6.365   2.090 -0.2540 -0.7911 -0.4360
10804TIP3    H153903   3.170   6.314   2.171 -0.9536 -0.2028 -0.1386
10804TIP3    H253904   3.227   6.443   2.117 -0.2559 -0.7167 -0.6489
10805TIP3   OH253905   4.086   4.828   3.093 -0.1034 -0.4471  0.1899
10805TIP3    H153906   4.020   4.827   3.024  1.0396 -0.1015 -0.9423
10805TIP3    H253907   4.063   4.903   3.147 -1.5305 -1.2420  0.7318
10806TIP3   OH253908   2.514   3.487   1.673 -0.2144  0.6151  0.5111
10806TIP3    H153909   2.526   3.576   1.709 -1.2326  1.8079 -1.8949
10806TIP3    H253910   2.555   3.490   1.587 -0.6786 -1.1423  0.1928
10807TIP3   OH253911   3.907   5.723   3.089  0.1392 -0.0979 -0.3504
10807TIP3    H153912   3.904   5.723   2.994 -0.1490 -0.3080 -0.3442
10807TIP3    H253913   3.868   5.806   3.115  0.2727 -0.0146 -0.4169
10808TIP3   OH253914   1.878   6.275  16.540  0.2711  0.1188  0.0510
10808TIP3    H153915   1.831   6.347  16.583  0.6142  0.4931 -0.1920
10808TIP3    H253916   1.858   6.199  16.594 -0.3788  0.3271  0.1133
10809TIP3   OH253917   2.367   6.542  16.079  0.1911  0.2899  0.2827
10809TIP3    H153918   2.421   6.469  16.107 -0.1398  0.2711  0.8894
10809TIP3    H253919   2.408   6.572  15.997 -0.1140 -1.0343 -0.3760
10810TIP3   OH253920   5.208   6.749   1.354 -0.0719  0.2388 -0.1258
10810TIP3    H153921   5.239   6.690   1.422 -0.1764 -0.0432 -0.3233
10810TIP3    H253922   5.167   6.821   1.402 -0.4502 -0.1257  0.1059
10811TIP3   OH253923   5.548   5.057   1.651  0.4519  0.1680  0.3606
10811TIP3    H153924   5.551   5.114   1.728  0.2115 -0.0931  0.5641
10811TIP3    H253925   5.625   5.082   1.600  0.8420  0.0566  0.8861
10812TIP3   OH253926   0.182   0.808   2.897  0.3334 -0.1831  0.0299
10812TIP3    H153927   0.207   0.892   2.859  0.6869 -0.2895  0.0275
10812TIP3    H253928   0.222   0.807   2.983  0.7139 -0.5432 -0.1493
10813TIP3   OH253929   2.306   5.643  10.141 -0.4219 -0.4921  0.4415
10813TIP3    H153930   2.355   5.574  10.096  0.2745 -0.5178  1.2200
10813TIP3    H253931   2.227   5.599  10.172 -0.1148 -0.8779  0.6887
10814TIP3   OH253932   5.361   5.338   0.904 -0.0241 -0.3071  0.0952
10814TIP3    H153933   5.278   5.341   0.857  0.9941 -2.1204 -1.9988
10814TIP3    H253934   5.355   5.409   0.968 -2.9931 -0.1414 -0.2356
10815TIP3   OH253935   0.019   2.637  16.630 -0.5540 -0.4231 -0.6979
10815TIP3    H153936  -0.030   2.676  16.558  0.8939  1.1670 -0.8838
10815TIP3    H253937   0.044   2.711  16.685 -0.4365 -1.4623  0.7158
10816TIP3   OH253938   5.196   1.816   4.254  0.5498 -0.1846  0.7490
10816TIP3    H153939   5.116   1.857   4.288  1.5163 -0.5600  3.7713
10816TIP3    H253940   5.165   1.738   4.208 -0.8967  0.2871  0.8796
10817TIP3   OH253941   1.263   1.397   4.826  0.3040 -0.4791 -0.1826
10817TIP3    H153942   1.349   1.433   4.804 -0.0282 -0.7589 -2.0859
10817TIP3    H253943   1.243   1.336   4.755 -2.1380  0.7281 -0.6250
10818TIP3   OH253944   0.705   2.172   6.022 -0.2866  0.4244  0.1129
10818TIP3    H153945   0.748   2.214   6.096  0.0496 -0.0144  0.1752
10818TIP3    H253946   0.622   2.141   6.057  0.5094 -1.1212  0.7330
10819TIP3   OH253947   3.284   4.185   6.054 -0.2005 -0.2248  0.9006
10819TIP3    H153948   3.358   4.125   6.061  0.7083  0.8352  0.8294
10819TIP3    H253949   3.257   4.201   6.144 -0.1926 -0.4326  0.9410
10820TIP3   OH253950   3.090   4.643  12.783  0.1748 -0.3455 -0.3198
10820TIP3    H153951   3.053   4.569  12.734 -0.0929  0.2450 -1.0269
10820TIP3    H253952   3.107   4.607  12.870  2.9256 -2.1333 -1.4368
10821TIP3   OH253953   2.978   3.877  16.148 -0.9114 -0.0349 -0.4019
10821TIP3    H153954   2.902   3.918  16.107  1.2160  1.5721 -3.0606
10821TIP3    H253955   2.966   3.784  16.133 -2.4318  0.1595 -0.5612
10822TIP3   OH253956   5.435   3.015   2.317  0.2108  0.2784  0.8618
10822TIP3    H153957   5.502   3.042   2.255 -0.2039 -1.2732 -0.3384
10822TIP3    H253958   5.475   3.028   2.403  2.1248 -0.7674  0.1879
10823TIP3   OH253959   4.220   0.573  13.626  0.0927 -0.1663  0.2822
10823TIP3    H153960   4.133   0.611  13.616 -0.3206 -0.8437  1.1250
10823TIP3    H253961   4.206   0.479  13.609  0.7078 -0.2417  0.1912
10824TIP3   OH253962   6.438   4.725   6.081 -0.2232 -0.3958 -0.1101
10824TIP3    H153963   6.508   4.785   6.108 -1.4856  2.3697 -2.3953
10824TIP3    H253964   6.400   4.694   6.163  1.4381  0.7696  1.1770
10825TIP3   OH253965   0.557   1.438  11.664 -0.0849 -0.5158  0.5816
10825TIP3    H153966   0.524   1.500  11.729  0.0513 -0.1858  0.3405
10825TIP3    H253967   0.539   1.352  11.701  0.5731 -0.3316  1.3532
10826TIP3   OH253968   3.494   5.966   0.765 -0.9056 -0.3670 -0.2900
10826TIP3    H153969   3.472   5.936   0.677 -1.0769 -2.3108  0.3712
10826TIP3    H253970   3.455   5.900   0.823  0.0084  0.3606  1.1939
10827TIP3   OH253971   3.262   2.984  12.957  0.5977  0.5327 -0.2459
10827TIP3    H153972   3.243   2.913  12.895  1.1308 -0.2708  0.4907
10827TIP3    H253973   3.183   2.989  13.012 -1.0408  3.0589 -2.5977
10828TIP3   OH253974   2.330   3.337   0.926  0.7645 -0.5378  0.1351
10828TIP3    H153975   2.294   3.301   1.007 -2.0972  0.8843 -0.3699
10828TIP3    H253976   2.395   3.400   0.955 -0.8404  0.6163  1.4472
10829TIP3   OH253977   0.839   1.389  12.660 -0.6612  0.5135 -0.1695
10829TIP3    H153978   0.920   1.422  12.700 -1.3251  0.8106  0.9621
10829TIP3    H253979   0.799   1.336  12.729 -1.7794  0.9430 -0.4765
10830TIP3   OH253980   4.546   0.624  17.144  0.5696 -0.3616  0.0376
10830TIP3    H153981   4.580   0.714  17.142  0.9076 -0.3709  2.5512
10830TIP3    H253982   4.612   0.573  17.097  0.1555  0.7225 -1.8091
10831TIP3   OH253983   3.684   4.583   2.411 -0.1112  0.2530  0.2092
10831TIP3    H153984   3.639   4.668   2.417  1.5527  1.1275  1.0167
10831TIP3    H253985   3.662   4.551   2.323 -2.5475  0.4322  0.6827
10832TIP3   OH253986   4.960   3.690   1.944  0.2608 -0.0474  0.5511
10832TIP3    H153987   4.874   3.691   1.985 -0.6735  0.0894 -1.2868
10832TIP3    H253988   4.970   3.777   1.905  0.9032 -0.3047  0.1202
10833TIP3   OH253989   0.126   4.583  12.691  0.7144 -0.2970  0.3598
10833TIP3    H153990   0.195   4.517  12.686 -0.2874 -1.2735 -1.9271
10833TIP3    H253991   0.135   4.634  12.610 -1.2499 -0.4995 -0.0375
10834TIP3   OH253992   3.599   0.060  15.987 -0.6373 -0.2568 -0.1371
10834TIP3    H153993   3.667   0.008  15.944 -0.7034  0.2717 -0.9101
10834TIP3    H253994   3.523   0.001  15.992 -0.8437 -0.1446 -1.3788
10835TIP3   OH253995   2.335   5.571   1.511  0.8228  0.2238  0.3486
10835TIP3    H153996   2.299   5.651   1.548  1.7268  0.4118  0.8654
10835TIP3    H253997   2.427   5.592   1.494  0.7620 -0.3077 -0.7085
10836TIP3   OH253998   6.627   4.220  14.421  0.1972  0.3585 -0.0969
10836TIP3    H153999   6.550   4.271  14.396  0.0659 -0.5229 -1.6476
10836TIP3    H254000   6.611   4.195  14.512 -0.3808  1.8684  0.2341
10837TIP3   OH254001   4.359   3.503  16.154 -0.0710  0.0407  0.1475
10837TIP3    H154002   4.283   3.451  16.127  0.5679 -0.6253 -0.3839
10837TIP3    H254003   4.394   3.539  16.072  0.7812 -0.4819  0.2716
10838TIP3   OH254004   1.287   0.783   5.700 -0.5296  0.0929 -0.3765
10838TIP3    H154005   1.277   0.738   5.617 -0.8596  0.3263 -0.4622
10838TIP3    H254006   1.378   0.813   5.700 -0.7948  0.9498 -1.0874
10839TIP3   OH254007   4.225   1.048   1.272  0.3881 -0.7088 -0.3332
10839TIP3    H154008   4.205   1.020   1.361  1.5438  0.0136  0.1866
10839TIP3    H254009   4.140   1.054   1.228 -0.0282 -3.3085  0.0036
10840TIP3   OH254010   1.365   6.228  12.530 -0.1277 -0.0579 -0.1270
10840TIP3    H154011   1.377   6.281  12.451 -3.1837 -1.5331 -1.7365
10840TIP3    H254012   1.437   6.165  12.528 -0.0148  0.0935 -1.5827
10841TIP3   OH254013   0.990   0.154   1.580 -0.0019 -0.8838 -0.0028
10841TIP3    H154014   0.950   0.230   1.537 -1.2710 -1.5660 -0.0890
10841TIP3    H254015   1.082   0.156   1.554  0.0341  0.7247  0.1509
10842TIP3   OH254016   5.909   3.735  13.332  0.1903  0.0213 -1.1725
10842TIP3    H154017   5.899   3.654  13.381  2.1595 -0.4947 -1.5489
10842TIP3    H254018   5.820   3.765  13.317 -0.5382 -0.7013  1.1970
10843TIP3   OH254019   0.312   4.871   1.005 -0.1944  0.1796  0.0576
10843TIP3    H154020   0.364   4.923   0.944 -1.4784  0.8862 -0.4784
10843TIP3    H254021   0.376   4.832   1.064  0.8138  2.8194  0.8511
10844TIP3   OH254022   0.554   0.620  16.629 -0.0215 -0.1295  0.3767
10844TIP3    H154023   0.503   0.545  16.660 -0.3662  0.4966  1.3580
10844TIP3    H254024   0.611   0.583  16.561 -1.2770 -0.9793 -0.2556
10845TIP3   OH254025   4.176   6.363   5.902  0.2416 -0.0898 -0.3075
10845TIP3    H154026   4.197   6.298   5.969  1.0785 -0.1824 -0.6382
10845TIP3    H254027   4.109   6.321   5.848  0.7305 -0.6618 -0.4804
10846TIP3   OH254028   0.331   6.406   3.622 -0.1067  0.2561  0.5396
10846TIP3    H154029   0.279   6.473   3.578 -0.4487 -0.5350 -0.2885
10846TIP3    H254030   0.418   6.413   3.583 -0.3796 -0.3690 -0.1891
10847TIP3   OH254031   5.263   0.341   5.839 -0.0065 -0.0900  0.0560
10847TIP3    H154032   5.263   0.245   5.846 -0.0644  0.0115  1.8600
10847TIP3    H254033   5.185   0.361   5.787  0.1833 -1.0297 -0.6064
10848TIP3   OH254034   4.754   3.713  13.996  0.1548 -0.2030 -0.7339
10848TIP3    H154035   4.753   3.640  14.058 -0.4871  1.0532  0.8103
10848TIP3    H254036   4.845   3.717  13.966  0.6636 -0.3950  0.7123
10849TIP3   OH254037   4.724   4.106   1.849 -0.0659  0.1023 -0.5162
10849TIP3    H154038   4.734   4.168   1.921  3.0630 -0.4104 -0.4015
10849TIP3    H254039   4.735   4.159   1.770  1.0099 -0.0200 -0.4604
10850TIP3   OH254040   1.750   1.533  14.344 -0.0940 -0.5883  0.0776
10850TIP3    H154041   1.837   1.526  14.383 -0.7306 -1.0928  1.4623
10850TIP3    H254042   1.711   1.446  14.356 -1.9915  0.4603  2.5108
10851TIP3   OH254043   1.206   0.712  15.697 -0.0832  0.5792 -0.0850
10851TIP3    H154044   1.179   0.622  15.715  0.9730  0.2271 -0.1719
10851TIP3    H254045   1.213   0.717  15.602  1.3817  0.2637 -0.0207
10852TIP3   OH254046   5.745   2.264   5.280  0.1718  0.6854 -0.3326
10852TIP3    H154047   5.751   2.180   5.237 -2.0958  0.2650  0.0475
10852TIP3    H254048   5.768   2.328   5.212  0.2269 -0.1335 -1.1000
10853TIP3   OH254049   3.562   0.645  11.543  0.1574 -0.1561 -0.3943
10853TIP3    H154050   3.555   0.733  11.505  0.3081 -0.0956 -0.2811
10853TIP3    H254051   3.496   0.594  11.495  0.2676 -0.0529 -0.6613
10854TIP3   OH254052   4.035   4.060   5.772 -0.4960  0.0002 -0.1818
10854TIP3    H154053   3.998   4.083   5.687  0.3122 -0.8060 -0.7797
10854TIP3    H254054   3.977   3.993   5.807  0.7720 -1.8953 -1.5042
10855TIP3   OH254055   4.162   0.957   2.099  0.4840 -0.3911  0.6474
10855TIP3    H154056   4.162   0.901   2.176 -0.1408  0.8048  1.5422
10855TIP3    H254057   4.210   1.036   2.126 -1.0971  0.7092  0.3553
10856TIP3   OH254058   1.242   6.796  13.040  0.2206 -0.2949  0.4221
10856TIP3    H154059   1.287   6.744  12.974 -1.0622 -0.7380 -0.1461
10856TIP3    H254060   1.308   6.858  13.072  0.9587 -0.2702 -1.0664
10857TIP3   OH254061   2.154   2.809   2.510 -0.3164 -0.4290  0.1799
10857TIP3    H154062   2.154   2.825   2.604 -0.3842 -1.4747  0.3780
10857TIP3    H254063   2.206   2.880   2.473  0.1551 -0.2935  1.0695
10858TIP3   OH254064   2.126   5.402  16.370 -0.0523  0.1111 -0.2333
10858TIP3    H154065   2.087   5.472  16.318  0.3936  0.7407  0.2670
10858TIP3    H254066   2.055   5.371  16.426 -0.4203 -0.2806 -0.9021
10859TIP3   OH254067   4.866   0.114  17.005  0.9125  0.4011  0.3523
10859TIP3    H154068   4.856   0.133  17.098  1.1326 -0.2859  0.5228
10859TIP3    H254069   4.889   0.199  16.966 -2.2415  1.4077  0.4051
10860TIP3   OH254070   5.332   4.503   3.715 -0.3699  1.0234  0.0056
10860TIP3    H154071   5.362   4.579   3.665  0.0905 -0.1569 -1.6008
10860TIP3    H254072   5.315   4.436   3.649  1.8580 -1.1823  1.4744
10861TIP3   OH254073   1.233   4.650  16.151  0.2316 -0.1399  0.2057
10861TIP3    H154074   1.234   4.711  16.077 -1.4503  1.8567  1.7155
10861TIP3    H254075   1.173   4.581  16.124 -0.5777  0.7019 -0.2292
10862TIP3   OH254076   5.932   1.892  16.020  0.0038 -0.1943 -0.4719
10862TIP3    H154077   5.963   1.857  16.104  0.0520 -0.2662 -0.5194
10862TIP3    H254078   5.969   1.981  16.016 -1.6213  0.5758  0.4978
10863TIP3   OH254079   4.661   5.952  11.968 -0.2508  0.7342 -0.2439
10863TIP3    H154080   4.662   5.914  12.056  0.1155  1.8873  0.2766
10863TIP3    H254081   4.651   6.046  11.983 -0.9081  0.8757 -1.4739
10864TIP3   OH254082   5.988   0.659   1.228  0.3013 -0.2658  0.5226
10864TIP3    H154083   5.927   0.703   1.169  0.0355 -1.5172 -0.1692
10864TIP3    H254084   5.939   0.647   1.310 -0.3686 -1.1460  0.0147
10865TIP3   OH254085   5.088   6.634   2.396  0.1603  0.1688 -0.7981
10865TIP3    H154086   5.074   6.620   2.490  1.1959 -1.5281 -0.8554
10865TIP3    H254087   5.143   6.712   2.392 -2.0872  1.8958 -0.1791
10866TIP3   OH254088   3.169   4.044   4.022 -0.5036 -0.2988 -0.1311
10866TIP3    H154089   3.139   3.973   4.078 -1.7639  0.2338 -0.0954
10866TIP3    H254090   3.181   4.119   4.081  0.2226 -0.3075 -0.2590
10867TIP3   OH254091   2.488   4.701  14.603  0.3173  0.8849  0.2937
10867TIP3    H154092   2.549   4.727  14.673 -0.6280  0.2083  1.4049
10867TIP3    H254093   2.423   4.772  14.601 -0.8366 -0.0747  1.5893
10868TIP3   OH254094   4.765   0.657   3.542 -0.3526 -0.4127  0.9319
10868TIP3    H154095   4.708   0.685   3.470  0.3968 -1.3265 -0.0610
10868TIP3    H254096   4.710   0.601   3.596 -0.6803 -0.4762  0.5397
10869TIP3   OH254097   0.935   4.853   0.560  0.4815 -0.0140  0.4099
10869TIP3    H154098   0.998   4.914   0.522 -0.3797  0.0459 -1.0086
10869TIP3    H254099   0.910   4.796   0.487  0.7351 -1.6325  1.5403
10870TIP3   OH254100   3.131   3.091  13.171 -0.2586  0.2280  0.5587
10870TIP3    H154101   3.106   3.018  13.228  0.4623  1.2186  2.2382
10870TIP3    H254102   3.083   3.166  13.206  0.3026  0.8929 -0.0550
10871TIP3   OH254103   1.711   2.670  12.855  0.1344 -0.2066  0.0615
10871TIP3    H154104   1.679   2.758  12.875  2.2044  1.2396 -2.2151
10871TIP3    H254105   1.742   2.635  12.938  0.5450  1.8509  0.8336
10872TIP3   OH254106   0.547   2.466  13.038 -0.2452  0.3401 -0.1451
10872TIP3    H154107   0.454   2.488  13.033 -0.3798 -0.0853  0.4745
10872TIP3    H254108   0.565   2.419  12.957 -0.7165 -0.1333  0.0236
10873TIP3   OH254109   0.745   3.077  15.659 -0.2215  0.2218  0.1422
10873TIP3    H154110   0.733   3.153  15.715 -2.0752  1.4555 -1.7668
10873TIP3    H254111   0.833   3.088  15.622  0.3588  0.2650  1.4781
10874TIP3   OH254112   5.568   4.874   1.038 -0.6419  1.3684  0.4698
10874TIP3    H154113   5.606   4.954   1.002  2.5884 -0.1545  0.1354
10874TIP3    H254114   5.565   4.889   1.132 -0.3843  2.0180  0.3786
10875TIP3   OH254115   4.261   2.787  14.538  0.1491 -0.3086 -0.1519
10875TIP3    H154116   4.199   2.808  14.608 -0.9930 -0.2004 -1.1579
10875TIP3    H254117   4.328   2.733  14.579 -0.0464  0.4448  1.1959
10876TIP3   OH254118   6.432   2.573   4.505 -0.0786  0.2333  0.0885
10876TIP3    H154119   6.426   2.607   4.594  1.1564 -0.8938  0.6357
10876TIP3    H254120   6.365   2.504   4.501 -0.0369  0.1871  0.1955
10877TIP3   OH254121   1.758   0.299   2.740 -0.1906 -0.0178  0.1571
10877TIP3    H154122   1.798   0.233   2.796  0.4475  0.2421  0.0198
10877TIP3    H254123   1.683   0.331   2.790 -1.7206 -2.2066 -0.5750
10878TIP3   OH254124   2.725   3.979  16.145 -0.6188 -0.0011 -0.7124
10878TIP3    H154125   2.667   3.916  16.187 -2.4037  1.7159 -0.4847
10878TIP3    H254126   2.696   4.064  16.177  2.5982  0.9273  0.0883
10879TIP3   OH254127   3.467   4.863   4.828  0.5218 -0.0808 -0.5056
10879TIP3    H154128   3.465   4.959   4.820 -1.8978 -0.0284 -0.2310
10879TIP3    H254129   3.446   4.847   4.920 -0.0134 -0.8662 -0.7583
10880TIP3   OH254130   3.636   0.940  16.071 -0.1084  0.2436 -0.6934
10880TIP3    H154131   3.688   1.018  16.085 -1.4011  0.9470  0.4108
10880TIP3    H254132   3.608   0.913  16.159 -0.2562 -1.0553 -1.1152
10881TIP3   OH254133   1.006   5.904   1.697  0.7923  0.1466 -0.0779
10881TIP3    H154134   1.067   5.837   1.667  0.6158 -0.1859  0.2931
10881TIP3    H254135   0.926   5.856   1.718  1.3643  0.1271  2.3308
10882TIP3   OH254136   0.528   1.571  14.156  0.2614  0.1423  0.0438
10882TIP3    H154137   0.590   1.625  14.107 -1.4232  1.0424 -1.1927
10882TIP3    H254138   0.582   1.501  14.193  1.6319 -0.7395 -3.3066
10883TIP3   OH254139   5.728   3.323  14.735  0.1256  0.0861 -0.3098
10883TIP3    H154140   5.756   3.231  14.739 -1.4941 -0.3942  0.7206
10883TIP3    H254141   5.634   3.321  14.755 -0.2597  1.8282 -1.7233
10884TIP3   OH254142   5.039   0.355  13.711 -0.5251 -0.4659 -0.3147
10884TIP3    H154143   4.955   0.328  13.746 -0.9696  0.8999 -0.2502
10884TIP3    H254144   5.065   0.429  13.766  0.4866 -0.5726 -0.6351
10885TIP3   OH254145   6.192   2.141  12.366  0.1872  0.0450 -0.0444
10885TIP3    H154146   6.192   2.222  12.316 -0.6641  1.5914  2.2920
10885TIP3    H254147   6.264   2.151  12.429 -0.2032 -0.7949  0.5622
10886TIP3   OH254148   4.266   3.247   1.750  0.0510 -0.7065 -0.0291
10886TIP3    H154149   4.344   3.288   1.788 -0.6219  0.1985  0.4327
10886TIP3    H254150   4.223   3.318   1.701 -1.1496 -0.8167  0.8020
10887TIP3   OH254151   5.924   5.268   4.222 -0.4295 -0.0436 -0.1429
10887TIP3    H154152   5.950   5.347   4.175  1.1053  0.0715  0.8308
10887TIP3    H254153   5.974   5.198   4.180  2.4097  0.3018  2.3018
10888TIP3   OH254154   6.073   1.078   5.502  1.0044  0.5084  0.0734
10888TIP3    H154155   6.058   1.124   5.584 -0.2386  0.1074  0.1039
10888TIP3    H254156   6.050   0.987   5.521  2.9882 -0.0779 -0.1076
10889TIP3   OH254157   1.621   4.383  12.054 -0.0063  0.3789 -0.3222
10889TIP3    H154158   1.688   4.445  12.082  0.4244 -0.4194  0.4631
10889TIP3    H254159   1.538   4.429  12.069  0.3464  1.3236 -1.1792
10890TIP3   OH254160   5.144   3.699   3.730  0.1185  0.1997  0.2546
10890TIP3    H154161   5.090   3.649   3.791  0.4362 -0.2886  0.1392
10890TIP3    H254162   5.086   3.769   3.699 -0.5166 -0.4199  0.0009
10891TIP3   OH254163   1.367   3.290   4.422 -0.5745 -0.5447 -0.2672
10891TIP3    H154164   1.295   3.275   4.361 -1.5611 -0.5893  0.8853
10891TIP3    H254165   1.446   3.272   4.371 -1.3927 -0.9713 -1.4054
10892TIP3   OH254166   1.460   1.869   2.753  0.0617  0.0299 -0.7080
10892TIP3    H154167   1.541   1.913   2.728  0.1901  0.5213  0.5150
10892TIP3    H254168   1.478   1.832   2.839 -0.7587 -0.5432 -0.7688
10893TIP3   OH254169   3.775   5.709   1.175  0.1958 -0.0268  0.0365
10893TIP3    H154170   3.847   5.692   1.236  0.3267 -1.7596 -0.5486
10893TIP3    H254171   3.699   5.722   1.232  0.7750  0.8621  0.6310
10894TIP3   OH254172   6.271   0.892   4.648 -0.2993  0.4141  0.3914
10894TIP3    H154173   6.294   0.981   4.674 -0.9768  1.0802 -1.1891
10894TIP3    H254174   6.183   0.900   4.612 -1.0223 -1.1970  1.6810
10895TIP3   OH254175   4.249   6.707   0.983  0.7087 -0.1510  0.0224
10895TIP3    H154176   4.170   6.736   0.937  0.2364 -0.0206  0.8987
10895TIP3    H254177   4.314   6.775   0.965  0.3048  0.2738  0.1754
10896TIP3   OH254178   6.441   3.462   0.951  0.0242  0.2235 -0.1533
10896TIP3    H154179   6.360   3.496   0.913 -1.5984 -0.6489  2.2417
10896TIP3    H254180   6.451   3.510   1.033  0.9080 -0.9268  0.4488
10897TIP3   OH254181   0.536   0.814   5.636 -0.1858  0.2994 -0.0676
10897TIP3    H154182   0.489   0.772   5.708  1.5604  3.2588  3.1117
10897TIP3    H254183   0.622   0.772   5.636 -0.2632  0.1289 -0.6698
10898TIP3   OH254184   6.762   5.683   5.946 -0.7931 -0.0953  0.3235
10898TIP3    H154185   6.850   5.721   5.947  0.3058 -2.4756  1.2149
10898TIP3    H254186   6.713   5.734   6.011 -0.2846  1.5771 -0.5349
10899TIP3   OH254187   0.493   4.908  14.811  0.3690 -0.0649  0.4676
10899TIP3    H154188   0.549   4.897  14.888  0.8424 -0.7844  0.0448
10899TIP3    H254189   0.500   4.824  14.765  1.7623  1.0043 -1.4326
10900TIP3   OH254190   0.389   3.524  13.180  0.0004 -0.1764  0.4266
10900TIP3    H154191   0.300   3.552  13.160  0.0443  0.5112  1.1389
10900TIP3    H254192   0.427   3.598  13.228  1.3563  0.0485 -0.9336
10901TIP3   OH254193   2.313   0.858   1.009  0.6313 -0.1220  0.1274
10901TIP3    H154194   2.320   0.926   1.075 -2.8068 -1.2854  1.9615
10901TIP3    H254195   2.224   0.868   0.974  0.8659 -2.1929 -1.2548
10902TIP3   OH254196   4.944   5.362   1.606  0.2281  0.3577  0.1253
10902TIP3    H154197   4.872   5.404   1.559 -0.2658 -1.7018 -1.0745
10902TIP3    H254198   4.984   5.304   1.541  2.0866  0.3959  1.1722
10903TIP3   OH254199   0.922   0.770   1.584 -0.3830 -0.1406 -0.1252
10903TIP3    H154200   0.876   0.833   1.640 -2.2361 -1.6472  0.1187
10903TIP3    H254201   0.880   0.779   1.499  0.8097  0.4259 -0.6863
10904TIP3   OH254202   4.747   4.224   1.062 -0.6626  0.1193 -0.0972
10904TIP3    H154203   4.716   4.208   0.973  1.7566  0.5378 -1.0969
10904TIP3    H254204   4.723   4.145   1.110 -2.6797  0.1989 -0.8889
10905TIP3   OH254205   2.688   5.763   5.346  0.3338 -0.9226  0.0411
10905TIP3    H154206   2.683   5.682   5.295  3.1603 -1.4290  0.4323
10905TIP3    H254207   2.710   5.831   5.282  0.3374 -0.9046  0.0613
10906TIP3   OH254208   1.648   1.882   0.052  0.6217  0.2406 -0.4173
10906TIP3    H154209   1.607   1.958   0.010 -1.6935 -0.9315 -0.3938
10906TIP3    H254210   1.580   1.845   0.107  1.3522 -2.4147 -1.1619
10907TIP3   OH254211   1.156   5.057  13.933  0.6761  0.0466 -0.1351
10907TIP3    H154212   1.176   5.086  13.844  1.6717  1.4565  0.5148
10907TIP3    H254213   1.112   5.133  13.973  0.3774 -0.5188  0.6306
10908TIP3   OH254214   0.156   6.227  16.129  0.1625 -0.5763 -0.0803
10908TIP3    H154215   0.097   6.164  16.088  0.8538 -0.7800 -0.8009
10908TIP3    H254216   0.119   6.242  16.216 -0.1986 -1.7191 -0.0178
10909TIP3   OH254217   4.173   6.693  13.838 -0.1586 -0.5617  0.3939
10909TIP3    H154218   4.171   6.603  13.804  2.2821 -1.8976  3.2849
10909TIP3    H254219   4.119   6.690  13.917 -1.0258  0.8901 -0.1163
10910TIP3   OH254220   5.933   3.904   4.047  0.2961  0.0784 -0.3333
10910TIP3    H154221   5.984   3.837   4.093 -0.3301 -0.0628  0.1678
10910TIP3    H254222   5.877   3.855   3.987  1.2498  0.2732 -1.4133
10911TIP3   OH254223   0.649   2.810  10.438  0.4816 -0.0156  0.3781
10911TIP3    H154224   0.606   2.772  10.515 -0.6172 -1.9282 -1.0761
10911TIP3    H254225   0.741   2.789  10.450  0.1957 -1.1472  0.7585
10912TIP3   OH254226   6.488   2.158  12.159 -0.4467  0.3540 -0.7514
10912TIP3    H154227   6.413   2.215  12.139  0.8093  2.6621  0.6916
10912TIP3    H254228   6.507   2.175  12.251  2.4161  0.5514 -1.3120
10913TIP3   OH254229   1.498   0.068  15.020 -0.0921 -0.2349 -0.4715
10913TIP3    H154230   1.558   0.140  14.999 -0.3223  0.3427  0.7313
10913TIP3    H254231   1.553  -0.011  15.018  0.4201  0.1194 -0.6716
10914TIP3   OH254232   1.007   0.279   2.886  0.3008 -0.2439  0.3302
10914TIP3    H154233   0.962   0.235   2.814 -1.0284  0.6310  0.5907
10914TIP3    H254234   0.956   0.256   2.963  0.7231  0.1922  0.7444
10915TIP3   OH254235   4.190   6.198   2.364  0.8154  0.1825 -0.0524
10915TIP3    H154236   4.246   6.128   2.397  1.3877  1.4010  1.7563
10915TIP3    H254237   4.250   6.259   2.321  0.9340  1.3499  1.6442
10916TIP3   OH254238   0.383   0.685   1.554 -0.1072  0.1200 -0.4093
10916TIP3    H154239   0.384   0.654   1.463  0.9321  0.0051 -0.3782
10916TIP3    H254240   0.336   0.617   1.602 -0.5582  0.1197 -0.8426
10917TIP3   OH254241   6.271   3.236   1.355 -0.1770 -0.2401 -0.5968
10917TIP3    H154242   6.317   3.158   1.325 -0.2441 -1.1389  1.4395
10917TIP3    H254243   6.321   3.265   1.432 -2.6184 -0.9998  1.4304
10918TIP3   OH254244   2.846   1.923   0.267 -0.2093 -0.6027 -0.2692
10918TIP3    H154245   2.846   2.017   0.248  1.0816  0.5703  4.2862
10918TIP3    H254246   2.773   1.911   0.328  0.3713 -2.3009  0.1339
10919TIP3   OH254247   6.676   1.792  15.274  0.0747 -0.3625  0.2184
10919TIP3    H154248   6.645   1.715  15.321 -1.3058 -0.5885 -1.0040
10919TIP3    H254249   6.680   1.765  15.183 -1.2647  1.2134 -0.3677
10920TIP3   OH254250   6.038   2.882  14.655 -0.4561  0.8596 -0.4555
10920TIP3    H154251   5.986   2.919  14.584 -0.2708 -0.4496 -1.3098
10920TIP3    H254252   5.982   2.815  14.694 -0.5100  1.4788  0.5809
10921TIP3   OH254253   1.797   3.300   4.652 -0.4414 -0.3662  0.8225
10921TIP3    H154254   1.792   3.206   4.633  0.3572 -0.2794  0.1004
10921TIP3    H254255   1.706   3.330   4.647 -0.9297 -1.3534  2.5769
10922TIP3   OH254256   1.592   0.313  14.916 -0.4523  0.0929  0.1858
10922TIP3    H154257   1.667   0.291  14.861 -0.3707  2.5769 -0.8251
10922TIP3    H254258   1.518   0.316  14.856 -0.8701  0.2795  0.6988
10923TIP3   OH254259   1.855   5.931  10.989 -0.1997  0.3460  0.2093
10923TIP3    H154260   1.835   5.893  11.074 -1.4735 -0.8763 -0.5862
10923TIP3    H254261   1.951   5.934  10.986 -0.1145 -0.7711  1.1958
10924TIP3   OH254262   2.153   0.437   3.996 -0.6760  0.3787  0.2300
10924TIP3    H154263   2.148   0.399   3.908  1.4239 -1.3482  0.7717
10924TIP3    H254264   2.063   0.434   4.029 -1.5369  1.2394 -1.8930
10925TIP3   OH254265   4.160   4.352  16.795 -0.3703  0.1652 -0.0269
10925TIP3    H154266   4.147   4.279  16.856 -2.4500  2.0635  1.9978
10925TIP3    H254267   4.246   4.386  16.816  0.1998 -1.0573 -0.2950
10926TIP3   OH254268   0.400   2.137   2.125 -0.4269 -0.1242 -0.0309
10926TIP3    H154269   0.472   2.098   2.075  1.5116 -1.2480  3.2809
10926TIP3    H254270   0.423   2.118   2.217 -2.8418  3.1596  1.4158
10927TIP3   OH254271   4.281   5.876  12.619  0.0828  0.1898 -0.0321
10927TIP3    H154272   4.213   5.914  12.564 -0.5214 -0.9061 -0.0822
10927TIP3    H254273   4.234   5.811  12.673  0.2323  2.5813  3.2724
10928TIP3   OH254274   3.024   2.896   1.723  0.0147  0.7674  0.5442
10928TIP3    H154275   3.005   2.959   1.654  1.8915  1.8275  0.9272
10928TIP3    H254276   2.996   2.812   1.687 -0.4590  1.5092 -0.8775
10929TIP3   OH254277   5.586   3.897   1.228  0.8498 -0.1154  0.3627
10929TIP3    H154278   5.632   3.868   1.307  0.7237 -0.5416  0.2792
10929TIP3    H254279   5.533   3.971   1.258  0.6791 -0.3757  0.7119
10930TIP3   OH254280   6.396   4.931   0.358  0.3065  0.5975  0.5352
10930TIP3    H154281   6.490   4.917   0.347  0.0392 -1.3307  0.3363
10930TIP3    H254282   6.390   5.001   0.423  1.8648  1.3185 -0.0310
10931TIP3   OH254283   2.297   1.696   2.444 -0.2604 -0.1522  0.2877
10931TIP3    H154284   2.241   1.656   2.510  0.3665  1.2448  1.7176
10931TIP3    H254285   2.364   1.743   2.494  1.5486 -0.8298 -1.3464
10932TIP3   OH254286   4.157   1.875  16.304  0.2142  0.3204 -0.3373
10932TIP3    H154287   4.110   1.792  16.314 -1.0217  1.1453  1.2051
10932TIP3    H254288   4.228   1.855  16.243  0.2109 -1.9667  0.3017
10933TIP3   OH254289   1.762   0.803  10.495 -0.0635  0.3464 -0.1781
10933TIP3    H154290   1.690   0.789  10.556 -1.0333  0.3586 -1.2915
10933TIP3    H254291   1.817   0.725  10.505 -0.4427  0.1430  0.3750
10934TIP3   OH254292   0.211   3.977   4.092 -0.0405  0.3493 -0.0276
10934TIP3    H154293   0.143   4.030   4.133  1.0189  1.5767  0.1946
10934TIP3    H254294   0.232   3.911   4.157 -0.9882 -0.0440 -0.0950
10935TIP3   OH254295   1.202   5.295   4.129 -0.2829  0.0341  0.3596
10935TIP3    H154296   1.167   5.359   4.191 -1.3624 -1.1480  1.0351
10935TIP3    H254297   1.162   5.319   4.045  1.2246  1.6723  0.0432
10936TIP3   OH254298   0.436   4.129  12.091 -0.5324  0.4719 -0.0717
10936TIP3    H154299   0.457   4.158  12.002  1.2052 -0.6136 -0.0445
10936TIP3    H254300   0.451   4.206  12.146  0.8996  0.4614 -0.4107
10937TIP3   OH254301   3.319   1.523  16.911  0.4695  0.5087 -0.2257
10937TIP3    H154302   3.290   1.448  16.962 -1.9684  0.1721 -1.9089
10937TIP3    H254303   3.414   1.522  16.918  0.3796 -1.3178  1.7054
10938TIP3   OH254304   1.885   1.843   3.872  0.6139  0.8946 -0.0685
10938TIP3    H154305   1.835   1.883   3.801 -0.1505  0.3769  0.1622
10938TIP3    H254306   1.819   1.798   3.926  1.5740 -2.3484 -1.3589
10939TIP3   OH254307   1.121   5.436  14.313 -0.0583 -0.3834  0.0817
10939TIP3    H154308   1.121   5.413  14.220 -1.6229 -1.8122  0.3921
10939TIP3    H254309   1.160   5.523  14.316  2.5663 -1.3789 -1.6017
10940TIP3   OH254310   0.205   0.552  15.635 -0.4577 -0.0782  0.2675
10940TIP3    H154311   0.286   0.601  15.619 -0.3718 -0.3919 -0.2928
10940TIP3    H254312   0.135   0.617  15.623 -0.4727 -0.5219 -2.6503
10941TIP3   OH254313   2.008   1.525  11.453  0.5744  0.3236  0.1530
10941TIP3    H154314   1.946   1.494  11.387 -1.0440  2.0181  0.7834
10941TIP3    H254315   2.045   1.445  11.491 -2.2093 -0.8287  0.6541
10942TIP3   OH254316   5.047   6.585  11.614  0.1761  0.7312 -0.7774
10942TIP3    H154317   5.072   6.554  11.700 -0.6890  2.3997  0.1253
10942TIP3    H254318   5.053   6.680  11.620 -1.2089  0.9485 -2.1298
10943TIP3   OH254319   2.254   1.138   3.386 -0.3677  0.4039  0.3751
10943TIP3    H154320   2.323   1.087   3.344 -0.6568 -0.0418  0.4371
10943TIP3    H254321   2.234   1.090   3.466  0.1812  1.2450  1.0369
10944TIP3   OH254322   3.724   4.035   3.285  0.4561  0.6289  0.2962
10944TIP3    H154323   3.659   4.102   3.309  0.1111  1.0695 -1.7105
10944TIP3    H254324   3.796   4.084   3.246  0.6718 -0.0775 -0.2170
10945TIP3   OH254325   1.553   2.782  10.984 -0.1362 -0.1727 -0.3224
10945TIP3    H154326   1.622   2.846  10.970  0.2678 -0.3839  0.6628
10945TIP3    H254327   1.587   2.702  10.945 -0.4881  0.1096 -1.2274
10946TIP3   OH254328   4.522   5.946  12.715  0.3806  0.1223  0.1948
10946TIP3    H154329   4.577   5.888  12.661  1.0657 -0.4276  1.4433
10946TIP3    H254330   4.433   5.931  12.683  0.7489 -0.3287 -0.6597
10947TIP3   OH254331   5.649   6.061  11.621 -0.4960  0.1505  1.0212
10947TIP3    H154332   5.657   6.156  11.614 -0.5114  0.1271  0.7098
10947TIP3    H254333   5.697   6.039  11.701 -0.8702  0.4706  1.3377
10948TIP3   OH254334   0.661   4.933   1.083 -0.1258  0.1293 -0.8023
10948TIP3    H154335   0.742   4.886   1.067  0.7010  0.3483  2.0924
10948TIP3    H254336   0.602   4.868   1.121 -0.1590  0.6550  0.0754
10949TIP3   OH254337   1.043   4.681  16.805 -0.2907 -0.2669 -0.3996
10949TIP3    H154338   0.966   4.648  16.758 -0.5782  1.4787 -1.2746
10949TIP3    H254339   1.008   4.747  16.864  0.2721 -1.3160  1.1464
10950TIP3   OH254340   1.404   3.231   4.814  0.2255  0.0116  0.4747
10950TIP3    H154341   1.409   3.149   4.765  0.4881  0.3636 -0.0942
10950TIP3    H254342   1.314   3.262   4.800  0.7797  0.9659 -1.2058
10951TIP3   OH254343   6.702   0.366  15.907  0.4749  0.0763 -0.0397
10951TIP3    H154344   6.788   0.408  15.909  0.2436  0.6911 -1.4738
10951TIP3    H254345   6.640   0.438  15.891 -0.2423 -0.4338  0.3617
10952TIP3   OH254346   5.360   4.761   0.872 -0.2787  0.0161  0.2410
10952TIP3    H154347   5.424   4.824   0.905  0.9401 -0.1445 -1.6526
10952TIP3    H254348   5.304   4.813   0.814  0.4127 -0.4849 -0.9238
10953TIP3   OH254349   6.713   4.420  15.943  0.3143 -0.2487 -0.1080
10953TIP3    H154350   6.809   4.428  15.943  0.3303 -0.3369  0.5981
10953TIP3    H254351   6.697   4.326  15.932  0.3187 -0.2799  0.1472
10954TIP3   OH254352   1.990   3.639   3.143 -0.4463 -0.0414 -0.0534
10954TIP3    H154353   1.937   3.644   3.222 -0.6144 -1.2261 -0.0676
10954TIP3    H254354   1.926   3.629   3.072 -0.2398 -1.1531 -0.1035
10955TIP3   OH254355   5.186   0.684  16.952  0.1457  0.0832  0.7670
10955TIP3    H154356   5.096   0.652  16.953  0.3970 -0.6711  0.1483
10955TIP3    H254357   5.186   0.754  16.886  0.3488 -0.9913 -0.4123
10956TIP3   OH254358   5.397   6.442   0.722 -0.6826  0.3012  0.4538
10956TIP3    H154359   5.471   6.484   0.678 -1.3804  0.3052 -0.7655
10956TIP3    H254360   5.432   6.358   0.752 -1.1644 -1.8139 -4.0763
10957TIP3   OH254361   5.925   1.386   5.590 -0.1806 -0.1662 -0.3962
10957TIP3    H154362   5.999   1.371   5.530  0.3204  1.2388 -0.1817
10957TIP3    H254363   5.938   1.324   5.661  1.5469  0.8814  0.2729
10958TIP3   OH254364   2.815   1.516  13.485 -0.3527  0.0567 -0.6106
10958TIP3    H154365   2.724   1.542  13.495 -0.2655  0.5421 -1.0282
10958TIP3    H254366   2.864   1.597  13.495  0.0461 -0.2209 -0.2726
10959TIP3   OH254367   6.629   4.959   1.427 -0.3912 -0.0835 -0.2209
10959TIP3    H154368   6.600   4.874   1.391 -3.0957  0.7526 -0.2552
10959TIP3    H254369   6.618   5.020   1.354  1.7452  0.3152 -0.2579
10960TIP3   OH254370   1.389   4.590  12.443 -0.1452  0.3684  0.2683
10960TIP3    H154371   1.299   4.558  12.442  0.5303 -1.6814 -1.6720
10960TIP3    H254372   1.443   4.512  12.434  1.8235  1.6309  0.4223
10961TIP3   OH254373   6.360   0.272   4.269  0.6443 -0.2728  0.1825
10961TIP3    H154374   6.353   0.327   4.347  0.3714 -0.0824  0.0290
10961TIP3    H254375   6.366   0.335   4.196  2.0048 -0.4427  0.1352
10962TIP3   OH254376   5.812   4.082  12.792 -0.0833 -0.9905  0.0567
10962TIP3    H154377   5.779   4.053  12.707 -1.4769  1.4934 -0.3245
10962TIP3    H254378   5.783   4.173  12.800  0.1369 -1.0883  3.1325
10963TIP3   OH254379   3.257   1.333  11.111 -0.4794  0.1822 -0.3832
10963TIP3    H154380   3.343   1.332  11.070 -0.4084 -1.1573 -0.2523
10963TIP3    H254381   3.199   1.372  11.046 -0.0670 -0.3984 -1.1056
10964TIP3   OH254382   3.919   5.717  10.730  0.0145 -0.3397  0.5919
10964TIP3    H154383   3.949   5.765  10.652  0.6352  0.0751  1.0684
10964TIP3    H254384   3.992   5.659  10.752 -0.5959 -1.2566  0.2281
10965TIP3   OH254385   1.750   1.583  16.009 -0.2504  0.0458  0.9121
10965TIP3    H154386   1.788   1.515  15.953 -0.5680  0.2029  0.4949
10965TIP3    H254387   1.671   1.610  15.963  0.9131  2.1328 -0.0168
10966TIP3   OH254388   1.538   4.546   4.774  0.2461  0.3475 -0.4005
10966TIP3    H154389   1.505   4.635   4.787  2.1852  1.0656 -0.1085
10966TIP3    H254390   1.550   4.539   4.679 -0.0932  0.3154 -0.4436
10967TIP3   OH254391   6.679   1.163  10.983 -0.9923  0.3920 -0.2659
10967TIP3    H154392   6.588   1.135  10.976 -1.1672  1.0922 -1.0580
10967TIP3    H254393   6.727   1.102  10.927 -1.2839  1.2394 -1.4943
10968TIP3   OH254394   4.144   1.424   2.257 -0.2474  0.5219  0.6481
10968TIP3    H154395   4.186   1.444   2.174  0.5317  2.2980  1.4134
10968TIP3    H254396   4.066   1.373   2.233  0.8903 -0.5305 -0.9974
10969TIP3   OH254397   0.277   4.459   1.666  0.4305  0.1635 -0.3547
10969TIP3    H154398   0.251   4.440   1.576  1.2789  0.4079 -0.6626
10969TIP3    H254399   0.324   4.380   1.694  1.3627  0.6151 -0.6100
10970TIP3   OH254400   2.565   6.563  15.888 -0.4114 -0.5122 -0.7507
10970TIP3    H154401   2.513   6.541  15.810  1.2935  2.1363 -2.8057
10970TIP3    H254402   2.631   6.494  15.893 -1.0250 -1.1441 -1.1492
10971TIP3   OH254403   0.591   3.207  17.016 -0.2239 -0.0845  0.0125
10971TIP3    H154404   0.596   3.303  17.016 -1.7466  0.0136 -0.1546
10971TIP3    H254405   0.673   3.179  16.975 -1.5175  1.2882 -3.8807
10972TIP3   OH254406   1.789   5.048   5.068  0.3647  0.0094  0.1929
10972TIP3    H154407   1.846   4.979   5.034  2.1694  1.7304 -0.4874
10972TIP3    H254408   1.716   5.052   5.006  1.2114 -0.0346 -0.8337
10973TIP3   OH254409   4.398   0.978   1.033 -0.2758 -0.2739  0.3079
10973TIP3    H154410   4.323   1.005   1.086 -0.8717 -1.6778  0.2182
10973TIP3    H254411   4.444   1.060   1.014 -0.4202  0.3588  2.3958
10974TIP3   OH254412   5.564   1.397   3.509 -0.6192  0.6883  0.4125
10974TIP3    H154413   5.495   1.374   3.447  0.0291 -1.2917  0.3303
10974TIP3    H254414   5.564   1.326   3.573  0.7791  1.0686  0.8813
10975TIP3   OH254415   3.045   2.244   1.027  0.6438 -0.3404  0.1307
10975TIP3    H154416   2.978   2.179   1.004 -0.6795  1.5834 -1.8072
10975TIP3    H254417   3.022   2.322   0.977  3.2404  1.0759  0.9294
10976TIP3   OH254418   4.159   0.264   0.802 -1.0627  0.8712 -0.5985
10976TIP3    H154419   4.147   0.335   0.739  1.6340  2.6506  0.7013
10976TIP3    H254420   4.252   0.245   0.799 -1.4157 -1.2942  0.5067
10977TIP3   OH254421   0.686   1.158   5.989 -0.3313  0.3624  0.1733
10977TIP3    H154422   0.628   1.083   5.978  0.3481  0.0674 -1.9104
10977TIP3    H254423   0.627   1.234   5.990 -0.8530  0.2143 -3.4396
10978TIP3   OH254424   3.297   5.466  16.654 -0.0108 -0.1841 -0.1800
10978TIP3    H154425   3.286   5.430  16.565 -0.6886  0.0751 -0.2042
10978TIP3    H254426   3.390   5.452  16.673  0.1880 -0.0756 -1.0033
10979TIP3   OH254427   3.557   5.504  17.031  0.3528  0.2498  0.5475
10979TIP3    H154428   3.515   5.419  17.040 -0.1240  0.0775 -2.2503
10979TIP3    H254429   3.484   5.566  17.028  0.6070  0.5687  0.8679
10980TIP3   OH254430   1.018   1.710   5.737  0.1623  0.3412  0.0755
10980TIP3    H154431   0.959   1.769   5.783  0.8611  0.9734  0.1817
10980TIP3    H254432   1.089   1.766   5.706 -0.9005  0.1996 -2.9626
10981TIP3   OH254433   0.824   2.338  14.345  0.2716  0.1546 -0.5903
10981TIP3    H154434   0.864   2.375  14.424 -0.6868 -0.6280  0.2890
10981TIP3    H254435   0.806   2.247  14.368  0.0476 -0.1052 -1.7476
10982TIP3   OH254436   6.261   1.260   3.593 -0.1691 -0.2766  0.0652
10982TIP3    H154437   6.249   1.241   3.500  1.7895 -0.5807 -0.1669
10982TIP3    H254438   6.264   1.174   3.635 -2.4765 -0.1355  0.6836
10983TIP3   OH254439   1.330   4.105  14.313 -0.5976 -0.4073 -0.4418
10983TIP3    H154440   1.342   4.012  14.330  0.8619  0.0481  1.2523
10983TIP3    H254441   1.321   4.145  14.400 -2.3093  0.9241 -1.1604
10984TIP3   OH254442   6.457   0.792   2.877 -0.5423  0.2389  0.0166
10984TIP3    H154443   6.549   0.818   2.886  0.4270 -2.5289 -0.7897
10984TIP3    H254444   6.410   0.850   2.937  1.7352  1.5434  0.6923
10985TIP3   OH254445   3.965   0.609  12.970  0.2518  0.4097 -0.3199
10985TIP3    H154446   4.040   0.662  12.945 -0.1546  0.5051 -1.3711
10985TIP3    H254447   3.969   0.533  12.913 -0.6965  0.6337 -0.7110
10986TIP3   OH254448   2.250   5.335  14.808  0.1367  0.5007  0.7786
10986TIP3    H154449   2.340   5.348  14.837 -0.0327  0.1098  1.5182
10986TIP3    H254450   2.237   5.399  14.739  1.0915  0.3270  0.4286
10987TIP3   OH254451   3.961   0.060   2.171  0.1158 -0.5400  0.2141
10987TIP3    H154452   4.033   0.078   2.231  0.2035  0.6718 -0.2209
10987TIP3    H254453   3.885   0.100   2.212  0.3098  0.9321 -0.7751
10988TIP3   OH254454   0.749   3.293  15.828  0.3267  0.0725 -0.2648
10988TIP3    H154455   0.815   3.353  15.862  1.0617 -0.7983 -0.1205
10988TIP3    H254456   0.683   3.288  15.897  1.6538 -1.4409  0.9408
10989TIP3   OH254457   5.746   0.558   5.386  0.4232 -0.0653  0.2313
10989TIP3    H154458   5.687   0.512   5.444  1.2496 -0.4206  0.8040
10989TIP3    H254459   5.691   0.625   5.344 -0.4066 -0.4868  0.6253
10990TIP3   OH254460   2.022   1.668  10.646  0.2597  0.0407 -0.0586
10990TIP3    H154461   1.960   1.612  10.694  1.1911 -3.8112 -2.8533
10990TIP3    H254462   1.976   1.690  10.565  1.6857 -1.1667 -1.2627
10991TIP3   OH254463   2.479   6.613   6.636 -0.1796 -0.1080 -0.7002
10991TIP3    H154464   2.433   6.560   6.571  1.1697 -1.0702 -0.9116
10991TIP3    H254465   2.454   6.576   6.720 -2.3450  1.4646 -0.5477
10992TIP3   OH254466   2.152   4.569  13.557  0.8451 -0.3295 -0.3698
10992TIP3    H154467   2.225   4.566  13.619  1.6185 -0.3697 -1.2596
10992TIP3    H254468   2.097   4.495  13.582  1.9378 -1.2761 -0.6607
10993TIP3   OH254469   5.151   2.542  15.214 -0.2148  0.6007 -0.7549
10993TIP3    H154470   5.176   2.484  15.286  1.7185  1.6312 -0.5226
10993TIP3    H254471   5.059   2.521  15.197 -0.5141 -0.1938  1.5111
10994TIP3   OH254472   6.788   1.160  14.266  0.5410 -0.4688 -0.0926
10994TIP3    H154473   6.865   1.108  14.290 -0.2799 -2.1871 -1.0350
10994TIP3    H254474   6.724   1.142  14.335  0.6610  0.3012  0.2373
10995TIP3   OH254475   2.942   4.885   4.571  0.4493 -0.0193  0.0252
10995TIP3    H154476   2.907   4.862   4.484  3.0938 -1.7705 -0.6989
10995TIP3    H254477   3.013   4.946   4.553  0.4478  0.2849  1.0375
10996TIP3   OH254478   0.848   0.975  10.684 -0.8942 -0.0174 -0.0264
10996TIP3    H154479   0.830   1.044  10.747  1.0351 -0.5346  1.1837
10996TIP3    H254480   0.917   1.011  10.629 -0.8959 -0.4507 -0.3121
10997TIP3   OH254481   5.811   3.107   0.756 -0.3091  0.1859  0.3196
10997TIP3    H154482   5.730   3.096   0.705  0.8986  0.4783 -1.7998
10997TIP3    H254483   5.865   3.032   0.731  1.3520  1.7083 -1.0002
10998TIP3   OH254484   5.114   6.449  16.458 -0.5672  0.0429 -0.2496
10998TIP3    H154485   5.146   6.517  16.517 -1.3070  1.9000 -1.8951
10998TIP3    H254486   5.167   6.372  16.479  0.1908  1.0622  1.7770
10999TIP3   OH254487   2.905   1.077  13.794 -0.2243  0.3074  0.4330
10999TIP3    H154488   2.846   1.078  13.719 -0.1338  2.2740  0.3509
10999TIP3    H254489   2.981   1.026  13.764 -2.0912 -3.0162  0.8183
11000TIP3   OH254490   0.337   1.174  12.475 -0.2201  0.3294  0.1642
11000TIP3    H154491   0.401   1.107  12.500  0.6559  1.2011  0.3485
11000TIP3    H254492   0.318   1.155  12.383  0.7564  0.3780 -0.0655
11001TIP3   OH254493   3.292   2.034   4.618 -0.5803 -0.4637 -0.1703
11001TIP3    H154494   3.288   2.101   4.687 -1.5321  1.1611 -1.7187
11001TIP3    H254495   3.245   2.073   4.544  1.3729 -1.6386 -2.1610
11002TIP3   OH254496   1.076   2.937  12.298 -0.1111  0.3245 -0.2168
11002TIP3    H154497   1.004   2.972  12.246  0.1359  0.0285 -0.7660
11002TIP3    H254498   1.120   3.014  12.335  0.2760  0.5918 -1.2044
11003TIP3   OH254499   5.303   5.512   4.629 -0.1235  0.2357  0.7056
11003TIP3    H154500   5.360   5.455   4.577 -0.4137 -0.1493  0.8013
11003TIP3    H254501   5.268   5.575   4.565 -0.4634 -0.2222  0.4315
11004TIP3   OH254502   0.048   1.669   2.423  0.0618  0.4873 -0.0670
11004TIP3    H154503   0.102   1.619   2.484  0.1351  1.0007  0.2956
11004TIP3    H254504   0.088   1.756   2.421  0.5902  0.2394 -1.5268
11005TIP3   OH254505   3.172   4.542  14.920  0.1298  0.1527 -0.5769
11005TIP3    H154506   3.226   4.620  14.908  0.6096  0.2297  1.6557
11005TIP3    H254507   3.083   4.576  14.930  0.4087  0.5112  0.9452
11006TIP3   OH254508   6.481   5.062  12.131 -0.1559  0.9972 -0.4151
11006TIP3    H154509   6.406   5.119  12.148  0.9969  2.2425  0.7114
11006TIP3    H254510   6.524   5.100  12.054 -1.3062 -0.4313 -1.8381
11007TIP3   OH254511   5.256   5.025  14.804  0.9345  0.4737  0.3557
11007TIP3    H154512   5.286   5.092  14.744  1.6620 -0.4858 -0.3935
11007TIP3    H254513   5.301   5.043  14.886  0.9135  1.0490  0.2406
11008TIP3   OH254514   0.601   3.389  16.701  0.3060  0.2198  0.6348
11008TIP3    H154515   0.638   3.317  16.751 -0.4937  0.5784  1.7971
11008TIP3    H254516   0.560   3.347  16.625  0.6717 -0.4464  0.8009
11009TIP3   OH254517   6.593   4.234   5.062  0.0826  0.5473 -0.5359
11009TIP3    H154518   6.673   4.283   5.043 -0.8433  1.5546 -2.0451
11009TIP3    H254519   6.527   4.302   5.077 -1.0684 -0.2167 -1.8921
11010TIP3   OH254520   1.926   1.880   0.119  0.2146  0.6860 -0.2186
11010TIP3    H154521   1.832   1.887   0.103  0.4291 -0.5726 -2.4000
11010TIP3    H254522   1.955   1.809   0.062  2.5141  1.0831  0.3475
11011TIP3   OH254523   3.444   6.050   0.048 -0.3890 -0.2528 -0.4007
11011TIP3    H154524   3.533   6.018   0.033 -0.4273  0.1065 -1.4342
11011TIP3    H254525   3.391   6.005  -0.018 -1.1089 -1.0101  0.6667
11012TIP3   OH254526   1.747   6.570  12.517  1.1180  0.2238  0.1528
11012TIP3    H154527   1.770   6.632  12.447  2.1962  0.4818  0.7298
11012TIP3    H254528   1.801   6.493  12.500  0.5409 -0.1668  0.0470
11013TIP3   OH254529   5.106   4.785  16.859  0.7453 -0.0788  0.0411
11013TIP3    H154530   5.125   4.733  16.781  1.7427 -0.9062  0.8047
11013TIP3    H254531   5.146   4.736  16.931 -2.9631 -1.1231  1.6170
11014TIP3   OH254532   3.016   0.270   3.796 -0.6859  0.0889 -0.2399
11014TIP3    H154533   3.027   0.204   3.727  2.1095  1.0263 -0.8607
11014TIP3    H254534   3.078   0.245   3.864  0.5037  2.0232 -0.5229
11015TIP3   OH254535   0.547   4.437   4.597 -0.0589 -0.5737 -0.4972
11015TIP3    H154536   0.508   4.431   4.684 -0.6210  0.2346 -0.6814
11015TIP3    H254537   0.485   4.490   4.546  0.9815  0.2581 -0.9523
11016TIP3   OH254538   0.042   5.256  16.937 -1.5585 -0.1152 -0.4903
11016TIP3    H154539   0.121   5.229  16.891  0.4694  1.7258  1.6527
11016TIP3    H254540   0.001   5.321  16.880 -0.1601  0.6873 -0.6194
11017TIP3   OH254541   4.892   6.671  11.886  1.1638  0.9472  0.4030
11017TIP3    H154542   4.976   6.627  11.870  0.1066 -1.5753  1.3430
11017TIP3    H254543   4.916   6.751  11.932  3.0405 -0.4420  2.0236
11018TIP3   OH254544   1.210   0.180  13.580 -0.6064 -0.5119  0.0716
11018TIP3    H154545   1.122   0.213  13.562 -0.4720 -1.0623 -1.8527
11018TIP3    H254546   1.268   0.241  13.536 -0.1244 -1.0344 -0.0313
11019TIP3   OH254547   1.527   5.616  15.624  0.4069  0.3523 -0.3652
11019TIP3    H154548   1.438   5.641  15.649  0.6024  1.3446 -0.6352
11019TIP3    H254549   1.526   5.619  15.528  0.6834  0.1878 -0.3739
11020TIP3   OH254550   5.672   5.317   1.710  0.7208 -0.1231 -0.2545
11020TIP3    H154551   5.685   5.281   1.622  1.0569 -0.8655  0.0911
11020TIP3    H254552   5.754   5.298   1.756 -0.1114 -1.3891  0.7723
11021TIP3   OH254553   2.937   6.028   1.521 -0.0662 -0.2595 -0.1034
11021TIP3    H154554   2.994   5.953   1.505  0.0122 -1.1080  3.3767
11021TIP3    H254555   2.943   6.079   1.440 -0.5132 -4.1249 -2.8893
11022TIP3   OH254556   1.187   1.193   6.680  0.3971 -0.2431 -0.2410
11022TIP3    H154557   1.104   1.205   6.633 -0.2692 -2.1850  0.3820
11022TIP3    H254558   1.165   1.138   6.755  1.9924  0.4474  0.7819
11023TIP3   OH254559   1.507   3.824  13.557 -0.0044 -0.2757  0.0771
11023TIP3    H154560   1.580   3.792  13.611  0.0755  0.1302  0.2176
11023TIP3    H254561   1.430   3.812  13.612  0.2461  1.4364  0.8620
11024TIP3   OH254562   4.620   0.261  15.407 -0.0179 -0.1552 -0.6401
11024TIP3    H154563   4.548   0.232  15.463  0.2670 -1.6553 -1.0164
11024TIP3    H254564   4.658   0.335  15.454 -0.2207 -0.9360  0.8278
11025TIP3   OH254565   5.782   1.736   3.861  0.0010 -0.1735  0.3530
11025TIP3    H154566   5.711   1.683   3.825 -0.8834  1.0798  0.1886
11025TIP3    H254567   5.745   1.772   3.942  0.3028  0.7908  0.0727
11026TIP3   OH254568   5.860   5.066   1.655 -0.2806 -0.5093 -0.1006
11026TIP3    H154569   5.821   4.981   1.636  1.3003 -1.9528  2.4602
11026TIP3    H254570   5.938   5.045   1.707  1.4404  2.4179 -1.2517
11027TIP3   OH254571   5.095   6.440   1.960  0.0536  0.3457 -0.0526
11027TIP3    H154572   5.125   6.407   2.045 -0.2819 -0.8987 -0.4040
11027TIP3    H254573   5.130   6.529   1.956  0.3254  0.3232  1.2591
11028TIP3   OH254574   5.826   1.665   4.247 -0.2473 -0.6348  0.1157
11028TIP3    H154575   5.758   1.681   4.182 -0.0756 -1.0031 -0.1589
11028TIP3    H254576   5.908   1.673   4.199 -0.1369 -1.7205  0.0860
11029TIP3   OH254577   4.555   5.510  14.072  0.0220 -0.1276 -0.4281
11029TIP3    H154578   4.475   5.486  14.118  0.6320  0.0546  0.7854
11029TIP3    H254579   4.544   5.603  14.051  0.0521 -0.0072  0.0683
11030TIP3   OH254580   5.603   5.518  15.078  0.4145  0.2529  0.7522
11030TIP3    H154581   5.518   5.544  15.113 -1.7627 -4.5229 -0.0931
11030TIP3    H254582   5.650   5.482  15.154  0.4224  0.1987  0.7222
11031TIP3   OH254583   6.685   2.855  15.405 -0.0302 -1.0577 -0.1951
11031TIP3    H154584   6.687   2.949  15.386  0.2812 -1.1356 -0.5563
11031TIP3    H254585   6.602   2.843  15.452 -1.8724 -1.1498 -3.1882
11032TIP3   OH254586   6.718   5.151   3.439  0.2115  0.0967  0.2144
11032TIP3    H154587   6.754   5.233   3.405 -1.1292  0.6995  0.2186
11032TIP3    H254588   6.775   5.129   3.513  1.2533  0.4168 -0.4712
11033TIP3   OH254589   3.404   5.180  13.070 -0.3086  0.0705  0.4774
11033TIP3    H154590   3.350   5.104  13.090  0.7974 -0.6413  0.8776
11033TIP3    H254591   3.388   5.197  12.977 -1.7137  0.3017  0.7423
11034TIP3   OH254592   5.942   3.182   0.499  0.2458  0.2008 -0.2834
11034TIP3    H154593   5.902   3.184   0.587 -0.5540  2.2492 -0.6347
11034TIP3    H254594   6.021   3.236   0.508  1.8585 -2.0201 -0.1538
11035TIP3   OH254595   6.730   4.226   5.454 -0.0877 -0.5060 -0.5413
11035TIP3    H154596   6.644   4.211   5.417 -0.4810 -1.4006  0.6798
11035TIP3    H254597   6.786   4.159   5.414 -0.2357 -0.6980 -0.4257
11036TIP3   OH254598   2.997   5.395   1.607  0.0553  0.5122  0.3570
11036TIP3    H154599   3.057   5.463   1.637  1.6265 -0.5477 -0.2665
11036TIP3    H254600   2.996   5.404   1.512  1.3829 -1.1527  0.1283
11037TIP3   OH254601   6.768   0.577   0.416  1.0261  0.5905 -0.1224
11037TIP3    H154602   6.845   0.542   0.372 -0.8992  0.0786 -3.4530
11037TIP3    H254603   6.775   0.672   0.405  1.5473  0.6049  0.3109
11038TIP3   OH254604   0.334   1.347   2.950  0.4533  0.5086 -0.6363
11038TIP3    H154605   0.254   1.369   2.998  1.3964  0.9367  0.8162
11038TIP3    H254606   0.363   1.264   2.988  0.1111 -0.2568 -1.9655
11039TIP3   OH254607   1.996   3.183  15.453 -0.1984 -0.3940  0.1438
11039TIP3    H154608   2.035   3.110  15.500 -0.9397 -1.0174 -0.1731
11039TIP3    H254609   1.907   3.189  15.489 -0.4932 -0.3449 -0.5739
11040TIP3   OH254610   6.576   0.210   3.953  1.0958 -0.2561 -0.9217
11040TIP3    H154611   6.640   0.280   3.935 -0.0571  0.5261 -2.2005
11040TIP3    H254612   6.519   0.210   3.877  0.0763 -1.5220 -0.1958
11041TIP3   OH254613   6.000   6.273  16.042 -0.1616  0.4268 -0.3254
11041TIP3    H154614   6.023   6.365  16.040  1.4043  0.0448 -2.6597
11041TIP3    H254615   6.083   6.226  16.048 -0.7285 -0.8671 -1.8328
11042TIP3   OH254616   4.070   4.165   1.272 -0.0983  0.0203 -0.0522
11042TIP3    H154617   4.008   4.218   1.323 -0.3740 -0.0624 -0.3025
11042TIP3    H254618   4.121   4.118   1.339  1.7483  2.3380  0.2858
11043TIP3   OH254619   4.383   3.036   4.123  0.1348  0.2978 -0.4328
11043TIP3    H154620   4.434   2.960   4.152 -0.5039 -0.1605 -0.4826
11043TIP3    H254621   4.424   3.062   4.040 -0.5748 -0.9478 -1.2015
11044TIP3   OH254622   3.430   4.554   6.311  0.1904  0.1852  0.3345
11044TIP3    H154623   3.404   4.644   6.288 -1.9110 -0.8214 -1.5815
11044TIP3    H254624   3.360   4.523   6.368  0.4162 -0.5246  0.2269
11045TIP3   OH254625   0.440   5.895   2.179  0.0230 -0.2750 -0.6060
11045TIP3    H154626   0.503   5.855   2.119  0.6705 -0.4614  0.1911
11045TIP3    H254627   0.461   5.989   2.176  0.7862 -0.4063  0.1479
11046TIP3   OH254628   0.454   1.781   1.129  0.4298 -0.1542  0.0931
11046TIP3    H154629   0.368   1.758   1.165  1.1342 -0.8432  1.4023
11046TIP3    H254630   0.435   1.811   1.040 -1.1287 -0.6381  0.2268
11047TIP3   OH254631   2.737   6.269  12.947 -0.5899  0.7899 -0.0402
11047TIP3    H154632   2.666   6.333  12.942 -0.6270  0.7325 -0.2539
11047TIP3    H254633   2.755   6.246  12.856 -0.6826  0.3824  0.0436
11048TIP3   OH254634   4.716   3.357  14.685  0.5395  0.0256  0.1540
11048TIP3    H154635   4.715   3.440  14.636  0.4135  1.5498  2.5953
11048TIP3    H254636   4.648   3.367  14.751  0.2950 -2.2139  0.3108
11049TIP3   OH254637   1.725   6.579  10.871  0.0757 -0.0175  0.1503
11049TIP3    H154638   1.694   6.640  10.803 -0.2296 -1.5979 -1.1870
11049TIP3    H254639   1.702   6.622  10.953  0.8923  2.2107 -0.6808
11050TIP3   OH254640   6.213   3.336   2.460  0.2131 -0.2859 -0.2824
11050TIP3    H154641   6.151   3.271   2.494  0.2882 -0.6548 -0.8359
11050TIP3    H254642   6.258   3.291   2.388  0.5818  0.2339 -0.3843
11051TIP3   OH254643   1.300   6.078  13.113  0.0920 -0.2019 -0.5602
11051TIP3    H154644   1.275   5.987  13.093  1.4286 -0.5258 -0.8709
11051TIP3    H254645   1.287   6.086  13.208 -2.4288  0.0918 -0.8625
11052TIP3   OH254646   1.580   1.208   4.716  0.6398 -0.2765 -0.0434
11052TIP3    H154647   1.510   1.240   4.659 -0.1904 -2.0658 -0.0922
11052TIP3    H254648   1.551   1.228   4.805  0.2392 -0.6637 -0.0847
11053TIP3   OH254649   6.514   0.553   5.655  0.2331  0.3705 -0.0978
11053TIP3    H154650   6.467   0.522   5.577  0.0222  0.0512  0.1556
11053TIP3    H254651   6.597   0.507   5.654  0.8861  1.5179 -0.9769
11054TIP3   OH254652   6.437   4.888   5.391 -0.2047  0.5920 -0.2195
11054TIP3    H154653   6.387   4.932   5.460  0.7317 -0.0395  0.8890
11054TIP3    H254654   6.371   4.842   5.340 -0.8936  0.8817  0.3843
11055TIP3   OH254655   5.944   6.313   5.039 -0.5154 -0.5821 -0.1122
11055TIP3    H154656   5.908   6.263   5.113 -1.7290 -1.6426 -1.3731
11055TIP3    H254657   5.993   6.384   5.080 -1.9538 -0.5753  1.7119
11056TIP3   OH254658   3.292   3.524   1.252 -0.1024 -0.0495 -0.1536
11056TIP3    H154659   3.367   3.539   1.195 -0.3311 -0.9802 -0.7381
11056TIP3    H254660   3.327   3.476   1.326 -0.4446 -2.7753 -1.6122
11057TIP3   OH254661   0.982   1.730  11.469 -0.2500  0.1824 -0.4428
11057TIP3    H154662   1.063   1.738  11.419 -1.5007 -0.5060 -2.7592
11057TIP3    H254663   1.007   1.686  11.550  1.5078 -1.1563 -1.6478
11058TIP3   OH254664   0.798   0.199   6.358 -0.2573 -0.8848 -0.0560
11058TIP3    H154665   0.799   0.105   6.375  0.1338 -0.8848 -0.0578
11058TIP3    H254666   0.889   0.220   6.335 -0.2651 -0.4430  0.2952
11059TIP3   OH254667   4.835   0.567   5.727  0.2053  0.2683 -0.2722
11059TIP3    H154668   4.825   0.500   5.659  0.6302  0.6850 -0.7583
11059TIP3    H254669   4.749   0.607   5.735  0.2749  0.5610 -0.9389
11060TIP3   OH254670   2.679   5.522  12.369 -0.6470 -0.5745 -0.5886
11060TIP3    H154671   2.765   5.500  12.404 -0.9596 -1.5974 -0.4428
11060TIP3    H254672   2.620   5.457  12.407 -1.3833 -0.2659 -1.1720
11061TIP3   OH254673   2.369   3.364   0.404  0.3956 -0.6945  0.4642
11061TIP3    H154674   2.363   3.282   0.453 -0.8081  0.1727  1.8382
11061TIP3    H254675   2.279   3.383   0.377  0.8014 -0.3044 -0.6748
11062TIP3   OH254676   6.691   5.883  14.484  0.0689  0.1147  0.0729
11062TIP3    H154677   6.744   5.953  14.445  0.3448 -0.5583 -0.7933
11062TIP3    H254678   6.648   5.841  14.410 -1.2611  0.2946  0.7243
11063TIP3   OH254679   2.859   1.886  12.952 -0.5861  0.4978  0.1690
11063TIP3    H154680   2.918   1.826  12.997 -0.7697 -0.0940 -0.3557
11063TIP3    H254681   2.917   1.947  12.906 -0.3606  2.3104  2.6477
11064TIP3   OH254682   0.499   5.782  16.464  0.2530 -0.1200  0.9583
11064TIP3    H154683   0.528   5.859  16.513 -0.5739 -0.3057  1.7736
11064TIP3    H254684   0.405   5.795  16.453  0.2111 -0.7209  0.5632
11065TIP3   OH254685   4.731   5.897  16.256 -0.7701  0.8244 -0.4120
11065TIP3    H154686   4.807   5.839  16.262 -0.4266  1.2644 -0.5372
11065TIP3    H254687   4.703   5.890  16.165 -1.2742  0.1682 -0.2155
11066TIP3   OH254688   2.505   2.366  14.646 -0.1005 -0.8876 -0.7720
11066TIP3    H154689   2.555   2.308  14.589  0.1624 -0.7531 -0.6805
11066TIP3    H254690   2.534   2.454  14.622  2.1132 -0.9145  1.4679
11067TIP3   OH254691   4.036   3.753  16.056 -0.0186 -0.5468 -0.3063
11067TIP3    H154692   4.033   3.657  16.063 -1.7196 -0.5958 -1.1074
11067TIP3    H254693   3.945   3.778  16.041  0.3525  1.2482  0.3039
11068TIP3   OH254694   5.861   4.023   0.521 -0.0835 -0.3446  0.1464
11068TIP3    H154695   5.803   4.082   0.473  1.2007 -0.1626 -1.2531
11068TIP3    H254696   5.915   4.081   0.575 -1.0140 -0.5024  1.2999
11069TIP3   OH254697   6.395   5.137   0.048 -0.1936 -0.2618 -0.2618
11069TIP3    H154698   6.449   5.216   0.060  0.6515 -0.5427 -1.9565
11069TIP3    H254699   6.312   5.159   0.090  0.3702  1.1327  0.2076
11070TIP3   OH254700   0.736   2.647  15.714 -0.1268 -0.1187 -0.6991
11070TIP3    H154701   0.764   2.564  15.751 -0.0378 -0.3071 -1.1787
11070TIP3    H254702   0.816   2.684  15.674 -0.4473 -0.4595 -1.6977
11071TIP3   OH254703   1.249   2.445   2.485  0.5023 -0.0928 -0.3772
11071TIP3    H154704   1.278   2.415   2.399  0.2590 -1.4214 -0.0183
11071TIP3    H254705   1.230   2.538   2.473  2.0436  0.1201 -1.3443
11072TIP3   OH254706   0.251   1.562  15.199  0.0456 -0.1196 -0.3141
11072TIP3    H154707   0.260   1.533  15.108  2.7976 -0.0865 -0.1235
11072TIP3    H254708   0.301   1.498  15.250 -1.8403 -0.4167  1.3060
11073TIP3   OH254709   3.269   4.130  12.963  0.3848  0.1201  0.3325
11073TIP3    H154710   3.307   4.218  12.971 -0.0657  0.5781 -1.8263
11073TIP3    H254711   3.196   4.141  12.903  0.6650 -1.8309 -0.4498
11074TIP3   OH254712   0.131   4.937   4.450  0.2742  0.1412  0.4881
11074TIP3    H154713   0.101   4.913   4.362 -2.1715  1.0423  0.9946
11074TIP3    H254714   0.219   4.971   4.437 -0.5207  1.5720 -1.8610
11075TIP3   OH254715   4.827   2.513   0.314 -0.4314 -0.3886 -0.0649
11075TIP3    H154716   4.829   2.479   0.404 -0.6490  0.3489  0.2279
11075TIP3    H254717   4.814   2.607   0.325  0.5462 -0.1510 -0.8429
11076TIP3   OH254718   6.530   1.806  14.218  1.1154 -0.5701  0.0500
11076TIP3    H154719   6.487   1.891  14.222  1.5605 -0.3505  0.3068
11076TIP3    H254720   6.546   1.783  14.310 -0.7241 -1.8386  0.1086
11077TIP3   OH254721   1.268   5.353  11.232 -0.2593 -0.1564 -0.3795
11077TIP3    H154722   1.312   5.290  11.175 -0.6794 -1.0693  0.2683
11077TIP3    H254723   1.339   5.398  11.278  0.0346 -0.4955 -0.4982
11078TIP3   OH254724   0.128   2.286   2.011 -0.0326  0.2271 -0.0404
11078TIP3    H154725   0.078   2.351   1.962 -2.3228  0.1175  1.9757
11078TIP3    H254726   0.200   2.336   2.051 -0.1631  0.9623 -0.7075
11079TIP3   OH254727   0.904   6.223  15.112 -0.1748  0.1148 -0.4713
11079TIP3    H154728   0.971   6.262  15.169 -2.1084  1.4220  1.0530
11079TIP3    H254729   0.929   6.131  15.106 -0.2383 -0.3108  3.2310
11080TIP3   OH254730   2.486   0.822   5.668  0.2099 -0.1795  0.1010
11080TIP3    H154731   2.549   0.885   5.704 -1.2029  0.6215  1.2284
11080TIP3    H254732   2.541   0.747   5.642  1.5612  0.1779  1.7334
11081TIP3   OH254733   3.386   2.924  16.674 -0.1044 -0.1943 -0.8103
11081TIP3    H154734   3.391   2.931  16.579  0.8619  2.9710 -0.6272
11081TIP3    H254735   3.475   2.901  16.701  0.3001  1.5358 -0.5744
11082TIP3   OH254736   3.902   3.185  11.057  0.2368  0.8762  0.2739
11082TIP3    H154737   3.969   3.241  11.096  1.3890  0.5253 -1.1241
11082TIP3    H254738   3.941   3.097  11.057  0.4798  0.9218 -1.9671
11083TIP3   OH254739   6.113   3.127   0.945 -0.0724  0.2040 -0.3412
11083TIP3    H154740   6.147   3.186   0.878  1.5007  0.4038  0.5905
11083TIP3    H254741   6.129   3.039   0.911 -0.4061  0.3040 -0.7612
11084TIP3   OH254742   2.311   2.418   0.937 -0.5219  0.0373  0.5421
11084TIP3    H154743   2.238   2.388   0.990 -0.2444  1.6350  1.9119
11084TIP3    H254744   2.270   2.467   0.865 -0.8390 -0.7988  0.1384
11085TIP3   OH254745   4.639   2.976   2.494  0.1415 -0.4236  0.1905
11085TIP3    H154746   4.662   3.032   2.419  1.7585 -0.5427  0.5519
11085TIP3    H254747   4.659   2.887   2.465 -0.8372 -0.6594  0.1984
11086TIP3   OH254748   3.598   0.712  14.199 -0.4930  0.0657  0.3033
11086TIP3    H154749   3.626   0.711  14.291  0.6428 -0.3727 -0.0318
11086TIP3    H254750   3.650   0.782  14.159 -3.5518  2.8031  0.7147
11087TIP3   OH254751   2.890   6.538  11.523 -0.8799  0.2395  0.4964
11087TIP3    H154752   2.971   6.525  11.474 -0.2478 -0.7410  1.7342
11087TIP3    H254753   2.913   6.604  11.588 -1.3234  0.5722  0.3153
11088TIP3   OH254754   5.804   3.159   0.259  0.0315 -0.3204  0.6631
11088TIP3    H154755   5.846   3.156   0.345 -1.3202  1.9724  1.5032
11088TIP3    H254756   5.725   3.107   0.269  0.6939 -1.4382  0.2573
11089TIP3   OH254757   4.947   5.638  15.149 -0.1028 -0.1219  0.3027
11089TIP3    H154758   4.923   5.653  15.057 -0.4924  0.1236  0.4424
11089TIP3    H254759   4.991   5.553  15.149 -0.0454 -0.0932 -0.1219
11090TIP3   OH254760   5.319   4.378  14.914 -0.0313 -0.2138 -0.2986
11090TIP3    H154761   5.392   4.427  14.952 -0.5020  0.7036 -0.5515
11090TIP3    H254762   5.283   4.328  14.988 -0.3666  0.8508  0.2845
11091TIP3   OH254763   3.289   3.811   1.235 -0.4702  0.2192  0.4449
11091TIP3    H154764   3.276   3.730   1.283 -1.5964 -0.0196 -0.2257
11091TIP3    H254765   3.220   3.811   1.169  0.0434  1.3136 -0.1171
11092TIP3   OH254766   4.862   6.077   5.400 -0.0116 -0.3033  0.0814
11092TIP3    H154767   4.828   6.062   5.488 -0.4304  1.5153  0.2648
11092TIP3    H254768   4.858   5.991   5.358 -4.0974 -0.4277  0.3256
11093TIP3   OH254769   0.226   1.473   1.327 -0.3404  0.4165 -0.0496
11093TIP3    H154770   0.238   1.392   1.278  0.7831  0.8274 -0.4861
11093TIP3    H254771   0.172   1.448   1.402 -1.1872 -0.4329 -0.9222
11094TIP3   OH254772   0.709   2.314   6.362 -0.1691  0.1981  0.6805
11094TIP3    H154773   0.749   2.399   6.343 -0.2077  0.1363  0.3133
11094TIP3    H254774   0.619   2.323   6.331  0.1904 -0.4222 -0.6528
11095TIP3   OH254775   2.805   0.095  15.886  0.3865 -0.2659  0.2631
11095TIP3    H154776   2.735   0.159  15.874  0.0727 -0.4658  0.9774
11095TIP3    H254777   2.886   0.145  15.874  0.1373  0.1807  0.4422
11096TIP3   OH254778   4.129   6.456  11.938  0.3684 -0.0080  0.4820
11096TIP3    H154779   4.176   6.383  11.979  0.3778  1.1361  2.6041
11096TIP3    H254780   4.139   6.529  11.999  0.3992  1.8297 -1.5954
11097TIP3   OH254781   1.826   6.816   4.367  0.2041  0.0206  0.3186
11097TIP3    H154782   1.820   6.756   4.441 -3.5946 -0.6449 -0.2950
11097TIP3    H254783   1.867   6.764   4.297 -2.0529 -1.6901  0.1188
11098TIP3   OH254784   3.373   1.666  17.202 -0.5817 -0.4189  0.0944
11098TIP3    H154785   3.463   1.698  17.207 -0.2362 -1.1449 -1.0452
11098TIP3    H254786   3.378   1.591  17.142 -1.8056 -0.9611  0.6461
11099TIP3   OH254787   1.838   6.709   0.409  0.1653 -0.2114  0.3336
11099TIP3    H154788   1.896   6.703   0.485  1.0792  2.8548  0.0062
11099TIP3    H254789   1.829   6.803   0.393 -0.7675 -0.7205 -2.7970
11100TIP3   OH254790   2.083   3.767  15.391  0.0239  0.0868 -0.4926
11100TIP3    H154791   2.111   3.853  15.359  0.2885  0.5346  0.8623
11100TIP3    H254792   2.030   3.787  15.468  1.7108 -1.0038  1.0377
11101TIP3   OH254793   4.307   2.426  12.875  0.1266  0.2416 -0.7261
11101TIP3    H154794   4.332   2.483  12.803  0.3153  0.6565 -0.3313
11101TIP3    H254795   4.331   2.338  12.845  1.1794  0.5225 -0.7478
11102TIP3   OH254796   0.172   3.101   4.023 -0.1951  0.0276 -0.0123
11102TIP3    H154797   0.251   3.053   4.001  0.0271 -0.6983  2.1178
11102TIP3    H254798   0.101   3.056   3.977  0.2545 -1.2580  0.5069
11103TIP3   OH254799   3.884   3.207   5.753  0.0977  0.1700 -0.0529
11103TIP3    H154800   3.817   3.245   5.696  0.2837 -0.4510 -0.7102
11103TIP3    H254801   3.946   3.278   5.768 -0.8068  0.8061  0.7269
11104TIP3   OH254802   3.160   3.435  15.091  0.5981  0.2688 -0.1178
11104TIP3    H154803   3.223   3.373  15.053  1.7585  0.9058  0.6836
11104TIP3    H254804   3.210   3.517  15.100 -0.5103  0.9483  0.0674
11105TIP3   OH254805   0.994   5.867   0.611 -0.3004  0.4783  0.2473
11105TIP3    H154806   0.957   5.930   0.549 -0.2144 -0.7823 -1.1337
11105TIP3    H254807   1.036   5.801   0.556  0.2118 -0.4342  1.6774
11106TIP3   OH254808   3.612   0.706  14.457  0.3295 -0.1219  0.2493
11106TIP3    H154809   3.574   0.619  14.460 -1.6254  0.6579 -0.4679
11106TIP3    H254810   3.693   0.699  14.508  0.1440 -2.2937  0.3047
11107TIP3   OH254811   3.493   5.084  12.626  0.6484  0.3917  0.5136
11107TIP3    H154812   3.450   5.139  12.561 -1.3711 -0.0348  1.4225
11107TIP3    H254813   3.465   4.995  12.605  2.2921 -0.0974  0.2562
11108TIP3   OH254814   0.455   6.197  12.242  0.0434 -0.1603  0.0111
11108TIP3    H154815   0.438   6.158  12.156  0.3742 -1.7449  0.6113
11108TIP3    H254816   0.387   6.160  12.299  0.0910  0.5205  0.5266
11109TIP3   OH254817   4.419   3.099   2.627  0.5545  0.0831  0.2667
11109TIP3    H154818   4.444   3.174   2.574  1.2876  0.1889  0.7644
11109TIP3    H254819   4.495   3.042   2.627 -0.3051 -1.1419 -0.9071
11110TIP3   OH254820   6.306   5.338  13.677 -0.4597 -0.5721  0.6384
11110TIP3    H154821   6.394   5.301  13.669  0.2607  1.1841 -0.1988
11110TIP3    H254822   6.317   5.416  13.732 -1.4538 -0.2472  0.4083
11111TIP3   OH254823   5.647   1.452   6.334  1.1767  0.0624  0.2997
11111TIP3    H154824   5.676   1.536   6.369 -0.1570  0.3175  0.8596
11111TIP3    H254825   5.656   1.462   6.239 -1.8576  2.0919  0.0662
11112TIP3   OH254826   1.824   1.359  15.869  0.4343 -0.3164 -0.3531
11112TIP3    H154827   1.836   1.291  15.936 -0.0962  0.1112  0.1907
11112TIP3    H254828   1.791   1.312  15.793  2.1688 -0.9940 -0.7322
11113TIP3   OH254829   0.563   6.722  16.532  0.1969  0.0893  0.0810
11113TIP3    H154830   0.522   6.808  16.523  1.7081  0.7800 -0.5901
11113TIP3    H254831   0.563   6.686  16.444  1.3285  0.2715 -0.0094
11114TIP3   OH254832   5.233   5.246  14.151 -0.0222 -0.1707 -0.1943
11114TIP3    H154833   5.236   5.173  14.089  2.0606  0.0165 -0.4083
11114TIP3    H254834   5.140   5.267  14.160 -0.5813 -2.0974 -0.9933
11115TIP3   OH254835   2.147   6.585  15.912  0.0943 -0.0021  0.3293
11115TIP3    H154836   2.217   6.611  15.972 -0.5172  0.4695  0.8543
11115TIP3    H254837   2.079   6.651  15.924 -0.5752 -0.6269  0.0644
11116TIP3   OH254838   3.291   1.541   4.972 -0.1589  0.0067 -0.2513
11116TIP3    H154839   3.298   1.597   4.895 -0.8206 -0.7352 -0.8780
11116TIP3    H254840   3.355   1.471   4.957 -0.2968 -0.1464 -0.1385
11117TIP3   OH254841   3.394   0.959  15.577  0.0369  0.5400 -0.4623
11117TIP3    H154842   3.339   0.890  15.615  1.6332 -0.1957  0.6140
11117TIP3    H254843   3.474   0.914  15.550  0.4388  1.7018 -1.2973
11118TIP3   OH254844   6.428   1.858  13.419 -0.1740 -0.3234 -0.8868
11118TIP3    H154845   6.344   1.812  13.428 -0.7600  0.7203 -0.8535
11118TIP3    H254846   6.444   1.896  13.505  0.9452 -1.4686 -0.5432
11119TIP3   OH254847   5.902   2.370  16.157  0.0674  0.7327  0.5054
11119TIP3    H154848   5.910   2.414  16.072 -0.3907  0.4596  0.3162
11119TIP3    H254849   5.955   2.423  16.216  0.3573  0.9500  0.0568
11120TIP3   OH254850   5.359   2.739   5.605  0.5608 -0.0257  0.0590
11120TIP3    H154851   5.453   2.752   5.601  0.6898 -1.0515 -0.4410
11120TIP3    H254852   5.348   2.650   5.639 -0.1842 -0.5493 -1.4771
11121TIP3   OH254853   5.800   2.566  11.743  0.4782  0.6710  0.0005
11121TIP3    H154854   5.727   2.620  11.714  1.1580  0.5883 -2.0900
11121TIP3    H254855   5.874   2.627  11.749  0.4672  0.5921  1.2092
11122TIP3   OH254856   1.118   3.753   5.670  0.1396  0.2007  0.2527
11122TIP3    H154857   1.131   3.847   5.661  0.8455  0.3454  2.2307
11122TIP3    H254858   1.082   3.742   5.758  0.4478 -1.4111  0.2125
11123TIP3   OH254859   1.565   1.720   4.764  0.4687  0.8451  0.5680
11123TIP3    H154860   1.515   1.650   4.723  0.3778  0.3305  1.5262
11123TIP3    H254861   1.615   1.760   4.692  0.0092  0.2416 -0.0958
11124TIP3   OH254862   0.517   0.679   4.534  0.1348 -0.1974  0.6091
11124TIP3    H154863   0.575   0.606   4.553  0.3409 -0.1846  0.0545
11124TIP3    H254864   0.434   0.656   4.577 -0.6080 -1.9673 -1.5660
11125TIP3   OH254865   5.295   0.825  15.734 -0.0133  0.2703 -0.2078
11125TIP3    H154866   5.305   0.833  15.639  0.4222  2.1007 -0.0473
11125TIP3    H254867   5.200   0.825  15.749 -0.1013  1.6017 -0.5773
11126TIP3   OH254868   1.868   2.845  14.774 -0.4300  0.3876 -0.6090
11126TIP3    H154869   1.911   2.802  14.848  0.3494  0.1285 -1.1910
11126TIP3    H254870   1.785   2.876  14.809 -0.0822  0.2584  0.3708
11127TIP3   OH254871   3.789   5.202  14.829  0.1685  0.0038  0.0268
11127TIP3    H154872   3.871   5.250  14.820 -0.3733  0.6067 -2.2651
11127TIP3    H254873   3.788   5.141  14.754 -1.5242  0.1115 -0.0783
11128TIP3   OH254874   0.511   5.220   2.604  0.3593 -0.3896 -0.1381
11128TIP3    H154875   0.431   5.229   2.655  0.4646 -0.1106 -0.0204
11128TIP3    H254876   0.542   5.309   2.592  0.4335 -0.4697 -0.5366
11129TIP3   OH254877   3.682   3.666  15.210  0.0728 -0.1077 -0.6581
11129TIP3    H154878   3.762   3.626  15.178  0.4389 -0.0604  0.1586
11129TIP3    H254879   3.702   3.691  15.300 -0.4440  1.0600 -0.8373
11130TIP3   OH254880   2.624   6.298   2.593 -0.5987 -0.6513 -0.1714
11130TIP3    H154881   2.529   6.288   2.604 -0.5981  0.2947  1.0092
11130TIP3    H254882   2.653   6.338   2.676  0.6285  0.2641 -1.0008
11131TIP3   OH254883   3.163   3.874  17.229 -0.5750 -0.2998 -0.1857
11131TIP3    H154884   3.122   3.793  17.197 -2.0859 -0.0169  0.9171
11131TIP3    H254885   3.092   3.921  17.272  0.9574  0.1488  2.0330
11132TIP3   OH254886   1.493   4.925  11.242 -0.2000 -0.7300 -0.1505
11132TIP3    H154887   1.499   4.939  11.337 -1.2236  0.0835 -0.1832
11132TIP3    H254888   1.409   4.882  11.230 -1.1559  1.1910 -0.8548
11133TIP3   OH254889   0.980   4.405   2.238 -0.8535  0.6409 -0.4623
11133TIP3    H154890   0.976   4.378   2.146  0.4072 -2.1270  0.1842
11133TIP3    H254891   1.054   4.355   2.274  0.0525  3.2393  1.5993
11134TIP3   OH254892   5.706   0.703  17.011  0.2615 -0.2380  0.1977
11134TIP3    H154893   5.611   0.691  17.012 -0.0774  2.0033  0.1594
11134TIP3    H254894   5.733   0.672  16.924 -0.6327  0.3614 -0.3118
11135TIP3   OH254895   6.751   3.906  11.681 -0.0049  0.5623 -0.2911
11135TIP3    H154896   6.814   3.963  11.636  0.2860 -1.6044 -2.8909
11135TIP3    H254897   6.802   3.828  11.702 -0.4278  1.0615  3.0684
11136TIP3   OH254898   2.741   3.475  16.191  0.2753  0.3710  0.3459
11136TIP3    H154899   2.684   3.403  16.165  1.2314 -0.3999  0.3239
11136TIP3    H254900   2.688   3.528  16.251 -0.0731 -0.9762  1.2729
11137TIP3   OH254901   2.380   2.081   3.366  0.1541 -0.1013  0.0216
11137TIP3    H154902   2.339   2.088   3.452  0.4805  0.6059  0.1337
11137TIP3    H254903   2.473   2.097   3.384  0.0486  1.4244 -0.6246
11138TIP3   OH254904   6.275   4.369  13.610 -0.2064 -0.3891  0.4287
11138TIP3    H154905   6.314   4.427  13.545 -0.3482 -0.3823  0.3502
11138TIP3    H254906   6.308   4.282  13.587 -2.2719 -0.7868 -1.2167
11139TIP3   OH254907   2.374   2.999  16.395 -0.0705 -0.0096  0.2414
11139TIP3    H154908   2.316   2.926  16.376 -1.1086  0.3597  1.8160
11139TIP3    H254909   2.413   3.021  16.310 -1.2095 -1.1314 -0.6153
11140TIP3   OH254910   2.231   0.674   0.451 -0.1697  0.2518 -0.6763
11140TIP3    H154911   2.171   0.749   0.455  0.9007  1.1155  2.5437
11140TIP3    H254912   2.225   0.634   0.538  1.2798 -1.7918 -1.4401
11141TIP3   OH254913   0.085   5.110   3.654  0.2565 -0.5831  0.1091
11141TIP3    H154914   0.074   5.138   3.745 -0.3673 -0.9753  0.1620
11141TIP3    H254915   0.158   5.162   3.621  0.6484 -0.6218  0.9111
11142TIP3   OH254916   2.112   0.969  15.618  0.2916  0.0038 -0.0589
11142TIP3    H154917   2.031   0.922  15.637 -0.3203 -0.2875 -2.9604
11142TIP3    H254918   2.162   0.965  15.700 -2.0059 -1.0122  1.3875
11143TIP3   OH254919   0.453   1.995   1.623  0.0468 -0.1982  0.8675
11143TIP3    H154920   0.372   2.043   1.611 -0.0512 -0.6501 -0.4195
11143TIP3    H254921   0.521   2.055   1.593 -0.0288 -0.6476 -0.2348
11144TIP3   OH254922   1.635   1.161  14.261  0.2314  0.0370 -0.5531
11144TIP3    H154923   1.645   1.104  14.337 -0.3910 -0.1093 -0.5839
11144TIP3    H254924   1.725   1.190  14.242  0.4555 -0.3307 -0.0818
11145TIP3   OH254925   2.308   1.857   2.869  0.3673 -0.1229  0.2356
11145TIP3    H154926   2.332   1.772   2.831  2.0905  1.0807 -1.6310
11145TIP3    H254927   2.391   1.891   2.904 -0.4292  0.5331  1.5386
11146TIP3   OH254928   6.595   5.001   2.100  0.1079  0.1959 -0.3634
11146TIP3    H154929   6.542   5.042   2.167  0.6046 -0.6392  0.5659
11146TIP3    H254930   6.618   4.915   2.136  0.5168 -0.2109 -1.5299
11147TIP3   OH254931   3.300   4.649  14.448  0.1855 -0.6818  0.3695
11147TIP3    H154932   3.344   4.574  14.408  0.5595  0.5643 -1.6673
11147TIP3    H254933   3.274   4.704  14.375 -1.9481  0.2093  1.6870
11148TIP3   OH254934   2.978   1.155   1.473  0.3602 -0.2422 -0.0816
11148TIP3    H154935   3.036   1.225   1.441 -2.0711  0.9793 -2.1702
11148TIP3    H254936   2.995   1.082   1.413 -0.3288  0.1854 -0.8244
11149TIP3   OH254937   4.857   1.237   2.828  0.3606 -0.0716  0.1807
11149TIP3    H154938   4.848   1.323   2.870 -0.9238  0.7080 -1.5514
11149TIP3    H254939   4.851   1.174   2.899  1.1431  1.2515  1.4788
11150TIP3   OH254940   3.630   5.004   0.372  0.2487 -0.5269 -0.7274
11150TIP3    H154941   3.683   5.001   0.292  1.8032  0.0000  0.2277
11150TIP3    H254942   3.573   5.079   0.359 -0.4072 -1.1880 -1.8457
11151TIP3   OH254943   2.253   6.104   1.905 -0.5500 -0.3595  1.2794
11151TIP3    H154944   2.197   6.170   1.945  0.1711  1.3990 -0.4338
11151TIP3    H254945   2.330   6.100   1.962 -0.1177  1.1292  0.8406
11152TIP3   OH254946   5.104   6.285  12.632  0.2560 -0.3651 -0.3008
11152TIP3    H154947   5.099   6.213  12.695  0.2074  0.9708  1.3052
11152TIP3    H254948   5.016   6.323  12.631  0.9654  1.5275  1.2666
11153TIP3   OH254949   2.685   1.199  16.790  0.3202 -0.4629 -0.2237
11153TIP3    H154950   2.779   1.196  16.772  0.1682 -1.3924 -0.9567
11153TIP3    H254951   2.679   1.209  16.885  1.1740 -0.9458 -0.1098
11154TIP3   OH254952   2.249   0.029  14.113  0.0621 -0.2017  0.0187
11154TIP3    H154953   2.305  -0.041  14.145 -2.3589 -1.3685  2.0608
11154TIP3    H254954   2.284   0.051  14.027  1.4361 -3.3582 -0.3483
11155TIP3   OH254955   3.265   5.718  17.126 -0.0922 -0.4233 -0.0223
11155TIP3    H154956   3.258   5.695  17.033  0.3513  1.6406 -0.6132
11155TIP3    H254957   3.185   5.682  17.165 -1.1578  0.1494 -1.5461
11156TIP3   OH254958   6.444   5.586  13.486  0.3377  0.7296 -0.2833
11156TIP3    H154959   6.459   5.621  13.399 -1.4940  0.1904 -0.8493
11156TIP3    H254960   6.349   5.578  13.494  0.4594  0.5592  1.6830
11157TIP3   OH254961   5.753   5.268   4.458 -0.2474  0.3890 -0.1596
11157TIP3    H154962   5.761   5.351   4.506  2.6550 -0.1722  0.5274
11157TIP3    H254963   5.824   5.271   4.394 -0.6952 -1.1775 -0.7626
11158TIP3   OH254964   4.061   4.998  12.577  0.7611  0.0857  0.0997
11158TIP3    H154965   3.973   4.988  12.613  0.7861 -2.6409 -0.4071
11158TIP3    H254966   4.047   5.044  12.494 -0.0658  0.4553  0.4306
11159TIP3   OH254967   3.332   0.986  16.426 -0.5280  0.3896  0.2084
11159TIP3    H154968   3.294   1.057  16.375 -0.6102  0.6607  0.6354
11159TIP3    H254969   3.321   1.014  16.517 -0.7237 -0.2522  0.3875
11160TIP3   OH254970   2.169   3.730   2.242 -0.3349  0.0440 -0.0744
11160TIP3    H154971   2.219   3.713   2.162  0.5132  1.8260  0.0286
11160TIP3    H254972   2.202   3.666   2.305 -0.2079 -0.6336 -0.8165
11161TIP3   OH254973   3.426   0.119  10.462  1.1244  0.2563 -0.0469
11161TIP3    H154974   3.386   0.186  10.407  2.1840  2.5872  1.8582
11161TIP3    H254975   3.352   0.080  10.509  0.7141  2.6525  1.4682
11162TIP3   OH254976   4.717   3.607   5.409 -0.1008  0.2427  0.1073
11162TIP3    H154977   4.805   3.569   5.407  0.2358  0.9070  1.3057
11162TIP3    H254978   4.665   3.544   5.460  0.1078  0.6803  0.8694
11163TIP3   OH254979   2.690   2.456   3.378 -0.4993  0.4309 -1.0757
11163TIP3    H154980   2.681   2.463   3.474 -1.1541 -1.7777 -0.9298
11163TIP3    H254981   2.684   2.546   3.348  2.8449  1.6106  1.1710
11164TIP3   OH254982   1.349   6.159   1.303  0.5058 -0.4894 -0.0559
11164TIP3    H154983   1.414   6.147   1.234 -0.8836  1.6820 -1.8899
11164TIP3    H254984   1.265   6.138   1.261 -0.3232  0.3713  1.1029
11165TIP3   OH254985   6.253   2.621   4.080  0.3864 -0.6378 -0.0629
11165TIP3    H154986   6.276   2.713   4.091  1.4432 -0.7080 -1.3752
11165TIP3    H254987   6.215   2.595   4.164 -0.3988  1.1117  0.1603
11166TIP3   OH254988   3.967   0.247   6.409  0.9332  0.0244  0.1973
11166TIP3    H154989   3.920   0.314   6.458 -1.2473 -1.1491 -0.1670
11166TIP3    H254990   4.053   0.285   6.393  0.1725  2.2496  1.0047
11167TIP3   OH254991   5.071   3.939  16.988 -0.4348 -0.2973  0.3044
11167TIP3    H154992   4.992   3.897  16.954  0.3021 -2.0345  0.6225
11167TIP3    H254993   5.143   3.886  16.953  0.7797  2.4050 -1.6335
11168TIP3   OH254994   4.627   3.020  10.423  0.2198 -0.0026 -0.1900
11168TIP3    H154995   4.687   2.961  10.377 -1.1176  0.1124 -2.2205
11168TIP3    H254996   4.664   3.029  10.511  2.5060 -0.8499 -0.9989
11169TIP3   OH254997   0.135   2.590   2.204 -0.6757 -0.0563 -0.5351
11169TIP3    H154998   0.224   2.562   2.184  0.1670  0.9812  1.5138
11169TIP3    H254999   0.107   2.638   2.126  1.7564  2.2655 -0.1224
11170TIP3   OH255000   6.361   5.066   5.593  0.7575 -0.0735  0.1146
11170TIP3    H155001   6.391   5.018   5.669 -0.2581 -0.1859  0.4630
11170TIP3    H255002   6.299   5.131   5.628  1.2649  0.7555 -0.4673
11171TIP3   OH255003   3.872   2.188   6.353  0.1174  0.3373 -0.1619
11171TIP3    H155004   3.937   2.140   6.301 -0.0272 -0.1678  0.1185
11171TIP3    H255005   3.792   2.186   6.299  0.6521  2.0777 -1.1052
11172TIP3   OH255006   3.078   4.011  13.132  0.0930 -0.2908  0.0310
11172TIP3    H155007   3.134   4.050  13.065  0.4417 -1.2296 -0.2367
11172TIP3    H255008   3.127   3.936  13.164 -0.8212 -0.8726  0.1123
11173TIP3   OH255009   1.301   0.659   3.037 -0.0753  0.1013  0.4715
11173TIP3    H155010   1.302   0.643   3.132  0.6059  0.6701  0.5702
11173TIP3    H255011   1.232   0.723   3.024  0.3289  0.5862  0.6880
11174TIP3   OH255012   5.009   6.526  12.466 -0.4395  0.5657 -0.4331
11174TIP3    H155013   5.040   6.455  12.521 -1.9102  0.0527 -0.2248
11174TIP3    H255014   5.077   6.593  12.473  0.3216 -0.2660  0.4462
11175TIP3   OH255015   4.902   4.556   1.388  0.7417 -0.2335 -0.2680
11175TIP3    H155016   4.862   4.570   1.474  1.2241 -0.9882  0.0933
11175TIP3    H255017   4.828   4.555   1.327  0.2219 -1.2994  0.3488
11176TIP3   OH255018   0.314   1.327   5.040 -0.3130 -0.2215  0.4702
11176TIP3    H155019   0.318   1.232   5.047 -0.2159 -0.1252  2.1414
11176TIP3    H255020   0.229   1.351   5.077  0.0364  0.3873  0.9164
11177TIP3   OH255021   2.114   2.899  12.147 -0.3408  0.3765  0.1302
11177TIP3    H155022   2.058   2.889  12.070 -1.8430 -0.8169  1.3134
11177TIP3    H255023   2.192   2.942  12.114 -0.4836 -1.0206 -2.2773
11178TIP3   OH255024   4.213   4.534  15.024 -0.5744 -0.0958 -0.1698
11178TIP3    H155025   4.189   4.627  15.020  0.7666  0.2270 -3.1353
11178TIP3    H255026   4.254   4.516  14.940  1.3397 -2.8422  1.2014
11179TIP3   OH255027   2.724   4.456   5.423  0.0564 -0.6268  0.3429
11179TIP3    H155028   2.769   4.417   5.349 -0.5735 -0.9520  0.1166
11179TIP3    H255029   2.710   4.383   5.483 -0.0664 -0.5084  0.4590
11180TIP3   OH255030   3.519   1.671   3.604 -1.0927 -0.5369  1.2121
11180TIP3    H155031   3.613   1.682   3.614 -1.0816  0.7797  0.0436
11180TIP3    H255032   3.507   1.651   3.511 -2.1244  2.3546  0.6170
11181TIP3   OH255033   3.245   3.188   0.782 -0.0335 -0.8390  0.5024
11181TIP3    H155034   3.304   3.117   0.757 -0.6200 -1.7273  1.5515
11181TIP3    H255035   3.301   3.265   0.785  0.1896 -0.7391 -2.8767
11182TIP3   OH255036   5.352   5.271  14.694 -0.3466 -0.0901 -0.3850
11182TIP3    H155037   5.286   5.340  14.687  0.3786  0.5545 -0.9856
11182TIP3    H255038   5.363   5.240  14.604  0.0510 -0.2998 -0.2628
11183TIP3   OH255039   5.863   3.927   5.463  0.0353 -0.1931  0.4492
11183TIP3    H155040   5.793   3.991   5.450 -0.5953 -1.1042 -0.7901
11183TIP3    H255041   5.943   3.980   5.463 -0.5910  0.7939  1.3305
11184TIP3   OH255042   6.776   2.986   5.922  0.7340 -0.2718  1.0943
11184TIP3    H155043   6.711   2.968   5.854  1.0901  0.3028  0.5829
11184TIP3    H255044   6.730   2.972   6.005 -0.4291  1.3702  0.7724
11185TIP3   OH255045   5.669   2.210   0.907  0.0949  0.4581  0.2071
11185TIP3    H155046   5.595   2.215   0.968 -0.6319  1.0040 -0.6965
11185TIP3    H255047   5.656   2.127   0.861  0.2161  0.4154  0.2486
11186TIP3   OH255048   0.000   3.503  15.085 -0.1258  0.1185  0.4672
11186TIP3    H155049   0.088   3.463  15.086 -0.1875 -0.0202  0.9736
11186TIP3    H255050  -0.025   3.503  14.993  0.3433  0.0095  0.3348
11187TIP3   OH255051   4.048   4.423  17.229  0.4501 -0.0928 -0.3105
11187TIP3    H155052   3.997   4.502  17.246 -0.0897 -0.7619  1.4622
11187TIP3    H255053   3.992   4.351  17.259  1.4753 -1.0520 -0.5866
11188TIP3   OH255054   6.327   0.899  16.340  0.1389 -0.5626 -0.2518
11188TIP3    H155055   6.379   0.880  16.261 -0.6660 -1.6881 -0.5293
11188TIP3    H255056   6.263   0.828  16.344 -0.6101  0.1503  0.7565
11189TIP3   OH255057   5.488   0.136   4.927  0.4855 -0.4255 -0.2878
11189TIP3    H155058   5.543   0.126   5.005 -0.1793  1.3958  0.4798
11189TIP3    H255059   5.409   0.085   4.948  0.8362 -0.9992 -0.3339
11190TIP3   OH255060   3.908   3.395   2.135  0.0261 -0.1002  0.1520
11190TIP3    H155061   3.976   3.433   2.079 -0.8152  1.1860 -0.0428
11190TIP3    H255062   3.896   3.307   2.101  0.8747  0.0050 -0.4609
11191TIP3   OH255063   0.745   5.741  12.064 -0.1651 -0.7304 -0.0144
11191TIP3    H155064   0.693   5.819  12.042 -1.2383 -1.2361  0.6887
11191TIP3    H255065   0.814   5.739  11.997 -0.5732  0.3966 -0.4914
11192TIP3   OH255066   6.664   1.609   5.595  0.4737 -0.5630 -0.2744
11192TIP3    H155067   6.732   1.560   5.642  0.9608  0.2562 -0.1125
11192TIP3    H255068   6.684   1.595   5.503  1.8083  0.9204 -0.2479
11193TIP3   OH255069   1.134   2.431  12.318 -0.0882 -0.0253  0.1846
11193TIP3    H155070   1.150   2.482  12.239 -1.4385 -0.1321 -0.1861
11193TIP3    H255071   1.133   2.340  12.288  0.2035 -0.1243  0.4686
11194TIP3   OH255072   5.831   6.378  13.555 -0.9724 -0.2566  0.4562
11194TIP3    H155073   5.913   6.352  13.597 -0.1327  1.4727 -0.0409
11194TIP3    H255074   5.835   6.339  13.467 -0.6787 -0.1545  0.4261
11195TIP3   OH255075   1.604   4.518  11.407 -0.6800  1.1124 -0.2278
11195TIP3    H155076   1.651   4.596  11.377 -0.8144  1.0108 -0.7019
11195TIP3    H255077   1.534   4.507  11.344 -0.4364  0.3877 -0.3765
11196TIP3   OH255078   0.315   2.553   0.490  0.1240  0.0080  0.0939
11196TIP3    H155079   0.332   2.623   0.554  0.6651 -1.2953  1.4301
11196TIP3    H255080   0.396   2.549   0.438  0.7501 -0.6994  1.0925
11197TIP3   OH255081   0.095   6.121  11.920  0.2471  0.1953 -0.4910
11197TIP3    H155082   0.031   6.085  11.859  0.2382  1.5810 -1.3273
11197TIP3    H255083   0.085   6.216  11.913  0.6927  0.4050  1.1946
11198TIP3   OH255084   5.127   0.701  14.528 -0.1451  1.1462 -0.2494
11198TIP3    H155085   5.160   0.655  14.451 -0.6133  2.6488 -1.3860
11198TIP3    H255086   5.183   0.671  14.600 -1.0369 -1.9441 -0.6849
11199TIP3   OH255087   2.023   4.728   4.480 -0.3979 -0.0026 -0.0119
11199TIP3    H155088   1.995   4.705   4.569  0.2009 -0.2450  0.1153
11199TIP3    H255089   1.946   4.771   4.442 -1.9002 -2.8220 -0.5176
11200TIP3   OH255090   0.090   1.049   5.228  0.6173  0.5840  0.0685
11200TIP3    H155091   0.075   1.127   5.174  0.9922  0.4031 -0.3087
11200TIP3    H255092   0.145   1.079   5.300  0.7139  0.6831 -0.0463
11201TIP3   OH255093   6.279   3.299  12.283  0.0448  0.1344 -0.3768
11201TIP3    H155094   6.341   3.353  12.332 -0.3298 -0.1240  0.4050
11201TIP3    H255095   6.315   3.210  12.289 -0.7348 -0.1297  0.6665
11202TIP3   OH255096   0.440   0.732  13.656 -0.1378  0.2372 -0.1668
11202TIP3    H155097   0.472   0.815  13.622 -0.9157  0.5365 -0.1931
11202TIP3    H255098   0.483   0.721  13.740 -2.0227  1.9746  1.0901
11203TIP3   OH255099   5.524   3.370  13.034  0.5446  0.2529  0.0426
11203TIP3    H155100   5.472   3.437  13.078  1.8762  0.7736  0.8895
11203TIP3    H255101   5.500   3.378  12.941  0.6251  1.8826  0.1308
11204TIP3   OH255102   0.566   3.328  16.414 -0.3678 -0.2565  0.7548
11204TIP3    H155103   0.625   3.394  16.377 -0.3861  0.0127  1.2016
11204TIP3    H255104   0.617   3.247  16.412 -0.5375 -0.3437 -0.2912
11205TIP3   OH255105   5.439   0.384   6.046  0.4375 -0.4479 -0.3136
11205TIP3    H155106   5.382   0.411   6.118  1.1880 -2.3439  1.0805
11205TIP3    H255107   5.384   0.388   5.968 -0.6864  0.7096  0.5029
11206TIP3   OH255108   2.388   5.014   5.078 -0.5731  0.6445  0.3463
11206TIP3    H155109   2.352   5.088   5.030 -0.4858  1.7599  1.9274
11206TIP3    H255110   2.356   5.026   5.168 -0.3210 -1.0872  0.7016
11207TIP3   OH255111   2.470   2.087  15.572 -0.3038  0.1101  1.0373
11207TIP3    H155112   2.500   2.020  15.511  1.4030  0.2411  1.6621
11207TIP3    H255113   2.407   2.139  15.523  0.4965 -0.2138 -0.3828
11208TIP3   OH255114   6.785   5.591   3.122  0.2793 -0.4325 -0.5145
11208TIP3    H155115   6.729   5.529   3.168 -1.3378  1.1443 -0.2266
11208TIP3    H255116   6.868   5.545   3.111 -0.0688 -1.7639  1.7662
11209TIP3   OH255117   6.011   1.226  12.011 -0.4841 -0.5446 -0.3753
11209TIP3    H155118   5.997   1.133  12.030 -0.9591 -0.8761 -2.1234
11209TIP3    H255119   5.923   1.261  11.998 -0.2454 -0.2081 -1.1782
11210TIP3   OH255120   4.463   5.665   3.029  0.0869 -0.2820  1.2134
11210TIP3    H155121   4.525   5.593   3.040 -2.0626 -2.4648  0.0001
11210TIP3    H255122   4.413   5.643   2.950 -1.6812  1.7838  1.6410
11211TIP3   OH255123   0.094   5.718   3.645  0.4379  0.4346 -0.5842
11211TIP3    H155124   0.131   5.755   3.726  1.4457  0.3659 -0.9983
11211TIP3    H255125   0.001   5.742   3.648 -0.0108 -1.3229  1.5958
11212TIP3   OH255126   0.535   1.262   0.748  0.0823 -0.7564 -0.5727
11212TIP3    H155127   0.443   1.240   0.758  0.4205 -1.8048  0.4202
11212TIP3    H255128   0.543   1.350   0.783 -0.5853 -0.5659 -0.8923
11213TIP3   OH255129   2.772   2.199   4.560 -0.0583  0.0562 -0.5500
11213TIP3    H155130   2.682   2.185   4.591  0.3747  0.1550  0.8252
11213TIP3    H255131   2.811   2.112   4.562  0.2600  0.2069  0.1663
11214TIP3   OH255132   1.529   0.744  10.656  0.1074 -0.8706 -0.4482
11214TIP3    H155133   1.493   0.656  10.648 -2.2654 -0.1446  1.3737
11214TIP3    H255134   1.459   0.802  10.626  0.7851  0.4947  0.4937
11215TIP3   OH255135   3.954   2.539   4.267  0.3444  0.4753 -0.5056
11215TIP3    H155136   3.932   2.545   4.360  0.0597  1.3688 -0.6252
11215TIP3    H255137   3.996   2.623   4.247 -0.4869  0.6854 -1.4181
11216TIP3   OH255138   4.902   2.130  16.534  0.2152 -0.0255  0.1549
11216TIP3    H155139   4.858   2.144  16.618 -2.0016 -0.0185 -0.9242
11216TIP3    H255140   4.923   2.036  16.534  0.5868  0.0551  0.8756
11217TIP3   OH255141   1.489   0.532   4.128 -0.1317  0.3281  0.3236
11217TIP3    H155142   1.472   0.523   4.034  0.3288  0.3917  0.2356
11217TIP3    H255143   1.410   0.496   4.169 -0.2994  0.2194 -0.0837
11218TIP3   OH255144   5.942   0.247   3.399 -0.1375  0.3426 -0.3062
11218TIP3    H155145   6.017   0.271   3.345  0.9336  0.3272  1.1233
11218TIP3    H255146   5.873   0.225   3.336  0.8438  0.9679 -1.6462
11219TIP3   OH255147   0.192   5.326  14.736 -0.3411  0.3725 -0.2131
11219TIP3    H155148   0.143   5.246  14.718 -0.9238  1.0010 -1.6069
11219TIP3    H255149   0.124   5.394  14.743 -0.0480  0.4990  2.9393
11220TIP3   OH255150   6.558   3.075  11.716 -0.0560  0.6197  0.0661
11220TIP3    H155151   6.570   3.141  11.785  0.7880  0.6391 -0.0946
11220TIP3    H255152   6.508   3.005  11.759 -0.8068  1.2675  0.2871
11221TIP3   OH255153   2.760   4.872  17.143  0.1400 -0.1299 -0.8055
11221TIP3    H155154   2.701   4.816  17.192 -0.8917  1.0226 -0.6865
11221TIP3    H255155   2.755   4.957  17.187  2.4054 -0.1599 -0.3959
11222TIP3   OH255156   5.116   1.324  16.593 -0.2324 -0.0374 -0.6466
11222TIP3    H155157   5.151   1.413  16.585 -0.3493  0.2470  1.4017
11222TIP3    H255158   5.158   1.275  16.523 -0.5916  1.7456 -2.2050
11223TIP3   OH255159   6.063   0.829   6.185 -0.4077 -0.7384  0.4374
11223TIP3    H155160   5.979   0.865   6.215 -0.2120  0.0350  0.1092
11223TIP3    H255161   6.120   0.834   6.262 -0.4829 -0.6706  0.4896
11224TIP3   OH255162   0.761   1.795  16.532  0.3939  0.4650  0.0301
11224TIP3    H155163   0.807   1.827  16.610  1.1902 -1.7762  0.5653
11224TIP3    H255164   0.713   1.718  16.564  0.2088 -0.1032 -1.5554
11225TIP3   OH255165   2.151   2.757   5.367  0.1514  0.3089  0.1598
11225TIP3    H155166   2.192   2.735   5.283  1.3228  0.1528  0.7415
11225TIP3    H255167   2.091   2.828   5.347 -0.0055 -0.1075 -0.9091
11226TIP3   OH255168   2.877   0.742  13.404  0.3207 -0.0782  0.4214
11226TIP3    H155169   2.791   0.752  13.444  0.4255  0.5994  0.4973
11226TIP3    H255170   2.882   0.650  13.378  0.7057 -0.8532  3.0124
11227TIP3   OH255171   1.043   6.373   5.436 -0.1618  0.1797 -0.1600
11227TIP3    H155172   1.008   6.295   5.391 -0.7387  0.0016  0.5757
11227TIP3    H255173   1.135   6.352   5.453  0.4887  0.8263 -2.5156
11228TIP3   OH255174   3.444   5.187  14.776  0.0349 -0.3049 -0.1643
11228TIP3    H155175   3.401   5.108  14.811 -1.4347  0.0428 -1.0966
11228TIP3    H255176   3.519   5.153  14.727 -0.1618 -1.0614  0.0411
11229TIP3   OH255177   2.584   4.011  10.896 -0.2843  0.0212 -0.6502
11229TIP3    H155178   2.662   3.978  10.852 -1.6338 -2.5437 -1.3002
11229TIP3    H255179   2.523   3.937  10.896 -2.5119  1.7354  0.3630
11230TIP3   OH255180   5.398   1.171  13.412  0.4206 -0.5442 -0.0390
11230TIP3    H155181   5.391   1.124  13.496  0.1158  2.9711  2.1030
11230TIP3    H255182   5.458   1.243  13.430 -1.3724  1.6471 -2.2013
11231TIP3   OH255183   2.551   4.808  11.290  0.5183 -0.3611  0.3378
11231TIP3    H155184   2.585   4.793  11.202 -0.7448 -1.8285  0.0532
11231TIP3    H255185   2.482   4.742  11.301  1.6108 -1.2106  2.9875
11232TIP3   OH255186   4.823   4.329  15.120  0.3686  0.4186 -0.0671
11232TIP3    H155187   4.852   4.315  15.210  0.6446  0.4808 -0.1464
11232TIP3    H255188   4.883   4.278  15.066  0.2096  0.3879 -0.2172
11233TIP3   OH255189   5.840   6.154   3.162  0.3320  0.1018 -0.1141
11233TIP3    H155190   5.891   6.078   3.135  0.4983 -1.5322  4.0412
11233TIP3    H255191   5.756   6.119   3.189 -0.1994  1.6453  0.3732
11234TIP3   OH255192   0.028   3.472  13.340 -0.2094 -0.5610 -0.0409
11234TIP3    H155193   0.101   3.435  13.390  0.3084 -0.0960 -0.4443
11234TIP3    H255194  -0.050   3.450  13.392 -0.0692 -3.0840 -0.7238
11235TIP3   OH255195   5.321   4.052   0.628  0.0985 -0.1419  0.0667
11235TIP3    H155196   5.304   4.006   0.710  1.0236 -1.0921 -0.2580
11235TIP3    H255197   5.402   4.014   0.595 -0.1949  0.3071 -1.2366
11236TIP3   OH255198   0.543   4.097   1.294  0.0120  0.1074 -0.5776
11236TIP3    H155199   0.531   4.015   1.247 -1.2371 -0.5714  0.8194
11236TIP3    H255200   0.572   4.071   1.381  2.1763  1.3177 -0.8687
11237TIP3   OH255201   1.673   6.229   2.833  0.2475 -0.6479  0.1766
11237TIP3    H155202   1.741   6.267   2.889 -0.8773  1.0396  0.4880
11237TIP3    H255203   1.590   6.257   2.873 -0.6074 -0.6791 -1.4639
11238TIP3   OH255204   3.575   6.629   2.035 -0.3174 -0.5629 -0.0491
11238TIP3    H155205   3.580   6.541   1.999 -2.2432  0.3732 -2.9970
11238TIP3    H255206   3.621   6.684   1.972 -0.8482  0.7940  0.6950
11239TIP3   OH255207   5.405   3.858   4.312 -0.0959 -0.0746  0.1794
11239TIP3    H155208   5.415   3.952   4.327  1.2781 -0.3471  1.1181
11239TIP3    H255209   5.436   3.845   4.222  0.5970  0.2418  0.3652
11240TIP3   OH255210   6.550   6.316   1.128  0.0176  0.1973  0.0767
11240TIP3    H155211   6.562   6.402   1.088 -0.5580  0.3986  0.3351
11240TIP3    H255212   6.634   6.296   1.169  1.4898 -1.0654 -3.2086
11241TIP3   OH255213   4.361   5.651  12.444 -0.6875  0.0290 -0.4239
11241TIP3    H155214   4.365   5.707  12.367  2.0770  0.8694  0.2018
11241TIP3    H255215   4.342   5.710  12.517 -1.2497 -0.4332 -0.1857
11242TIP3   OH255216   0.137   2.817  14.198 -0.1652  0.0409 -0.2090
11242TIP3    H155217   0.227   2.846  14.208  0.2917 -1.0700 -0.8439
11242TIP3    H255218   0.124   2.751  14.266  0.8643 -2.7589 -2.5129
11243TIP3   OH255219   6.491   5.416   2.030 -0.3540  0.2802  0.0130
11243TIP3    H155220   6.575   5.413   1.983 -0.3692  1.2522 -0.0827
11243TIP3    H255221   6.474   5.324   2.053  0.6833  0.0559 -0.0564
11244TIP3   OH255222   3.568   2.292   0.014 -0.1364  0.6289 -0.6091
11244TIP3    H155223   3.650   2.342   0.015  0.5761 -0.4414  1.6733
11244TIP3    H255224   3.596   2.202  -0.003 -0.6145  0.0193  1.5259
11245TIP3   OH255225   0.180   4.675   2.266 -0.3137  0.3185  0.0847
11245TIP3    H155226   0.178   4.723   2.183 -0.7386 -0.7842 -0.5596
11245TIP3    H255227   0.178   4.583   2.240  1.2873 -0.0967  1.2566
11246TIP3   OH255228   3.344   6.808  15.897  0.2780  0.2207  0.2062
11246TIP3    H155229   3.255   6.776  15.912 -0.5980  1.4876 -1.9213
11246TIP3    H255230   3.342   6.900  15.925  1.4526 -0.1797  1.7767
11247TIP3   OH255231   6.332   5.084  12.710 -0.0643 -0.3501 -0.2366
11247TIP3    H155232   6.295   4.996  12.701 -1.6051 -0.3367  3.8110
11247TIP3    H255233   6.259   5.143  12.690  0.3417 -0.0344 -0.8201
11248TIP3   OH255234   6.758   0.845   6.805 -0.1959 -0.0622 -0.2430
11248TIP3    H155235   6.725   0.783   6.741 -1.6338 -0.2913  0.6781
11248TIP3    H255236   6.818   0.794   6.860  0.1744 -0.1327 -0.7099
11249TIP3   OH255237   0.583   2.163  11.829 -0.0255  0.2391  0.3105
11249TIP3    H155238   0.573   2.173  11.923 -1.0900  0.1459  0.2236
11249TIP3    H255239   0.543   2.242  11.792 -2.1152 -0.9507 -0.1350
11250TIP3   OH255240   3.257   6.625   2.614 -0.1210 -0.0191 -0.2060
11250TIP3    H155241   3.317   6.658   2.547 -0.5739 -1.2545 -1.2678
11250TIP3    H255242   3.309   6.563   2.665  0.0304  0.3793  0.1235
11251TIP3   OH255243   4.488   3.258  12.467 -0.2130  0.2539  0.1922
11251TIP3    H155244   4.435   3.183  12.442  1.3716 -0.8189 -0.0852
11251TIP3    H255245   4.429   3.314  12.517 -1.6424 -0.7728 -0.2977
11252TIP3   OH255246   6.032   6.336  16.623  0.5731  0.6933 -0.1970
11252TIP3    H155247   5.982   6.291  16.555  0.4886 -0.5256  0.6395
11252TIP3    H255248   5.966   6.386  16.671  0.4066  0.3957 -0.1126
11253TIP3   OH255249   4.937   3.580   0.450  0.3961  0.2973  0.5856
11253TIP3    H155250   4.993   3.656   0.466 -0.3665  1.2093 -0.9255
11253TIP3    H255251   4.925   3.578   0.356 -3.8041  1.4317  0.9129
11254TIP3   OH255252   2.410   0.476   3.715  0.7092  0.2507  0.0938
11254TIP3    H155253   2.447   0.395   3.680  0.1533 -0.4641  1.1263
11254TIP3    H255254   2.318   0.456   3.730  0.7426  0.8009  1.1440
11255TIP3   OH255255   3.165   2.652   4.916 -0.7814 -0.0369 -0.1581
11255TIP3    H155256   3.122   2.706   4.850 -1.8929 -1.0753 -0.3113
11255TIP3    H255257   3.186   2.712   4.987 -1.0380  0.7860 -0.7720
11256TIP3   OH255258   3.672   6.484  16.980  0.0375  0.1836  0.0703
11256TIP3    H155259   3.677   6.549  17.050  0.1385 -1.8112  2.0598
11256TIP3    H255260   3.579   6.478  16.959 -0.3069 -0.7141  1.6617
11257TIP3   OH255261   0.910   2.260   2.300  0.5922 -0.2339  0.3665
11257TIP3    H155262   0.973   2.322   2.264 -0.4100  0.7994  0.3542
11257TIP3    H255263   0.896   2.196   2.230  2.0670 -0.8418  0.5880
11258TIP3   OH255264   0.413   6.771   2.919 -0.1481  0.3187 -0.2474
11258TIP3    H155265   0.457   6.840   2.870 -0.4448  1.3348  0.8591
11258TIP3    H255266   0.324   6.804   2.932 -0.2626 -0.2256  0.3939
11259TIP3   OH255267   0.068   0.743   1.334 -0.1561 -0.4057  0.2673
11259TIP3    H155268   0.040   0.788   1.415  0.2960 -0.7745  0.6276
11259TIP3    H255269   0.097   0.657   1.363  0.1237 -0.4963 -0.2780
11260TIP3   OH255270   1.281   4.927  16.171  0.7453  0.1614  0.5399
11260TIP3    H155271   1.357   4.959  16.221  2.5121 -1.0931 -1.1766
11260TIP3    H255272   1.278   4.833  16.190  0.1534  0.0436 -0.0984
11261TIP3   OH255273   2.882   6.554  15.366  0.6195  0.3907  0.1237
11261TIP3    H155274   2.877   6.638  15.411  2.4320  0.2155  0.7106
11261TIP3    H255275   2.916   6.493  15.432  0.0553 -0.6510 -0.5137
11262TIP3   OH255276   2.994   1.579   5.357 -0.0344 -0.5051 -0.3995
11262TIP3    H155277   2.997   1.633   5.436  0.4976  0.0076 -0.7599
11262TIP3    H255278   3.027   1.494   5.385  1.2834  0.0092 -0.3248
11263TIP3   OH255279   5.301   5.262   1.754  0.1258  0.5062 -0.5300
11263TIP3    H155280   5.329   5.353   1.765  2.2214 -0.1988  0.5527
11263TIP3    H255281   5.318   5.242   1.662 -0.8652  1.3285 -0.9132
11264TIP3   OH255282   2.466   4.906  14.871  0.1107  0.0204  0.2558
11264TIP3    H155283   2.390   4.860  14.905 -0.8326  0.1620 -1.5318
11264TIP3    H255284   2.474   4.984  14.925 -3.1543  1.7981 -1.5601
11265TIP3   OH255285   6.667   4.609   3.618 -0.2089  0.0810  0.1808
11265TIP3    H155286   6.749   4.583   3.575 -0.4545 -1.1796  0.4365
11265TIP3    H255287   6.672   4.704   3.623  0.9868  0.0649 -0.3222
11266TIP3   OH255288   5.972   4.453  12.910  0.1397 -0.3046 -0.2006
11266TIP3    H155289   6.046   4.471  12.968 -1.2118 -0.1679  1.5821
11266TIP3    H255290   5.932   4.374  12.947 -0.8963 -0.0832 -0.8133
11267TIP3   OH255291   0.986   4.348  16.810  0.1951 -0.3573  0.4010
11267TIP3    H155292   0.980   4.280  16.877 -1.3458  0.9764  1.7123
11267TIP3    H255293   1.029   4.422  16.855 -0.1563  0.2888 -0.3094
11268TIP3   OH255294   4.031   4.360  11.265 -0.0168 -0.2820  0.0243
11268TIP3    H155295   3.991   4.447  11.272  0.8631  0.0647  0.9394
11268TIP3    H255296   3.991   4.310  11.337  1.1558  0.0731  0.9588
11269TIP3   OH255297   5.511   5.111  16.018  0.4065 -0.0400  0.2814
11269TIP3    H155298   5.436   5.054  16.002  0.7118 -0.1936 -0.6644
11269TIP3    H255299   5.481   5.199  15.995  0.5705 -0.1339 -0.3263
11270TIP3   OH255300   2.786   6.091   2.492  0.0065  0.1883  0.1300
11270TIP3    H155301   2.826   6.127   2.412 -2.8348 -1.3060 -2.1611
11270TIP3    H255302   2.717   6.153   2.514  1.6960  1.3834  2.4884
11271TIP3   OH255303   1.257   0.817   0.655  0.0414  0.4937 -0.3166
11271TIP3    H155304   1.308   0.881   0.604 -0.0283  1.1203  0.3933
11271TIP3    H255305   1.322   0.770   0.707  0.2321 -0.8078 -1.6389
11272TIP3   OH255306   6.657   4.000   4.916  0.4501  0.0376  0.0785
11272TIP3    H155307   6.663   4.027   5.008  2.7687 -1.3430  0.4139
11272TIP3    H255308   6.645   3.905   4.920 -0.7665  0.1266 -1.0697
11273TIP3   OH255309   2.669   2.110   2.242 -0.2797 -0.1043  0.2292
11273TIP3    H155310   2.635   2.193   2.273 -1.6725 -1.1115  1.5464
11273TIP3    H255311   2.592   2.053   2.237  0.3822 -0.9063 -2.1419
11274TIP3   OH255312   0.567   5.427  15.311 -0.3996 -0.4913 -0.7269
11274TIP3    H155313   0.563   5.515  15.273 -1.0569 -0.8440 -1.4926
11274TIP3    H255314   0.528   5.370  15.245  1.1620 -1.5636 -0.7985
11275TIP3   OH255315   6.136   1.323   1.467 -0.2738 -0.4742  0.0600
11275TIP3    H155316   6.154   1.415   1.449 -1.1415  0.1999  2.3132
11275TIP3    H255317   6.041   1.318   1.477 -0.2011 -1.5241  0.4217
11276TIP3   OH255318   3.956   5.606  14.311 -0.7510  0.3717  0.0704
11276TIP3    H155319   3.959   5.641  14.222 -3.3936  0.5634  0.0005
11276TIP3    H255320   3.942   5.512  14.299 -0.8038  0.3513  0.2926
11277TIP3   OH255321   4.566   4.731   5.096  0.6465  0.1199  0.0537
11277TIP3    H155322   4.630   4.762   5.032 -0.8991  0.7538 -1.2586
11277TIP3    H255323   4.590   4.640   5.112  2.1142  0.4546 -0.0607
11278TIP3   OH255324   0.326   1.160   5.297 -0.4707  0.3815 -0.8860
11278TIP3    H155325   0.388   1.142   5.368 -1.4681 -1.2484 -0.3821
11278TIP3    H255326   0.382   1.174   5.220  0.5564  0.2634 -0.1841
11279TIP3   OH255327   5.242   1.810   3.099  0.3377 -0.2282 -0.7830
11279TIP3    H155328   5.160   1.814   3.049  0.1502 -3.0692 -0.8403
11279TIP3    H255329   5.225   1.746   3.168  1.5309  1.4863  1.2334
11280TIP3   OH255330   1.774   5.895   1.230  0.0407  0.4106  0.2529
11280TIP3    H155331   1.764   5.846   1.149  0.0553  0.5141  0.1888
11280TIP3    H255332   1.771   5.829   1.299 -1.3977  0.4693  0.2577
11281TIP3   OH255333   5.719   4.235   6.315  0.0111 -0.3206  0.0108
11281TIP3    H155334   5.671   4.160   6.351 -1.1807  0.3973  0.0057
11281TIP3    H255335   5.691   4.308   6.370  1.6572  0.0251  0.4326
11282TIP3   OH255336   5.135   5.359  10.976  0.0054  0.2423 -0.3546
11282TIP3    H155337   5.102   5.448  10.960  0.2032  0.0333 -2.0222
11282TIP3    H255338   5.077   5.302  10.927  0.2963 -0.4982  0.1498
11283TIP3   OH255339   6.385   2.242  14.740  0.6858  0.4956  0.1059
11283TIP3    H155340   6.468   2.196  14.748  0.4870  0.0515 -0.2991
11283TIP3    H255341   6.380   2.267  14.648 -0.5189 -1.2459 -0.3514
11284TIP3   OH255342   3.510   3.103  13.765  0.2084  0.4414 -0.4436
11284TIP3    H155343   3.469   3.101  13.851 -3.2317 -0.3333 -1.9504
11284TIP3    H255344   3.600   3.072  13.781 -0.3728  0.0313  2.7729
11285TIP3   OH255345   3.073   0.892   2.308  0.1076  0.2713  0.2961
11285TIP3    H155346   3.097   0.967   2.253 -0.2385 -0.1837 -0.4939
11285TIP3    H255347   3.157   0.861   2.343  0.2721  0.9081  0.4747
11286TIP3   OH255348   0.946   6.350  16.784 -0.0451  0.5393  0.3503
11286TIP3    H155349   0.862   6.395  16.799  0.3265  1.0381  0.9506
11286TIP3    H255350   0.924   6.281  16.721 -0.4880  2.0068 -1.1794
11287TIP3   OH255351   3.123   5.204  10.998  0.3126  0.2096  0.0708
11287TIP3    H155352   3.137   5.294  10.969 -0.0468  0.0602 -0.5913
11287TIP3    H255353   3.038   5.180  10.961  1.3575 -1.1284 -1.6242
11288TIP3   OH255354   2.762   2.818  12.873 -0.0284  0.8218 -0.1469
11288TIP3    H155355   2.719   2.836  12.790 -4.2602 -0.4374  1.5306
11288TIP3    H255356   2.769   2.722  12.877  0.7858  0.8962  0.6401
11289TIP3   OH255357   1.039   5.063  10.981  0.8030  0.8636  0.3491
11289TIP3    H155358   0.955   5.082  10.942  0.6988  0.2403  0.2480
11289TIP3    H255359   1.103   5.106  10.925  0.6587 -0.0315 -0.5256
11290TIP3   OH255360   1.973   3.084   2.486  0.8865  0.3443 -0.0608
11290TIP3    H155361   1.974   3.148   2.557  0.6461 -1.3072  1.5058
11290TIP3    H255362   2.055   3.098   2.440  1.4718  0.8662  1.0886
11291TIP3   OH255363   1.297   6.314   1.649 -0.2367  0.3024 -0.1713
11291TIP3    H155364   1.210   6.275   1.638  0.5613 -1.1226 -2.1791
11291TIP3    H255365   1.284   6.407   1.632 -1.1078 -0.1801 -2.6055
11292TIP3   OH255366   1.770   5.244  12.103  0.0273  0.1190  0.4444
11292TIP3    H155367   1.754   5.241  12.009  0.7159  1.1053  0.2943
11292TIP3    H255368   1.762   5.336  12.127 -0.7770 -0.1931  1.4744
11293TIP3   OH255369   2.586   5.311  11.798  0.2768  0.0429 -0.0155
11293TIP3    H155370   2.620   5.394  11.766  0.4606 -0.3039 -0.7413
11293TIP3    H255371   2.663   5.256  11.809  0.0387 -0.4993 -0.9386
11294TIP3   OH255372   1.323   0.143  13.898  0.1605 -0.0823  0.2243
11294TIP3    H155373   1.238   0.182  13.880 -0.2885 -1.1436 -0.0061
11294TIP3    H255374   1.358   0.119  13.812  0.1320 -0.7763  0.3972
11295TIP3   OH255375   6.448   3.163   0.626 -0.1265  0.2284  0.5286
11295TIP3    H155376   6.411   3.169   0.538 -1.2546 -0.4248  0.9374
11295TIP3    H255377   6.498   3.244   0.637 -3.3357  2.3407  0.7867
11296TIP3   OH255378   0.015   6.721  17.124 -0.1638  0.0881 -0.1780
11296TIP3    H155379  -0.056   6.781  17.102 -0.5197  0.5193  1.9072
11296TIP3    H255380   0.034   6.674  17.042 -2.0414  0.7714 -1.0578
11297TIP3   OH255381   2.386   2.785  14.005 -0.4308  0.0394 -0.7520
11297TIP3    H155382   2.381   2.723  14.078 -0.7667  1.8426  0.8289
11297TIP3    H255383   2.380   2.871  14.046 -1.1387  1.1230 -2.9720
11298TIP3   OH255384   4.295   0.741   1.683  0.3099  0.1677  0.1787
11298TIP3    H155385   4.212   0.696   1.701 -0.4106  1.1177 -0.6333
11298TIP3    H255386   4.317   0.784   1.765 -0.6486  0.8891  0.0819
11299TIP3   OH255387   2.655   2.595   5.271  0.6797  0.1954 -0.7500
11299TIP3    H155388   2.742   2.629   5.248  0.4079  1.3972 -0.0707
11299TIP3    H255389   2.598   2.672   5.269 -0.0419 -0.2812  0.4035
11300TIP3   OH255390   1.760   5.180  14.728 -0.1302 -0.4230  0.5722
11300TIP3    H155391   1.673   5.219  14.714  0.5136  0.8246 -0.0862
11300TIP3    H255392   1.784   5.144  14.643 -0.6279 -2.1859  1.1175
11301TIP3   OH255393   2.839   4.808   6.121 -0.0182 -0.2200 -0.0768
11301TIP3    H155394   2.927   4.794   6.156  0.3139  0.0097 -0.8173
11301TIP3    H255395   2.841   4.895   6.082  0.5749 -1.5963 -3.4315
11302TIP3   OH255396   5.164   5.804   6.022  0.1406 -0.2061  0.4308
11302TIP3    H155397   5.168   5.710   6.002  0.5332 -0.1835  0.3990
11302TIP3    H255398   5.101   5.839   5.960 -1.6044 -0.8050  1.7843
11303TIP3   OH255399   1.386   2.117   2.852  0.0428  0.0450  1.0017
11303TIP3    H155400   1.375   2.041   2.795  0.0349 -0.0456  1.1254
11303TIP3    H255401   1.385   2.192   2.792  1.5681 -0.1446  0.7142
11304TIP3   OH255402   2.375   0.894   3.700 -0.8094 -0.0681  0.4527
11304TIP3    H155403   2.408   0.913   3.612 -0.8838 -1.3199  0.1377
11304TIP3    H255404   2.291   0.850   3.684  0.3054 -2.5346  1.0477
11305TIP3   OH255405   1.046   1.897  16.782 -0.0436  0.5306  0.1088
11305TIP3    H155406   0.967   1.947  16.765  0.7669  1.2242 -1.8810
11305TIP3    H255407   1.116   1.963  16.787  0.8504 -0.2638 -1.2872
11306TIP3   OH255408   1.204   1.892   4.623 -0.3232 -0.4698  0.2781
11306TIP3    H155409   1.248   1.935   4.697  0.5189  1.2807 -1.1554
11306TIP3    H255410   1.169   1.964   4.571 -2.2766 -1.7237 -0.2369
11307TIP3   OH255411   5.106   3.481  13.616  0.3540  0.1762 -0.1848
11307TIP3    H155412   5.102   3.548  13.548  1.4189 -0.9483 -1.4052
11307TIP3    H255413   5.164   3.517  13.683  1.3297  0.2770 -1.0701
11308TIP3   OH255414   0.955   5.740  11.883  0.1209  0.1917 -0.0774
11308TIP3    H155415   0.895   5.787  11.825  0.4039  1.5547  0.7145
11308TIP3    H255416   1.023   5.803  11.905  1.0905 -0.9049  0.1900
11309TIP3   OH255417   2.905   3.418   4.494  0.2917 -0.0118 -0.6140
11309TIP3    H155418   2.981   3.409   4.551  0.7411  0.2080 -1.1754
11309TIP3    H255419   2.877   3.328   4.476  0.9165 -0.1181 -1.0702
11310TIP3   OH255420   0.205   4.876   3.588  0.0409 -0.1848 -0.3152
11310TIP3    H155421   0.276   4.843   3.643 -1.1430 -0.2424  1.2478
11310TIP3    H255422   0.178   4.958   3.631 -2.3558 -1.3204  0.5084
11311TIP3   OH255423   6.798   1.608  12.642  0.3939 -0.0804  0.0081
11311TIP3    H155424   6.861   1.563  12.586  0.2850 -0.4156  0.1456
11311TIP3    H255425   6.716   1.559  12.630  0.2259  0.1985  0.0177
11312TIP3   OH255426   4.275   0.423   0.316  0.1499  0.3433 -0.2617
11312TIP3    H155427   4.311   0.363   0.381 -1.0366  0.0705  0.1671
11312TIP3    H255428   4.312   0.392   0.233  2.8675  1.5800  0.3520
11313TIP3   OH255429   2.057   2.132  15.277  0.7340  0.2423 -0.0858
11313TIP3    H155430   2.053   2.081  15.197 -0.0031 -1.1520  0.7925
11313TIP3    H255431   2.003   2.209  15.260 -0.7478 -0.8338 -0.4077
11314TIP3   OH255432   6.494   0.351   2.645 -0.8070  0.3293  0.0227
11314TIP3    H155433   6.565   0.342   2.709 -0.0609 -0.5987 -0.8942
11314TIP3    H255434   6.528   0.412   2.580 -1.3699  0.8861  0.2464
11315TIP3   OH255435   3.909   3.597   4.002 -0.1378 -0.1734 -0.7933
11315TIP3    H155436   3.830   3.622   3.955  0.7096  1.3043 -1.4657
11315TIP3    H255437   3.973   3.665   3.983  1.8284 -2.0848 -1.5168
11316TIP3   OH255438   5.059   0.419  11.780  0.7585 -0.3612  0.4316
11316TIP3    H155439   5.068   0.507  11.817  0.3168  0.4939 -1.3868
11316TIP3    H255440   5.148   0.383  11.781  1.2184  0.7068 -0.1747
11317TIP3   OH255441   6.223   2.381   4.323  0.2709  0.2303  0.3556
11317TIP3    H155442   6.172   2.309   4.287 -0.5894  0.9647  0.0867
11317TIP3    H255443   6.314   2.358   4.303 -0.0900 -0.0226 -1.1464
11318TIP3   OH255444   3.095   2.591   1.074 -0.1548  0.1532  0.0355
11318TIP3    H155445   3.063   2.544   0.997  0.4254  0.4970 -0.4179
11318TIP3    H255446   3.111   2.522   1.139 -0.3808 -0.1620 -0.2348
11319TIP3   OH255447   4.096   3.952  15.459 -0.1863 -0.4789 -0.5434
11319TIP3    H155448   4.189   3.963  15.480 -0.8283  0.2774  2.2017
11319TIP3    H255449   4.065   4.040  15.439 -0.9724 -0.1728  1.7834
11320TIP3   OH255450   1.091   4.505   0.973 -0.5570 -0.0605 -0.3425
11320TIP3    H155451   1.054   4.524   0.886 -1.4696  0.6432  0.1767
11320TIP3    H255452   1.016   4.510   1.032  0.2390  0.6237  0.6500
11321TIP3   OH255453   3.532   1.668   3.126 -0.1366 -0.1529 -0.6623
11321TIP3    H155454   3.439   1.690   3.134  0.0955  0.4673  0.6415
11321TIP3    H255455   3.577   1.751   3.139  0.6306 -0.6179 -0.2714
11322TIP3   OH255456   6.478   2.616   1.822  0.8856  0.1580  0.1080
11322TIP3    H155457   6.397   2.616   1.770  1.7216 -0.2285 -1.2456
11322TIP3    H255458   6.548   2.616   1.757  2.0147  1.7980  1.2299
11323TIP3   OH255459   0.536   6.267  13.558 -0.2303  0.0376 -0.7131
11323TIP3    H155460   0.496   6.313  13.484 -4.6612 -1.0744  0.6319
11323TIP3    H255461   0.498   6.178  13.553 -0.7227 -0.0698  2.7609
11324TIP3   OH255462   4.755   0.226  11.432  0.5807  0.2014 -0.1294
11324TIP3    H155463   4.668   0.265  11.429  0.7210  0.4813 -1.8970
11324TIP3    H255464   4.814   0.300  11.443  0.6175  0.0274  0.9013
11325TIP3   OH255465   0.103   2.106   3.552 -0.6993 -0.4233  0.2136
11325TIP3    H155466   0.190   2.147   3.548 -1.3046  0.8196 -1.4147
11325TIP3    H255467   0.116   2.020   3.513 -0.0324 -0.6094  0.8107
11326TIP3   OH255468   2.282   4.875   1.639  0.2873  0.0134 -0.4511
11326TIP3    H155469   2.254   4.788   1.666  0.6207  0.2124  0.5704
11326TIP3    H255470   2.334   4.860   1.560  0.1772 -0.6911 -0.3944
11327TIP3   OH255471   4.015   3.260  13.119 -0.0558  0.3694 -0.7424
11327TIP3    H155472   4.054   3.284  13.035 -0.6406  0.9668 -0.8534
11327TIP3    H255473   4.087   3.270  13.182  0.1345  0.8600 -1.0285
11328TIP3   OH255474   1.296   2.819  10.649 -0.1305 -0.0882 -0.1110
11328TIP3    H155475   1.285   2.887  10.583 -2.1629  0.5298  0.7562
11328TIP3    H255476   1.340   2.747  10.604  0.7044  1.2313 -1.4525
11329TIP3   OH255477   5.884   0.268   0.238  0.1959 -0.5401 -0.7517
11329TIP3    H155478   5.862   0.197   0.299 -3.3113  0.6858 -0.3067
11329TIP3    H255479   5.946   0.322   0.287  2.4861 -2.8346 -0.8811
11330TIP3   OH255480   2.399   0.106   2.753 -0.6523  0.3822 -0.2442
11330TIP3    H155481   2.451   0.056   2.689  0.4648 -0.1799  1.0373
11330TIP3    H255482   2.428   0.196   2.742 -0.5291  0.2974 -0.6136
11331TIP3   OH255483   4.313   0.824   3.375 -0.0527  0.3927 -0.2840
11331TIP3    H155484   4.240   0.762   3.371  0.3437 -0.0412 -1.2068
11331TIP3    H255485   4.288   0.887   3.442 -1.1617  0.1074 -0.4139
11332TIP3   OH255486   3.467   4.679  13.261  0.8683 -0.0965  0.2245
11332TIP3    H155487   3.389   4.628  13.242  0.7547  0.3183 -0.4847
11332TIP3    H255488   3.449   4.721  13.345 -0.2208  1.0136 -0.5350
11333TIP3   OH255489   1.714   6.276   4.020  0.0144  0.4405  0.2560
11333TIP3    H155490   1.635   6.331   4.022 -0.1589  0.1732  1.0145
11333TIP3    H255491   1.756   6.291   4.105 -0.1403 -0.7448  0.5614
11334TIP3   OH255492   6.484   6.486   6.353 -0.3361  0.4518  0.7768
11334TIP3    H155493   6.398   6.488   6.394  0.1113  0.0927  1.7640
11334TIP3    H255494   6.540   6.537   6.411  0.2349  0.2394  0.4255
11335TIP3   OH255495   4.431   2.828  10.310 -0.0287 -0.0939  0.5460
11335TIP3    H155496   4.436   2.878  10.229  0.2069  0.0448  0.6425
11335TIP3    H255497   4.480   2.881  10.373 -0.0436 -0.2961  0.7275
11336TIP3   OH255498   4.194   5.365   1.251 -0.0757  0.2458 -0.3592
11336TIP3    H155499   4.113   5.315   1.262 -0.5209  0.8673 -0.7381
11336TIP3    H255500   4.235   5.362   1.338  0.6391 -1.9572 -0.7140
11337TIP3   OH255501   5.189   0.874  14.871 -0.1071 -0.3780  1.0847
11337TIP3    H155502   5.229   0.853  14.787  1.1383 -0.3785  1.6572
11337TIP3    H255503   5.095   0.863  14.856  0.2071 -2.5058  0.2764
11338TIP3   OH255504   6.798   2.298  11.770  0.5180  0.4542  0.4978
11338TIP3    H155505   6.767   2.294  11.680  0.7569 -0.3843  0.4450
11338TIP3    H255506   6.893   2.283  11.763  0.3482 -1.0899  0.9926
11339TIP3   OH255507   3.998   4.659   0.912  0.0313 -0.9453 -0.0597
11339TIP3    H155508   4.041   4.736   0.949  0.5918 -1.9135  1.4041
11339TIP3    H255509   3.976   4.685   0.822 -2.3418  1.8920  1.1559
11340TIP3   OH255510   0.413   4.943   0.214  0.2275  0.3313 -0.0483
11340TIP3    H155511   0.381   4.946   0.124 -0.8312 -0.1995  0.2997
11340TIP3    H255512   0.479   4.873   0.214 -0.7189 -0.5800 -0.1203
11341TIP3   OH255513   0.977   0.214  15.973 -0.4789 -0.1947  0.0307
11341TIP3    H155514   1.058   0.170  16.000 -1.2203  0.1718  3.3582
11341TIP3    H255515   0.950   0.168  15.894  2.5167 -0.8501 -0.7431
11342TIP3   OH255516   1.411   4.332   3.320  0.1607 -0.1724 -0.0365
11342TIP3    H155517   1.390   4.341   3.413  0.2524 -0.4459  0.0108
11342TIP3    H255518   1.421   4.422   3.289  0.2296 -0.0850  0.2396
11343TIP3   OH255519   4.283   3.951   5.267  0.2366  0.1228 -0.3602
11343TIP3    H155520   4.209   3.897   5.294  1.0284 -1.1376 -0.5723
11343TIP3    H255521   4.359   3.911   5.311  0.8923  0.9162 -0.7339
11344TIP3   OH255522   6.429   0.370  11.914  0.5377 -0.1879  0.2891
11344TIP3    H155523   6.470   0.455  11.928 -1.9271  1.0187  0.7512
11344TIP3    H255524   6.502   0.308  11.910  2.2818  1.5577  2.5860
11345TIP3   OH255525   1.959   4.052  12.640 -0.0432  0.1953 -0.5562
11345TIP3    H155526   1.972   3.974  12.586 -3.1053  0.2537 -1.6132
11345TIP3    H255527   2.040   4.062  12.688  1.4560 -2.0791 -2.3735
11346TIP3   OH255528   5.026   0.341  17.287  0.0085  0.1254  0.6478
11346TIP3    H155529   5.021   0.248  17.265 -1.1565  0.0916  1.0236
11346TIP3    H255530   5.054   0.342  17.379 -0.1511  0.1488  0.6951
11347TIP3   OH255531   6.424   5.559  15.852 -0.0836  0.0112 -0.2240
11347TIP3    H155532   6.517   5.539  15.841 -0.0260  0.0451  0.1752
11347TIP3    H255533   6.416   5.580  15.945 -0.7703 -1.4295  0.0618
11348TIP3   OH255534   4.877   5.343  15.807  0.1320  0.9631  0.0429
11348TIP3    H155535   4.786   5.339  15.836 -0.6500  1.7589 -2.1381
11348TIP3    H255536   4.910   5.254  15.820 -0.7647  0.7860  1.3400
11349TIP3   OH255537   4.632   3.729  16.875  0.4062  0.3357 -0.1193
11349TIP3    H155538   4.616   3.715  16.969 -2.0373  3.0278  0.0014
11349TIP3    H255539   4.549   3.709  16.833  0.4569  2.2299 -1.2665
11350TIP3   OH255540   1.035   5.655   2.756 -0.1006 -0.6266  0.3623
11350TIP3    H155541   1.047   5.660   2.661  0.3290 -1.1605  0.3889
11350TIP3    H255542   1.098   5.590   2.785 -1.3488 -1.6603  0.8122
11351TIP3   OH255543   6.673   6.803   3.219 -0.3150 -0.2672 -0.1307
11351TIP3    H155544   6.584   6.804   3.253 -0.5412 -2.6589 -0.4810
11351TIP3    H255545   6.663   6.790   3.125  0.4099  1.2905 -0.4606
11352TIP3   OH255546   2.893   1.301   5.473 -0.0722  0.6756 -0.1656
11352TIP3    H155547   2.987   1.306   5.489  0.1141 -0.8561 -0.6859
11352TIP3    H255548   2.864   1.225   5.523 -0.6140 -0.2495 -1.8143
11353TIP3   OH255549   5.095   2.958  14.574 -0.2973 -0.3749  0.0345
11353TIP3    H155550   5.075   3.001  14.657  0.2794 -0.3577  0.1710
11353TIP3    H255551   5.108   2.866  14.597 -0.6127 -0.4551 -0.1110
11354TIP3   OH255552   5.160   5.472  14.659  0.1136  0.2209 -0.1349
11354TIP3    H155553   5.083   5.479  14.603 -0.7657  1.6135  1.1464
11354TIP3    H255554   5.198   5.560  14.656  0.2191  0.2330  1.1698
11355TIP3   OH255555   4.986   3.991  10.972  0.2457 -0.6008 -0.1232
11355TIP3    H155556   4.949   4.075  10.945 -0.5837 -0.7121  0.6211
11355TIP3    H255557   5.065   4.014  11.022 -0.6629 -0.1789  1.1710
11356TIP3   OH255558   3.583   4.415   0.073  0.5850  0.1518 -0.3681
11356TIP3    H155559   3.519   4.481   0.045  0.3793  0.1164  0.0111
11356TIP3    H255560   3.529   4.341   0.103  0.7285  0.9243  1.9812
11357TIP3   OH255561   2.042   2.317   0.453  0.2980 -0.1080 -0.2266
11357TIP3    H155562   2.033   2.411   0.435  0.3638  0.2041  1.2192
11357TIP3    H255563   2.123   2.310   0.502 -0.3401 -0.7375  0.7764
11358TIP3   OH255564   1.122   4.138  11.309 -0.3101 -0.4850  1.0076
11358TIP3    H155565   1.107   4.058  11.259 -1.4167 -1.3375  2.6155
11358TIP3    H255566   1.185   4.114  11.376  1.4118  0.7305 -0.0956
11359TIP3   OH255567   2.897   0.947   5.316 -0.1808  0.9289 -0.3728
11359TIP3    H155568   2.805   0.967   5.331 -0.1730  0.4188  0.3850
11359TIP3    H255569   2.902   0.927   5.222 -0.6366  1.9686 -0.6384
11360TIP3   OH255570   6.658   1.099  14.013 -0.1323  0.6910 -0.2272
11360TIP3    H155571   6.669   1.099  14.108  0.2729  1.2141 -0.2721
11360TIP3    H255572   6.591   1.166  13.997 -0.8057  0.0288 -0.2505
11361TIP3   OH255573   0.380   5.244  13.171 -0.6141  0.3036 -0.6592
11361TIP3    H155574   0.323   5.177  13.133 -1.2783  0.0351  0.7636
11361TIP3    H255575   0.444   5.194  13.223 -1.1446  0.7558  0.4550
11362TIP3   OH255576   4.025   5.378  11.584 -0.5426 -0.6528  0.5478
11362TIP3    H155577   3.983   5.396  11.500 -0.4787  0.7304  0.7897
11362TIP3    H255578   4.065   5.460  11.610 -0.7482 -0.9767  2.0393
11363TIP3   OH255579   5.777   0.739  13.455  0.5266  0.0553 -0.1945
11363TIP3    H155580   5.817   0.769  13.373  0.3495 -0.6217 -0.5422
11363TIP3    H255581   5.731   0.658  13.431 -0.4790  0.4464  0.3378
11364TIP3   OH255582   0.511   3.764  13.658 -0.1571  0.1519  0.0643
11364TIP3    H155583   0.580   3.797  13.601 -0.6233  0.6422 -0.2298
11364TIP3    H255584   0.446   3.834  13.660  0.4850  0.7719  2.3352
11365TIP3   OH255585   6.339   5.747   2.009  0.5130  0.2119 -0.4460
11365TIP3    H155586   6.247   5.746   1.980 -0.2193  1.4827  1.5836
11365TIP3    H255587   6.363   5.839   2.010  0.6014  0.2532  2.3416
11366TIP3   OH255588   2.178   4.451  13.854 -0.0560  0.2572 -0.0602
11366TIP3    H155589   2.205   4.359  13.849 -0.5073  0.0844  0.4979
11366TIP3    H255590   2.253   4.495  13.894 -0.3666 -0.1344  1.0145
11367TIP3   OH255591   2.009   1.803  14.434 -0.0126 -0.1970 -1.0229
11367TIP3    H155592   1.917   1.802  14.457  0.2735 -1.2523  0.1968
11367TIP3    H255593   2.024   1.890  14.397 -1.8344 -0.5732 -2.7842
11368TIP3   OH255594   1.878   6.406  13.923 -0.3874  0.3546 -0.3577
11368TIP3    H155595   1.867   6.445  14.010  0.2464  0.0577 -0.1409
11368TIP3    H255596   1.790   6.376  13.899 -0.4412 -0.1736  0.4684
11369TIP3   OH255597   1.046   1.171  16.103  0.0300 -0.4304  0.6789
11369TIP3    H155598   0.982   1.155  16.033  1.1498  1.4154 -0.8674
11369TIP3    H255599   1.040   1.093  16.159 -2.3871 -1.0375 -0.2928
11370TIP3   OH255600   4.845   0.050  13.889  0.3844  0.5396 -0.2680
11370TIP3    H155601   4.862   0.091  13.805  2.8379  2.0606  0.8754
11370TIP3    H255602   4.767   0.095  13.922  0.9785  1.8304 -0.5719
11371TIP3   OH255603   3.765   5.690  11.501 -0.2641  0.5474 -0.0927
11371TIP3    H155604   3.817   5.699  11.581  0.1406 -1.3551 -0.1128
11371TIP3    H255605   3.826   5.709  11.430 -0.5227  1.8234 -0.0093
11372TIP3   OH255606   6.023   6.298   1.815  0.5253 -0.0262 -0.0494
11372TIP3    H155607   6.004   6.293   1.721 -1.0775 -1.9502  0.3110
11372TIP3    H255608   6.108   6.256   1.825  0.2045 -0.8012 -0.5290
11373TIP3   OH255609   1.564   5.710   1.854 -0.2295  0.3554  0.3394
11373TIP3    H155610   1.568   5.641   1.788  3.2034  0.2612  0.4306
11373TIP3    H255611   1.494   5.767   1.825 -2.4753 -2.5070 -0.3479
11374TIP3   OH255612   4.873   6.212  13.587  0.2592  0.1864  0.3045
11374TIP3    H155613   4.948   6.233  13.530  1.1089 -0.1755  1.2584
11374TIP3    H255614   4.901   6.136  13.636 -1.4008 -1.0126 -0.5112
11375TIP3   OH255615   4.971   1.441  13.981  0.4603  0.3783  0.5047
11375TIP3    H155616   5.049   1.395  14.013 -0.0304 -0.0388  1.1507
11375TIP3    H255617   5.001   1.529  13.961  1.3329 -0.0935 -0.3364
11376TIP3   OH255618   4.369   5.071   2.477 -0.3867 -0.0229 -0.1215
11376TIP3    H155619   4.452   5.025   2.487 -0.3874  0.1521  0.8180
11376TIP3    H255620   4.358   5.119   2.559 -0.7449  1.0724 -0.7823
11377TIP3   OH255621   0.285   3.032   0.959  0.2733 -0.2251  0.3928
11377TIP3    H155622   0.303   3.105   0.900  0.3417 -0.9173 -0.4599
11377TIP3    H255623   0.355   3.035   1.023  0.9338 -0.2316 -0.3155
11378TIP3   OH255624   2.831   3.207   3.823 -0.0795 -0.4899 -0.5041
11378TIP3    H155625   2.856   3.150   3.750  0.3196 -1.0296  0.0466
11378TIP3    H255626   2.755   3.164   3.862  0.2355 -0.6656 -0.0741
11379TIP3   OH255627   0.817   5.926  15.956  0.1780  0.0463  0.1163
11379TIP3    H155628   0.777   5.870  15.889 -0.2694 -0.6878  0.9724
11379TIP3    H255629   0.770   6.009  15.950 -2.3697 -1.1313  1.8370
11380TIP3   OH255630   3.672   3.837  12.925  0.4351  0.0653 -0.0271
11380TIP3    H155631   3.693   3.794  13.009  2.0144 -2.6223 -1.6441
11380TIP3    H255632   3.593   3.794  12.895  1.9185 -1.7866 -1.5677
11381TIP3   OH255633   4.331   5.822   4.636  0.1466  0.1581  0.5481
11381TIP3    H155634   4.353   5.729   4.646  1.5076  0.5638  1.7377
11381TIP3    H255635   4.380   5.850   4.559 -1.2800 -0.3732 -0.5910
11382TIP3   OH255636   2.140   0.385   3.703  0.2109  0.0382 -0.0273
11382TIP3    H155637   2.056   0.430   3.695  0.3711  0.4363  0.4739
11382TIP3    H255638   2.144   0.328   3.626  0.5713  1.8321 -1.4126
11383TIP3   OH255639   3.043   3.349  16.305  0.0127  0.1441 -0.0480
11383TIP3    H155640   3.075   3.439  16.299 -2.9512  1.2396 -0.9819
11383TIP3    H255641   3.020   3.325  16.216 -2.0283 -0.3701  0.5480
11384TIP3   OH255642   1.093   1.484  12.718  0.1489  0.2984 -0.3173
11384TIP3    H155643   1.188   1.470  12.708  0.0946 -0.7561  0.4725
11384TIP3    H255644   1.083   1.579  12.711  1.0695  0.3231 -1.8500
11385TIP3   OH255645   1.660   3.812  14.706  0.4193  0.0635  0.5343
11385TIP3    H155646   1.628   3.766  14.629 -1.3904 -3.8367  3.2746
11385TIP3    H255647   1.615   3.896  14.705 -1.6102 -0.9595 -1.3055
11386TIP3   OH255648   5.814   3.893   2.903  0.7523 -0.1171  0.1686
11386TIP3    H155649   5.768   3.809   2.907  0.1996  0.1769  0.0678
11386TIP3    H255650   5.821   3.912   2.810  0.3898  0.2126  0.2096
11387TIP3   OH255651   3.371   1.476  14.712 -0.2778 -0.1976  0.2211
11387TIP3    H155652   3.427   1.516  14.779  0.5411  0.0828 -0.6180
11387TIP3    H255653   3.313   1.418  14.762 -1.7352  2.1945  1.5381
11388TIP3   OH255654   2.226   4.606  10.754 -0.0350 -0.2286  0.3471
11388TIP3    H155655   2.147   4.616  10.808  1.1072 -0.7447  2.1967
11388TIP3    H255656   2.275   4.686  10.770 -0.3828  0.3123 -1.1935
11389TIP3   OH255657   4.069   4.528   3.563 -0.0972 -0.8145 -0.3300
11389TIP3    H155658   4.026   4.444   3.574  0.0246 -0.9185 -0.6319
11389TIP3    H255659   4.009   4.578   3.507  0.2107 -0.9873 -0.8145
11390TIP3   OH255660   4.734   0.591   2.234  0.1424 -0.5309 -0.1735
11390TIP3    H155661   4.806   0.624   2.288  0.5942 -1.5550 -0.1249
11390TIP3    H255662   4.726   0.655   2.163  1.2676 -0.5146 -0.3142
11391TIP3   OH255663   2.705   1.582  10.915 -0.1210  0.0418 -0.4732
11391TIP3    H155664   2.714   1.564  11.009 -0.5227 -1.1718 -0.6497
11391TIP3    H255665   2.614   1.609  10.905 -0.0372  0.3149 -0.4900
11392TIP3   OH255666   2.027   0.854   2.924  0.3575  0.1065 -0.0636
11392TIP3    H155667   2.105   0.904   2.950 -0.1249  0.8579 -0.0337
11392TIP3    H255668   2.048   0.822   2.836  0.7082  0.2928 -0.0501
11393TIP3   OH255669   0.684   2.954  13.458 -0.0521 -0.1238 -0.0190
11393TIP3    H155670   0.645   2.908  13.533 -1.5080  0.5868 -0.3079
11393TIP3    H255671   0.771   2.981  13.489 -0.2002 -0.7998  1.0317
11394TIP3   OH255672   5.544   2.138  16.886 -0.5860 -0.5327  0.0288
11394TIP3    H155673   5.519   2.227  16.860 -0.5072 -0.6209 -0.3547
11394TIP3    H255674   5.570   2.146  16.977  0.2772  0.0083 -0.2603
11395TIP3   OH255675   2.459   0.684  14.856  0.0835 -0.0801  0.1433
11395TIP3    H155676   2.380   0.648  14.817 -0.4735  0.6399  0.5916
11395TIP3    H255677   2.497   0.740  14.788  0.0819 -0.2351  0.0143
11396TIP3   OH255678   0.966   6.178  16.017 -0.0455 -0.3758 -0.2775
11396TIP3    H155679   0.882   6.174  15.972  0.1194 -0.1289 -0.6092
11396TIP3    H255680   0.951   6.235  16.093  0.5319  2.0401 -1.8843
11397TIP3   OH255681   6.361   5.225   5.342  0.6569  0.1066  0.0792
11397TIP3    H155682   6.294   5.239   5.276 -0.8040 -0.6174  1.3319
11397TIP3    H255683   6.312   5.202   5.421  2.3537  0.4276  1.2816
11398TIP3   OH255684   1.428   0.326  12.344  0.0447  0.4937  0.7141
11398TIP3    H155685   1.468   0.393  12.288  0.2748 -0.1947  0.0329
11398TIP3    H255686   1.495   0.258  12.351 -0.2130  0.3029  1.3402
11399TIP3   OH255687   3.504   4.072   4.793 -0.0671  0.1686 -0.2367
11399TIP3    H155688   3.527   4.164   4.784  2.9874 -0.3003  1.3080
11399TIP3    H255689   3.557   4.041   4.867 -0.7789 -2.8860 -0.8538
11400TIP3   OH255690   4.513   6.293  11.570 -0.0135 -0.4112 -0.1139
11400TIP3    H155691   4.563   6.374  11.575 -0.7571  0.0844 -0.5367
11400TIP3    H255692   4.556   6.234  11.632 -0.3926  0.8151  1.3849
11401TIP3   OH255693   4.149   4.547   1.130 -0.7272  0.2799 -0.2756
11401TIP3    H155694   4.087   4.578   1.064  0.2787  1.2870 -0.7900
11401TIP3    H255695   4.175   4.459   1.099 -2.0971 -0.2860  0.1181
11402TIP3   OH255696   2.434   2.063   1.528 -0.0695  0.6710 -0.7404
11402TIP3    H155697   2.466   1.979   1.559  1.7013  2.2197  2.1332
11402TIP3    H255698   2.341   2.064   1.551 -0.0393 -0.3898 -0.5583
11403TIP3   OH255699   5.010   1.312   4.708 -0.6317  0.8374 -0.0671
11403TIP3    H155700   4.993   1.218   4.717  1.9264  0.2607 -0.5359
11403TIP3    H255701   4.958   1.339   4.632 -2.1643  0.0716  0.6584
11404TIP3   OH255702   2.992   3.436   0.912 -0.1846 -0.8251  0.6363
11404TIP3    H155703   2.946   3.354   0.894 -1.7361  0.3092 -0.8060
11404TIP3    H255704   3.017   3.430   1.005  1.3587 -3.6576  0.1578
11405TIP3   OH255705   1.860   1.739   1.634  0.7951  0.2940 -0.4696
11405TIP3    H155706   1.919   1.801   1.677  0.7782  2.0170 -2.7270
11405TIP3    H255707   1.875   1.753   1.540 -1.0764 -1.3222 -1.0695
11406TIP3   OH255708   4.301   4.645   3.473 -0.5006 -0.0758 -0.1011
11406TIP3    H155709   4.244   4.583   3.518  0.6804 -0.9734  0.2248
11406TIP3    H255710   4.264   4.652   3.385 -0.6475 -1.2908 -0.1612
11407TIP3   OH255711   6.368   1.929  11.923  0.3796  0.2529 -0.6023
11407TIP3    H155712   6.365   1.978  12.005 -0.2274 -1.2725  0.3437
11407TIP3    H255713   6.374   1.837  11.950  0.3313 -0.2871 -2.2731
11408TIP3   OH255714   4.118   3.973   4.312  0.2421 -0.2686  0.5704
11408TIP3    H155715   4.136   3.891   4.267 -1.1787  0.2026 -0.9685
11408TIP3    H255716   4.186   3.980   4.379  0.9808 -2.1898  0.0722
11409TIP3   OH255717   4.122   1.261  12.933 -0.8394 -0.0105  0.6584
11409TIP3    H155718   4.177   1.334  12.961 -0.4467 -0.2795  0.6044
11409TIP3    H255719   4.037   1.301  12.913 -0.5383  0.4794  0.3291
11410TIP3   OH255720   4.179   0.635  14.037  0.8391  0.5470  0.1423
11410TIP3    H155721   4.217   0.581  14.106  0.5301 -0.0294 -0.1298
11410TIP3    H255722   4.086   0.640  14.060  0.5097 -0.5805 -0.8036
11411TIP3   OH255723   0.754   1.831   4.452  0.3318 -0.2622 -0.3791
11411TIP3    H155724   0.849   1.818   4.453  0.3295 -0.2639  0.5528
11411TIP3    H255725   0.718   1.745   4.430  0.5671 -0.0680 -1.5700
11412TIP3   OH255726   5.213   0.459   4.323 -0.1805  0.4119  0.0267
11412TIP3    H155727   5.190   0.443   4.232 -0.6199  1.9192 -0.1596
11412TIP3    H255728   5.153   0.529   4.351 -0.9225 -0.8820  1.8547
11413TIP3   OH255729   0.877   1.340   2.793 -0.4759  0.3057  0.0706
11413TIP3    H155730   0.837   1.377   2.872 -1.4345 -0.0012 -0.2611
11413TIP3    H255731   0.894   1.415   2.737  0.7433  0.5959  0.7792
11414TIP3   OH255732   3.714   5.812  15.806 -0.0773  0.3911 -0.1302
11414TIP3    H155733   3.648   5.747  15.783 -0.3149  0.5990 -0.0405
11414TIP3    H255734   3.782   5.762  15.852  0.0456  0.1026 -0.6228
11415TIP3   OH255735   2.630   1.873   2.004  0.9187  0.3061 -0.1136
11415TIP3    H155736   2.562   1.853   1.939  1.9315 -0.7381 -0.8703
11415TIP3    H255737   2.675   1.950   1.968  1.0612  0.1218 -0.3332
11416TIP3   OH255738   6.154   0.743  15.524 -0.5966 -0.2593 -0.1410
11416TIP3    H155739   6.229   0.683  15.521 -0.5622 -0.3338  1.4183
11416TIP3    H255740   6.153   0.784  15.438  1.0295 -0.5050 -0.3106
11417TIP3   OH255741   1.918   5.886  15.307 -0.1973  0.2774 -0.5284
11417TIP3    H155742   1.827   5.912  15.312 -0.7457 -1.0302 -2.3729
11417TIP3    H255743   1.916   5.790  15.302  1.5802 -0.2177  3.8466
11418TIP3   OH255744   3.890   1.816   0.062 -0.2596 -0.0013 -0.3120
11418TIP3    H155745   3.935   1.759  -0.000 -1.0414 -1.8727  0.7519
11418TIP3    H255746   3.833   1.870   0.007  0.1275 -0.6050 -1.3439
11419TIP3   OH255747   6.273   2.832  17.245  0.1511 -0.5689  0.1198
11419TIP3    H155748   6.208   2.782  17.295  0.0225 -2.5982 -1.9152
11419TIP3    H255749   6.280   2.785  17.162  0.2487  2.7088 -1.8729
11420TIP3   OH255750   5.420   6.446  10.676 -0.1437 -0.2298  0.0811
11420TIP3    H155751   5.454   6.475  10.591 -1.7512  0.3590 -0.3988
11420TIP3    H255752   5.436   6.520  10.735  0.4851 -0.4298  0.1684
11421TIP3   OH255753   5.429   5.733   0.650  0.2536 -0.1554  0.3578
11421TIP3    H155754   5.515   5.759   0.683 -0.7345  2.7089  0.8928
11421TIP3    H255755   5.375   5.721   0.728 -0.4383  0.4206 -0.0148
11422TIP3   OH255756   5.397   0.383   6.668  0.6935 -0.0219 -0.0462
11422TIP3    H155757   5.430   0.425   6.588  1.6357 -0.0458  0.3158
11422TIP3    H255758   5.424   0.442   6.738  0.0298 -0.0944  0.2692
11423TIP3   OH255759   2.861   5.390   1.983 -0.2457  0.1799 -0.2193
11423TIP3    H155760   2.908   5.342   1.916  0.4223 -0.0387  0.3999
11423TIP3    H255761   2.926   5.407   2.051 -0.5716  1.5544 -0.2113
11424TIP3   OH255762   3.662   0.142  13.832  0.3525 -0.0632 -0.2943
11424TIP3    H155763   3.673   0.237  13.836  1.6778 -0.1377 -1.4771
11424TIP3    H255764   3.573   0.130  13.799  0.9623  0.8353 -2.4573
11425TIP3   OH255765   6.237   0.625   1.997  0.7281 -0.2931  0.5056
11425TIP3    H155766   6.279   0.685   2.059  0.9482 -0.1119  0.1870
11425TIP3    H255767   6.199   0.682   1.930  1.1153 -0.5102  0.0907
11426TIP3   OH255768   2.561   4.654  14.084  0.3616 -0.5521  0.1472
11426TIP3    H155769   2.517   4.679  14.165  2.2063 -0.0122  1.0493
11426TIP3    H255770   2.501   4.680  14.014 -1.6642 -1.8397  1.3228
11427TIP3   OH255771   3.049   3.782   0.652  0.4194 -0.5971 -0.1680
11427TIP3    H155772   3.114   3.728   0.698 -0.2267  0.0432  1.5636
11427TIP3    H255773   2.978   3.721   0.632  1.1155 -1.0910 -1.2141
11428TIP3   OH255774   0.865   1.206  11.603 -0.2743 -0.5609  0.4373
11428TIP3    H155775   0.854   1.272  11.535 -2.9036 -0.5438  0.7774
11428TIP3    H255776   0.955   1.174  11.591  1.5120  3.6502  0.8727
11429TIP3   OH255777   6.003   2.202  13.410  0.4790 -0.0839  0.2287
11429TIP3    H155778   6.015   2.182  13.503  1.6014 -3.4158 -0.4692
11429TIP3    H255779   5.984   2.117  13.370 -1.2359  1.4231 -2.4541
11430TIP3   OH255780   4.221   6.247  13.293 -0.1498 -0.2846  0.0611
11430TIP3    H155781   4.282   6.321  13.286 -1.8757  1.2507  0.3440
11430TIP3    H255782   4.239   6.193  13.216 -0.1236  1.4672 -1.2226
11431TIP3   OH255783   6.475   5.204  13.421 -0.7234  0.1451  0.2959
11431TIP3    H155784   6.512   5.252  13.347  0.4069 -2.7968 -1.1783
11431TIP3    H255785   6.494   5.260  13.497  1.7827  1.4045 -1.1253
11432TIP3   OH255786   3.891   0.148  13.642 -0.1505 -0.0711 -0.6368
11432TIP3    H155787   3.833   0.159  13.717 -0.1122 -4.3759  0.2664
11432TIP3    H255788   3.833   0.143  13.566 -0.8894 -2.4741  0.0273
11433TIP3   OH255789   4.617   5.299  15.891 -0.1422 -0.1827  0.3189
11433TIP3    H155790   4.549   5.232  15.899  1.5409 -1.8778  1.2525
11433TIP3    H255791   4.575   5.371  15.844 -2.8026 -0.7957  1.6014
11434TIP3   OH255792   2.560   6.021   4.177  0.2460  0.0690 -0.1773
11434TIP3    H155793   2.550   6.116   4.182 -0.7138 -0.0540  0.5250
11434TIP3    H255794   2.611   5.998   4.255  1.1217  0.0835 -0.7412
11435TIP3   OH255795   0.273   1.543   3.916 -0.3337  0.2815 -0.1263
11435TIP3    H155796   0.270   1.638   3.930  0.2903  0.0571  1.8643
11435TIP3    H255797   0.323   1.509   3.990  3.9324 -1.1644 -3.2920
11436TIP3   OH255798   6.572   4.588  13.278  0.3698  0.2330 -0.1708
11436TIP3    H155799   6.546   4.503  13.242  0.9161 -1.3251  2.8002
11436TIP3    H255800   6.667   4.590  13.269  0.4430  0.1240  0.5395
11437TIP3   OH255801   3.394   5.696  15.996  0.1571  0.2333  0.3484
11437TIP3    H155802   3.428   5.752  15.926 -0.2151 -1.1054 -0.9434
11437TIP3    H255803   3.470   5.646  16.026 -0.1091 -0.8702 -0.7386
11438TIP3   OH255804   3.653   5.877  10.957  0.7705  0.2458  0.0891
11438TIP3    H155805   3.605   5.928  11.023  0.9953  0.9129 -0.2478
11438TIP3    H255806   3.586   5.826  10.912  0.5169  0.3532  0.3405
11439TIP3   OH255807   6.787   1.418  15.778  0.0295 -0.2642 -0.0223
11439TIP3    H155808   6.804   1.341  15.833  1.2277  0.5731  0.8444
11439TIP3    H255809   6.874   1.450  15.754 -0.3464  1.8299  1.1182
11440TIP3   OH255810   4.155   1.335  17.216 -0.0273  0.1278 -0.5138
11440TIP3    H155811   4.220   1.330  17.286 -1.7054 -1.3416  1.0649
11440TIP3    H255812   4.149   1.245  17.182 -1.2470  0.2034 -0.5545
11441TIP3   OH255813   0.479   0.974   6.002 -0.5205  0.0202  0.3944
11441TIP3    H155814   0.533   0.903   6.035 -1.0299 -0.6126 -0.1131
11441TIP3    H255815   0.389   0.942   6.010 -0.6796 -0.1176 -1.4496
11442TIP3   OH255816   2.268   3.530  15.712 -0.2087 -0.6976  0.1080
11442TIP3    H155817   2.184   3.577  15.718  0.7885  1.1775  0.2264
11442TIP3    H255818   2.304   3.533  15.801  0.3130 -0.8259 -0.0956
11443TIP3   OH255819   2.966   4.162  11.852  0.3416 -0.4282  0.1859
11443TIP3    H155820   3.051   4.124  11.827  0.0839 -1.4232  0.7478
11443TIP3    H255821   2.905   4.128  11.787 -0.2020 -2.4497  1.6338
11444TIP3   OH255822   0.454   5.984  13.541 -0.3269 -0.4780  0.2981
11444TIP3    H155823   0.452   5.888  13.538 -0.2344 -0.4571 -0.5725
11444TIP3    H255824   0.419   6.011  13.456  0.3520  0.2536  0.2450
11445TIP3   OH255825   4.512   4.424  11.884 -0.8413  0.0669 -0.3549
11445TIP3    H155826   4.500   4.332  11.861  1.9432 -0.9874  1.7872
11445TIP3    H255827   4.602   4.443  11.860  0.3754  0.5558  3.7765
11446TIP3   OH255828   0.706   3.695   1.311  0.3134  0.1783  0.4897
11446TIP3    H155829   0.699   3.630   1.242  2.2072 -0.8187  1.1591
11446TIP3    H255830   0.695   3.779   1.267 -1.3026 -0.5344 -0.5371
11447TIP3   OH255831   5.499   3.269   5.250 -0.2516  0.0139 -0.7442
11447TIP3    H155832   5.524   3.355   5.284  0.1963 -0.6743  0.7931
11447TIP3    H255833   5.403   3.270   5.252 -0.3686  1.3473 -3.1709
11448TIP3   OH255834   4.409   5.133  15.746  0.8284  0.5084  0.4158
11448TIP3    H155835   4.346   5.195  15.711  0.9674  0.3860 -0.0556
11448TIP3    H255836   4.427   5.072  15.674  0.5373 -0.2036  0.9287
11449TIP3   OH255837   2.203   2.280   3.957  0.2770  0.1043 -0.1779
11449TIP3    H155838   2.269   2.330   4.004  1.0943 -0.9753 -0.1378
11449TIP3    H255839   2.172   2.340   3.889 -0.5776  1.5187  1.3922
11450TIP3   OH255840   0.764   4.749  15.510  0.3052  0.1422  0.1978
11450TIP3    H155841   0.782   4.841  15.489 -0.9278  0.4679  0.5001
11450TIP3    H255842   0.825   4.728  15.580  0.4536  0.7988  0.2729
11451TIP3   OH255843   4.131   2.190   3.822  0.4903  0.7171 -0.0915
11451TIP3    H155844   4.065   2.147   3.768  0.4126 -0.4590  0.8992
11451TIP3    H255845   4.095   2.278   3.838 -1.1625 -0.0898  0.9349
11452TIP3   OH255846   3.784   3.164   0.581  0.1888 -0.0971 -0.3037
11452TIP3    H155847   3.770   3.223   0.656  0.1860  0.8331 -1.0183
11452TIP3    H255848   3.877   3.171   0.563  0.2929 -0.7606 -0.0413
11453TIP3   OH255849   6.029   4.464   3.109 -0.1932  0.1683 -0.5932
11453TIP3    H155850   6.086   4.416   3.049  2.1010 -0.3462  1.7687
11453TIP3    H255851   5.940   4.436   3.086  0.8381 -2.8926 -1.3408
11454TIP3   OH255852   0.989   3.560  14.712  0.1962  0.0010  0.4009
11454TIP3    H155853   1.040   3.625  14.664  0.4942 -1.6957 -1.7398
11454TIP3    H255854   0.931   3.612  14.768  1.4856  2.0472 -0.0460
11455TIP3   OH255855   1.224   4.344   2.632  0.2773  0.2562 -0.1072
11455TIP3    H155856   1.204   4.432   2.663 -0.0619 -0.1551  0.8888
11455TIP3    H255857   1.316   4.331   2.656  0.6334  0.6936 -1.1606
11456TIP3   OH255858   5.634   5.342  17.177 -0.1748 -0.5224  0.3489
11456TIP3    H155859   5.624   5.282  17.103 -2.2356  1.7005 -1.3553
11456TIP3    H255860   5.664   5.287  17.249 -0.0137 -3.1792 -1.5997
11457TIP3   OH255861   3.490   0.588   2.023  0.0602 -0.2649  0.1653
11457TIP3    H155862   3.471   0.676   2.055 -2.0174 -0.9887  1.1125
11457TIP3    H255863   3.537   0.546   2.095  1.1069  0.0720 -0.3110
11458TIP3   OH255864   1.281   0.177  11.802  0.3600 -0.3415  0.2930
11458TIP3    H155865   1.272   0.089  11.766 -0.7170  0.0109 -0.3372
11458TIP3    H255866   1.372   0.182  11.830  0.4645 -1.6162  0.2436
11459TIP3   OH255867   3.147   2.283   3.754 -0.0268 -0.4417 -0.6718
11459TIP3    H155868   3.214   2.253   3.692 -0.9558 -2.1911 -0.8878
11459TIP3    H255869   3.197   2.329   3.822  1.5629 -2.5085 -0.3152
11460TIP3   OH255870   3.301   2.641  16.847  0.1711 -0.6904  0.5479
11460TIP3    H155871   3.239   2.578  16.812 -0.8737  0.8007 -0.3822
11460TIP3    H255872   3.259   2.726  16.836  0.1705  0.0318  4.5125
11461TIP3   OH255873   0.445   0.918  16.611 -0.4072 -0.0571  0.4892
11461TIP3    H155874   0.428   0.829  16.642  0.7305 -0.5834 -0.3160
11461TIP3    H255875   0.540   0.928  16.621 -0.4185  0.7795 -0.1872
11462TIP3   OH255876   5.607   1.471  12.154 -0.6083  0.2168  0.7975
11462TIP3    H155877   5.522   1.470  12.199 -1.3253  0.5896 -0.5008
11462TIP3    H255878   5.586   1.496  12.064  0.6915 -1.0969  0.0777
11463TIP3   OH255879   2.655   5.495   3.849  0.4869  0.2283 -0.3279
11463TIP3    H155880   2.744   5.523   3.866  0.2836  0.5542  0.2337
11463TIP3    H255881   2.631   5.538   3.766  0.7535  0.3642 -0.3349
11464TIP3   OH255882   3.238   6.154  11.858 -0.0129  0.0543 -0.0706
11464TIP3    H155883   3.273   6.187  11.940 -0.0962  0.7890 -0.3266
11464TIP3    H255884   3.304   6.178  11.792  0.1103 -0.6289 -0.2110
11465TIP3   OH255885   2.134   6.081   2.229 -0.0162 -0.0618 -0.1145
11465TIP3    H155886   2.213   6.135   2.222  0.3225 -0.6235 -0.7192
11465TIP3    H255887   2.082   6.123   2.298 -0.0857  1.4511 -1.0418
11466TIP3   OH255888   1.477   5.789  14.619 -0.3910 -0.1699 -0.5309
11466TIP3    H155889   1.448   5.857  14.557  2.1533  1.7008  0.1847
11466TIP3    H255890   1.443   5.817  14.703 -0.2371 -0.3846 -0.3962
11467TIP3   OH255891   3.267   0.600   1.580  0.3464  0.6872 -0.4466
11467TIP3    H155892   3.248   0.508   1.563 -1.3948  1.0350 -0.4982
11467TIP3    H255893   3.340   0.599   1.642 -2.2719 -0.8493  2.9154
11468TIP3   OH255894   1.190   2.700  11.437  0.0098  0.0870 -0.3668
11468TIP3    H155895   1.149   2.720  11.352  0.7680  1.2893 -0.4702
11468TIP3    H255896   1.276   2.742  11.432  1.2402 -2.2148 -0.0934
11469TIP3   OH255897   1.189   1.761   0.946  0.5219 -0.0615 -0.2510
11469TIP3    H155898   1.246   1.687   0.968 -0.5774 -0.2575  2.2223
11469TIP3    H255899   1.210   1.828   1.011 -1.0996  0.3670 -0.1191
11470TIP3   OH255900   3.192   1.760  12.705  0.0140 -0.4561 -0.2661
11470TIP3    H155901   3.108   1.804  12.696  0.4777  0.3713 -0.6176
11470TIP3    H255902   3.174   1.684  12.761 -0.9221 -0.1787 -0.1887
11471TIP3   OH255903   2.183   3.789  15.852  0.3998  0.4304 -0.4069
11471TIP3    H155904   2.148   3.807  15.940 -1.5717 -1.3337 -0.7439
11471TIP3    H255905   2.268   3.832  15.851 -0.0444  1.5423  1.9398
11472TIP3   OH255906   1.535   4.062   5.569  0.1543 -0.4385  0.5799
11472TIP3    H155907   1.492   4.146   5.583 -3.0491 -1.8206 -0.0345
11472TIP3    H255908   1.623   4.085   5.539 -1.3360  2.8012 -2.0046
11473TIP3   OH255909   1.014   4.818   1.006 -0.0302 -0.4505  0.1046
11473TIP3    H155910   1.108   4.827   0.986  0.2225  0.9017  1.6498
11473TIP3    H255911   1.013   4.778   1.093 -0.9484 -1.4328 -0.3357
11474TIP3   OH255912   3.165   5.433  14.846  0.4159 -0.6357 -0.2007
11474TIP3    H155913   3.244   5.421  14.792  0.5641 -0.8868  0.0664
11474TIP3    H255914   3.111   5.493  14.795  1.0709  0.0756 -0.0808
11475TIP3   OH255915   5.512   0.267   4.665  0.4004 -0.0569 -0.1282
11475TIP3    H155916   5.489   0.252   4.757  1.1724  0.9580  0.2351
11475TIP3    H255917   5.607   0.256   4.661  0.3218 -0.5388 -0.9001
11476TIP3   OH255918   6.659   4.524  15.408  0.3406 -1.0149 -0.1683
11476TIP3    H155919   6.647   4.463  15.335 -0.2443  0.1567 -1.1026
11476TIP3    H255920   6.660   4.469  15.486  1.2392 -2.3434 -1.0638
11477TIP3   OH255921   5.842   6.673   1.261 -0.0962  0.5755  0.3801
11477TIP3    H155922   5.896   6.750   1.277  1.0388 -0.2797  0.8209
11477TIP3    H255923   5.826   6.673   1.167  1.1802  0.5414  0.1546
11478TIP3   OH255924   6.368   0.106  15.924 -0.4047 -0.6995 -0.2147
11478TIP3    H155925   6.369   0.187  15.974  1.9140  0.2625 -1.6785
11478TIP3    H255926   6.285   0.064  15.948 -1.1343  1.5213  1.4404
11479TIP3   OH255927   2.765   2.890   0.287 -0.6481  0.2984 -0.4637
11479TIP3    H155928   2.808   2.974   0.268  0.5647 -0.3213 -0.5385
11479TIP3    H255929   2.759   2.847   0.202 -0.9382  0.1485 -0.3675
11480TIP3   OH255930   2.294   2.161   1.781 -0.1451  0.8141 -0.3411
11480TIP3    H155931   2.299   2.066   1.793 -0.1021  0.8828  0.1868
11480TIP3    H255932   2.384   2.187   1.763 -0.0744  0.8228  0.0226
11481TIP3   OH255933   4.042   6.689  14.299 -0.0304 -0.3385 -0.4590
11481TIP3    H155934   4.017   6.773  14.338  0.0294 -0.4016 -0.2840
11481TIP3    H255935   4.069   6.635  14.373 -1.1577 -0.9005 -0.4257
11482TIP3   OH255936   5.361   5.829   1.432  0.5101  0.4009 -0.1761
11482TIP3    H155937   5.302   5.875   1.373 -1.0498 -0.1383  0.9040
11482TIP3    H255938   5.438   5.887   1.439  0.7443  0.4800 -2.6402
11483TIP3   OH255939   4.158   5.037   1.761  0.4478  0.2385  0.2660
11483TIP3    H155940   4.238   5.055   1.811 -0.8927  4.8787  1.2601
11483TIP3    H255941   4.099   4.996   1.825  1.0262 -0.4843  0.3562
11484TIP3   OH255942   3.097   0.611   5.660  0.1625 -0.7488  0.0983
11484TIP3    H155943   3.010   0.589   5.692  1.0778 -1.5100  2.2019
11484TIP3    H255944   3.090   0.604   5.565 -2.1499 -0.3991  0.1984
11485TIP3   OH255945   4.216   1.860  12.091 -0.1656 -0.3904  0.0930
11485TIP3    H155946   4.129   1.861  12.049  0.0046  0.2250 -0.2588
11485TIP3    H255947   4.266   1.796  12.040 -0.0496  0.1411 -0.4845
11486TIP3   OH255948   5.963   6.386   5.839  0.0898  0.5440 -0.2996
11486TIP3    H155949   6.056   6.363   5.847  0.0150  0.1532 -0.4974
11486TIP3    H255950   5.937   6.347   5.755 -0.1892  0.8731 -0.3661
11487TIP3   OH255951   1.319   0.537   1.614  0.7077 -0.7412 -0.7302
11487TIP3    H155952   1.400   0.486   1.604  1.7471  0.6036  0.3807
11487TIP3    H255953   1.341   0.624   1.581  0.5530  0.3721  1.8928
11488TIP3   OH255954   6.773   1.346  14.646  0.2595  0.2069  0.1857
11488TIP3    H155955   6.849   1.396  14.675  1.9066 -1.8536 -0.2932
11488TIP3    H255956   6.718   1.339  14.725  1.2388  0.5898  0.9278
11489TIP3   OH255957   6.539   1.625   6.317 -0.0512 -0.0364 -0.3463
11489TIP3    H155958   6.585   1.622   6.401 -1.8737  1.1439  0.7700
11489TIP3    H255959   6.486   1.545   6.316  0.3413 -0.2968 -0.6170
11490TIP3   OH255960   1.788   5.721  14.116  0.2473  0.3384 -0.3772
11490TIP3    H155961   1.707   5.672  14.127  0.1815  0.5802  0.2749
11490TIP3    H255962   1.851   5.658  14.081  0.4491 -0.4842  1.3702
11491TIP3   OH255963   3.248   5.966  16.380 -0.2036 -0.5630  0.5994
11491TIP3    H155964   3.262   5.943  16.289  1.4393  0.2046  0.6293
11491TIP3    H255965   3.312   5.912  16.428  0.3126  0.4612  1.0944
11492TIP3   OH255966   6.262   1.276  11.184 -0.7002  0.4074  1.0153
11492TIP3    H155967   6.225   1.341  11.245  0.2845  1.2663  0.7214
11492TIP3    H255968   6.353   1.265  11.213 -0.0103  1.3069 -0.6441
11493TIP3   OH255969   1.610   0.872  14.654 -0.5998  0.4915  0.5472
11493TIP3    H155970   1.602   0.788  14.609  0.6403  1.3557 -1.4515
11493TIP3    H255971   1.654   0.851  14.736  2.2186 -0.5720 -1.0821
11494TIP3   OH255972   5.859   4.786   1.845  0.2420  0.1790  0.2473
11494TIP3    H155973   5.936   4.759   1.896 -1.0685 -1.1893  1.5945
11494TIP3    H255974   5.885   4.774   1.754  0.9580 -2.2504  0.7087
11495TIP3   OH255975   2.860   2.459  13.197  0.8902  0.2444 -0.3329
11495TIP3    H155976   2.869   2.533  13.258  0.0098  0.2793 -0.2293
11495TIP3    H255977   2.796   2.490  13.133  0.8410 -0.2736 -0.5319
11496TIP3   OH255978   0.628   2.844   0.558 -0.0535 -0.1078 -0.0107
11496TIP3    H155979   0.573   2.775   0.521  1.6327 -2.2605  1.2218
11496TIP3    H255980   0.704   2.847   0.500 -0.3844  1.1955 -0.3991
11497TIP3   OH255981   6.567   0.452   5.932 -0.0337  0.1490 -0.3588
11497TIP3    H155982   6.536   0.490   5.850 -0.1222 -0.5718 -0.6650
11497TIP3    H255983   6.568   0.358   5.916  0.7826  0.0607  0.1798
11498TIP3   OH255984   2.781   1.609  12.053 -0.2703  0.7021 -0.2329
11498TIP3    H155985   2.848   1.553  12.013 -1.5002 -1.2006  0.2276
11498TIP3    H255986   2.771   1.576  12.142 -1.6849  1.0318 -0.2367
11499TIP3   OH255987   1.891   4.872   3.485  0.4235 -0.4551 -0.0358
11499TIP3    H155988   1.855   4.840   3.567 -0.6873  0.2542 -0.2213
11499TIP3    H255989   1.929   4.957   3.506 -1.1383  0.3986 -0.4944
11500TIP3   OH255990   3.906   5.672  12.666  0.1024 -0.4235  0.2085
11500TIP3    H155991   3.989   5.654  12.709  0.4076 -2.6287 -1.1583
11500TIP3    H255992   3.865   5.587  12.656 -1.2058  0.3345 -1.3156
11501TIP3   OH255993   6.196   3.143   3.990  0.0272  0.0965 -0.2198
11501TIP3    H155994   6.253   3.218   3.973 -1.6716  1.7077  0.8638
11501TIP3    H255995   6.156   3.124   3.905  1.3621 -0.3932 -0.7655
11502TIP3   OH255996   2.035   2.073   6.358  0.1229  0.0031  0.1601
11502TIP3    H155997   2.107   2.105   6.412 -1.0088  0.6157  1.3677
11502TIP3    H255998   1.976   2.148   6.351 -0.4263 -0.5020 -0.7570
11503TIP3   OH255999   0.822   1.624  15.526  0.4198  0.4863  0.0731
11503TIP3    H156000   0.799   1.548  15.579 -1.8011  0.9233 -0.1625
11503TIP3    H256001   0.847   1.692  15.589  0.6859  0.1133  0.3719
11504TIP3   OH256002   4.660   4.799  13.482  0.6842  0.8853 -0.0890
11504TIP3    H156003   4.610   4.730  13.526  1.7361  0.5079  0.5585
11504TIP3    H256004   4.661   4.872  13.544  1.7044  0.5494  0.3221
11505TIP3   OH256005   6.010   1.570  13.102 -0.1542 -0.0350 -0.3094
11505TIP3    H156006   6.027   1.520  13.023 -1.0276  0.3446 -0.7532
11505TIP3    H256007   6.087   1.627  13.112 -0.5453  0.7415 -1.5393
11506TIP3   OH256008   0.161   1.098   2.783 -0.2186 -0.0625  0.4362
11506TIP3    H156009   0.157   1.192   2.796 -0.1133 -0.3248  2.7475
11506TIP3    H256010   0.229   1.086   2.716 -1.2847  1.5185 -1.0278
11507TIP3   OH256011   0.464   5.018  12.862 -0.0293  0.4361 -0.0085
11507TIP3    H156012   0.372   4.994  12.853 -0.1013  1.1372 -1.3233
11507TIP3    H256013   0.500   4.951  12.920 -0.8288 -1.2723 -1.4031
11508TIP3   OH256014   3.241   5.417  17.062  1.2129 -0.5056  0.0188
11508TIP3    H156015   3.294   5.339  17.046 -0.7792 -2.1411  0.9447
11508TIP3    H256016   3.248   5.433  17.156  2.0324  0.8112 -0.2366
11509TIP3   OH256017   1.538   5.573  14.137  0.5299  0.1864  0.0317
11509TIP3    H156018   1.513   5.504  14.076  1.7268  0.5010 -0.8476
11509TIP3    H256019   1.460   5.628  14.145  0.3644  0.1612 -1.2612
11510TIP3   OH256020   1.642   0.273   4.395 -0.1350  0.4360 -0.4011
11510TIP3    H156021   1.606   0.184   4.390 -0.6377  0.4132  2.3730
11510TIP3    H256022   1.568   0.330   4.376 -0.6765  0.2890  1.1184
11511TIP3   OH256023   0.511   5.501  17.264  0.3328 -0.8862  0.4469
11511TIP3    H156024   0.515   5.416  17.308 -2.1759 -0.7597  1.1110
11511TIP3    H256025   0.418   5.512  17.242  0.7530  1.2299 -0.5591
11512TIP3   OH256026   0.300   0.020  13.629  0.0854  0.4464 -0.0421
11512TIP3    H156027   0.323  -0.072  13.617 -1.3126  0.2506 -1.6374
11512TIP3    H256028   0.291   0.030  13.724  0.3214 -1.0415  0.1618
11513TIP3   OH256029   2.664   2.260  14.172  0.5520  0.2173 -0.5207
11513TIP3    H156030   2.707   2.176  14.155 -0.1591  0.0173 -1.3488
11513TIP3    H256031   2.614   2.279  14.093 -1.3359  0.1798  0.6104
11514TIP3   OH256032   0.314   4.244   5.676 -0.1962  0.3468 -0.0910
11514TIP3    H156033   0.219   4.238   5.681 -0.2360  1.1599  0.3554
11514TIP3    H256034   0.337   4.198   5.595 -0.9558  0.0428 -0.1392
11515TIP3   OH256035   4.299   6.378   0.767 -0.3253  0.5292  0.5574
11515TIP3    H156036   4.238   6.369   0.840 -0.7796  1.7662  0.3612
11515TIP3    H256037   4.280   6.464   0.730  0.0251  0.0119 -0.9135
11516TIP3   OH256038   2.643   3.345  12.721 -0.5838  0.3658 -0.2766
11516TIP3    H156039   2.633   3.409  12.791  1.3033  0.3347  0.0871
11516TIP3    H256040   2.695   3.390  12.654 -0.7739 -0.2023 -0.8164
11517TIP3   OH256041   0.840   0.550  12.898  0.3843  0.1990 -0.0346
11517TIP3    H156042   0.862   0.592  12.815 -2.0899 -0.4918 -1.1345
11517TIP3    H256043   0.878   0.462  12.890  1.2636  0.5607  0.1247
11518TIP3   OH256044   3.287   6.448  14.215 -0.4292  0.4753  0.0420
11518TIP3    H156045   3.371   6.449  14.169 -1.3204  0.9123 -1.6948
11518TIP3    H256046   3.259   6.356  14.211 -0.4656  0.4960 -0.2750
11519TIP3   OH256047   1.143   5.589  15.362 -0.5742  0.0530  0.2597
11519TIP3    H156048   1.189   5.509  15.389  0.6135  0.7518  0.3701
11519TIP3    H256049   1.130   5.578  15.268 -1.2886 -0.6953  0.4387
11520TIP3   OH256050   0.213   3.627  17.202  0.8415  0.0734  0.0295
11520TIP3    H156051   0.124   3.593  17.200  0.9511 -0.1836 -0.4223
11520TIP3    H256052   0.213   3.687  17.277  0.1012  0.6039 -0.3762
11521TIP3   OH256053   1.364   2.249  15.249  0.1059  0.0815 -0.3295
11521TIP3    H156054   1.406   2.239  15.334 -0.3844 -0.7870 -0.1721
11521TIP3    H256055   1.340   2.342  15.244  0.4150  0.2010  0.3471
11522TIP3   OH256056   2.883   4.844  16.315 -0.6538  0.1797 -0.3831
11522TIP3    H156057   2.897   4.909  16.246  1.9821 -1.6266 -1.7403
11522TIP3    H256058   2.802   4.871  16.357 -0.7913  3.1069 -2.2136
11523TIP3   OH256059   5.732   2.526   2.137 -0.0821 -0.3764  0.1967
11523TIP3    H156060   5.687   2.504   2.056 -0.1914 -0.5158  0.2944
11523TIP3    H256061   5.663   2.558   2.195  0.2172  1.1938 -0.2791
11524TIP3   OH256062   6.647   6.404   4.458  0.3913  0.1702 -0.3175
11524TIP3    H156063   6.621   6.315   4.480  0.0492  0.0843 -1.0137
11524TIP3    H256064   6.593   6.460   4.514  0.8585 -0.0662  0.3693
11525TIP3   OH256065   4.400   5.735   0.410  0.4345  0.3894  0.3797
11525TIP3    H156066   4.408   5.747   0.316  0.9343 -3.2962 -0.1649
11525TIP3    H256067   4.305   5.730   0.425  0.3686  0.5446  0.0346
11526TIP3   OH256068   0.987   3.001   0.755 -0.6535 -0.2289 -0.5113
11526TIP3    H156069   1.052   3.001   0.825  1.5349 -0.6500 -2.4223
11526TIP3    H256070   0.990   3.090   0.718 -0.5850 -0.4737 -1.1130
11527TIP3   OH256071   1.979   3.579  17.118 -0.1279 -0.2232  0.5235
11527TIP3    H156072   1.917   3.561  17.047  0.9343 -2.9467  0.1697
11527TIP3    H256073   2.051   3.625  17.076 -1.3292  1.9700  0.7280
11528TIP3   OH256074   6.400   3.267   0.375 -0.0427 -0.5645 -0.9087
11528TIP3    H156075   6.482   3.262   0.326 -0.6035 -0.4471 -1.8817
11528TIP3    H256076   6.367   3.356   0.358 -0.9867 -1.0236 -1.5543
11529TIP3   OH256077   0.739   0.839   5.909  0.0053 -0.3774  0.3752
11529TIP3    H156078   0.828   0.811   5.888  0.2197 -1.1723  2.1324
11529TIP3    H256079   0.686   0.760   5.899 -0.4925  0.0497 -0.4886
11530TIP3   OH256080   3.914   4.590   1.821 -0.2709  0.1243 -0.5536
11530TIP3    H156081   3.974   4.664   1.831  0.9072 -0.4397 -2.8562
11530TIP3    H256082   3.956   4.518   1.867  1.5542 -0.5788 -3.0715
11531TIP3   OH256083   3.365   5.982   2.665  0.2932 -0.0274  0.0888
11531TIP3    H156084   3.396   5.948   2.749 -1.7293 -1.0907  0.4714
11531TIP3    H256085   3.370   5.907   2.606 -2.7588 -0.7152  0.5456
11532TIP3   OH256086   5.200   5.280  17.183  0.0028  0.5255  0.1618
11532TIP3    H156087   5.112   5.277  17.147  0.0094  0.0860  0.1721
11532TIP3    H256088   5.220   5.373  17.192 -0.7377  0.6244  0.8429
11533TIP3   OH256089   2.048   1.383  15.104  0.2207  0.6327 -0.3548
11533TIP3    H156090   2.135   1.365  15.139 -0.2317 -1.2313 -0.0557
11533TIP3    H256091   1.998   1.413  15.180  0.5028  1.3471 -0.4490
11534TIP3   OH256092   4.698   3.775   3.833  0.3698 -0.1501 -0.5865
11534TIP3    H156093   4.782   3.777   3.788  0.4550  1.0461 -0.4063
11534TIP3    H256094   4.636   3.746   3.766  1.3088 -4.2848  0.0599
11535TIP3   OH256095   1.999   3.588  13.530 -0.1933  0.2023  0.3875
11535TIP3    H156096   1.987   3.681  13.510 -1.2271 -0.0461 -0.2258
11535TIP3    H256097   2.046   3.552  13.455 -1.1579 -0.0610 -0.1155
11536TIP3   OH256098   6.433   1.404   0.319  0.2991 -0.0515  0.1060
11536TIP3    H156099   6.528   1.409   0.312  0.3033 -0.4776 -0.1472
11536TIP3    H256100   6.401   1.478   0.268  0.4291 -1.1541 -1.6311
11537TIP3   OH256101   1.001   6.020  11.637  0.0008  0.0460 -0.4316
11537TIP3    H156102   0.949   6.026  11.557 -2.8742  0.1976  1.2935
11537TIP3    H256103   0.988   5.930  11.667  0.4513  0.1858  0.2045
11538TIP3   OH256104   3.169   4.638   3.362 -0.2771  0.5217 -0.3046
11538TIP3    H156105   3.150   4.660   3.271 -0.6834 -0.0187 -0.3603
11538TIP3    H256106   3.086   4.603   3.395  0.1174 -0.1470 -0.0014
11539TIP3   OH256107   2.408   6.458  15.431 -0.4024  0.0748  0.3696
11539TIP3    H156108   2.425   6.492  15.343 -0.4428  3.2159  1.4232
11539TIP3    H256109   2.322   6.494  15.453 -1.3110 -2.3392  1.0096
11540TIP3   OH256110   4.496   4.189   1.328 -0.0074 -0.6838  0.2647
11540TIP3    H156111   4.449   4.204   1.246  0.3371 -0.7750  0.0499
11540TIP3    H256112   4.487   4.271   1.376 -1.8504 -1.2445  0.9742
11541TIP3   OH256113   4.026   1.903  12.859 -0.4705  0.7089  0.1763
11541TIP3    H156114   4.050   1.939  12.773 -0.2893 -0.7175 -0.4120
11541TIP3    H256115   3.941   1.862  12.844 -1.0848  1.6294  1.0514
11542TIP3   OH256116   0.813   5.320  13.624  0.3360 -0.1181 -0.0300
11542TIP3    H156117   0.731   5.286  13.660 -0.2398  0.5930 -0.6319
11542TIP3    H256118   0.790   5.407  13.590  1.4355  0.2621  0.1615
11543TIP3   OH256119   4.147   0.608   2.675 -0.2682  0.2468 -0.3182
11543TIP3    H156120   4.175   0.696   2.699  1.2250 -0.4874  0.7690
11543TIP3    H256121   4.052   0.609   2.687 -0.1000  1.2616  1.2658
11544TIP3   OH256122   6.296   6.495   4.537  0.5985  0.7131  0.7742
11544TIP3    H156123   6.234   6.562   4.510  0.6474 -0.0174 -1.3654
11544TIP3    H256124   6.319   6.450   4.456  2.6284 -0.1464  1.7584
11545TIP3   OH256125   1.956   4.311  13.941 -0.3819 -0.4202 -0.1183
11545TIP3    H156126   2.002   4.395  13.946 -1.6622  0.2346  2.8884
11545TIP3    H256127   1.878   4.329  13.889  0.9991 -0.7070 -2.4140
11546TIP3   OH256128   2.554   3.242  15.690  0.3663  0.0900  0.2063
11546TIP3    H156129   2.627   3.279  15.639 -0.2612  1.7139  0.4372
11546TIP3    H256130   2.500   3.196  15.626  0.8048  0.1347 -0.1973
11547TIP3   OH256131   1.075   1.612  16.738  0.0812 -0.4358 -0.0857
11547TIP3    H156132   1.045   1.703  16.735  2.0187  0.2340 -1.1286
11547TIP3    H256133   1.098   1.591  16.648 -1.9133 -2.6000 -0.1947
11548TIP3   OH256134   4.349   6.292   4.562 -0.0289  0.4667 -0.3216
11548TIP3    H156135   4.295   6.313   4.638  0.0011  0.2379 -0.2358
11548TIP3    H256136   4.295   6.315   4.486  0.7183  2.6733 -0.2410
11549TIP3   OH256137   1.442   4.997  12.299  0.0218  0.0638  0.8138
11549TIP3    H156138   1.496   5.002  12.378 -0.3018 -1.3989  1.1432
11549TIP3    H256139   1.462   5.078  12.251  1.6243  0.0852  1.4837
11550TIP3   OH256140   0.119   0.623   4.244 -0.2448 -0.0938  0.1137
11550TIP3    H156141   0.146   0.660   4.159 -0.3258  3.6047  1.4953
11550TIP3    H256142   0.035   0.581   4.227 -0.2367  0.5156 -1.6479
11551TIP3   OH256143   5.981   4.455   0.190  0.3551 -0.3821  0.7150
11551TIP3    H156144   5.914   4.391   0.213  1.4898 -1.4953  1.0235
11551TIP3    H256145   5.989   4.509   0.269 -1.2665  0.7882  0.1325
11552TIP3   OH256146   1.662   6.484   6.216  0.3282  0.2852  0.2090
11552TIP3    H156147   1.601   6.422   6.256 -0.1950  0.5055 -0.2295
11552TIP3    H256148   1.632   6.492   6.125  2.1712 -1.0717 -0.5673
11553TIP3   OH256149   0.904   0.108   1.145 -0.1261 -0.4799  0.1921
11553TIP3    H156150   0.845   0.155   1.203  0.7122 -0.5854  1.1647
11553TIP3    H256151   0.849   0.077   1.074 -1.1111 -0.0320  0.7447
11554TIP3   OH256152   5.179   0.906   0.294  0.1478 -0.1708  0.1147
11554TIP3    H156153   5.247   0.873   0.235 -0.4396  0.7429 -1.1292
11554TIP3    H256154   5.170   0.998   0.270 -0.6630  0.0287  1.1224
11555TIP3   OH256155   1.188   0.426  13.002  0.3569 -0.2391 -0.1477
11555TIP3    H156156   1.209   0.376  12.923 -1.4153 -0.9003 -0.2438
11555TIP3    H256157   1.159   0.361  13.066  1.3712  0.3301  0.9345
11556TIP3   OH256158   0.577   4.309   0.560  0.2750 -0.0416  0.1857
11556TIP3    H156159   0.621   4.369   0.500 -0.0416 -1.1205 -1.1705
11556TIP3    H256160   0.532   4.366   0.622  1.6412  1.0976  0.1955
11557TIP3   OH256161   1.685   2.884  14.984 -0.5338  0.4341  0.0056
11557TIP3    H156162   1.757   2.880  15.047 -1.7639 -2.2387  1.4368
11557TIP3    H256163   1.648   2.971  14.994  0.2400  0.5817  1.9673
11558TIP3   OH256164   0.179   4.579   3.759 -0.2330 -0.2151  0.0965
11558TIP3    H156165   0.251   4.638   3.740  0.6462 -1.6626 -1.3688
11558TIP3    H256166   0.110   4.635   3.793  0.7833  1.5421 -0.6015
11559TIP3   OH256167   0.015   4.662   6.045 -0.6496  0.0307  0.1920
11559TIP3    H156168   0.057   4.712   5.975  0.0675  0.8729  1.1968
11559TIP3    H256169  -0.008   4.578   6.004 -0.7619  0.7073 -1.1902
11560TIP3   OH256170   3.183   3.656   0.856  0.7518  0.1299  0.5850
11560TIP3    H156171   3.104   3.693   0.895  0.2396 -0.0124 -0.3022
11560TIP3    H256172   3.156   3.569   0.826  0.2540  1.3141 -2.7897
11561TIP3   OH256173   5.797   3.934  11.548  0.4456 -0.1320  0.2102
11561TIP3    H156174   5.861   3.999  11.521 -0.0569  0.3887  0.2440
11561TIP3    H256175   5.720   3.952  11.493  0.2742 -0.6487  0.2724
11562TIP3   OH256176   1.007   0.198  14.956  0.2271  0.1048 -0.1262
11562TIP3    H156177   1.005   0.178  14.863 -0.0950 -0.1294 -0.0699
11562TIP3    H256178   1.084   0.152  14.989 -0.7462 -1.4222  0.0847
11563TIP3   OH256179   4.561   3.451  15.609  0.0047 -0.2033  0.5307
11563TIP3    H156180   4.533   3.541  15.623 -0.7203 -0.6448  2.0551
11563TIP3    H256181   4.647   3.446  15.650 -0.4380 -0.4853  1.4387
11564TIP3   OH256182   2.868   1.737  16.720  0.2188  0.6341 -0.2225
11564TIP3    H156183   2.928   1.809  16.699 -1.6671  2.0244 -1.2017
11564TIP3    H256184   2.814   1.727  16.641 -2.5009  1.2355  1.3972
11565TIP3   OH256185   1.317   1.484  13.547 -0.4425 -0.6290 -0.3337
11565TIP3    H156186   1.301   1.393  13.523  1.0431 -0.4750 -2.0981
11565TIP3    H256187   1.356   1.479  13.634  0.7142 -1.7800 -0.8937
11566TIP3   OH256188   4.130   2.639   1.544 -0.5114  0.6870 -0.2933
11566TIP3    H156189   4.159   2.557   1.583 -0.2911  2.2605  3.1316
11566TIP3    H256190   4.210   2.678   1.508 -0.4459 -0.0675 -1.0084
11567TIP3   OH256191   2.239   6.187  14.952  0.0931 -0.0733  0.2460
11567TIP3    H156192   2.234   6.281  14.971  2.1207  0.1614 -0.0964
11567TIP3    H256193   2.196   6.145  15.026  1.6843  1.0561  1.8896
11568TIP3   OH256194   6.183   4.511   6.323 -0.4087  0.2731 -0.1961
11568TIP3    H156195   6.117   4.499   6.255 -0.1466  1.9175 -0.8091
11568TIP3    H256196   6.207   4.604   6.316  0.2300  0.2889  1.5969
11569TIP3   OH256197   2.874   6.123   6.695  0.2750  0.0731 -0.1169
11569TIP3    H156198   2.955   6.072   6.699 -0.3504 -0.8901  0.5288
11569TIP3    H256199   2.826   6.084   6.622  0.4031  0.6738 -0.5278
11570TIP3   OH256200   5.674   1.416   1.285  0.0886  0.0963 -0.1035
11570TIP3    H156201   5.610   1.482   1.260  0.4086  0.6391  0.4661
11570TIP3    H256202   5.630   1.332   1.271 -0.0920  0.3968 -1.4734
11571TIP3   OH256203   4.163   2.297   2.151  0.0526 -0.3056 -0.3758
11571TIP3    H156204   4.173   2.373   2.093 -0.8897  0.7216  0.7537
11571TIP3    H256205   4.112   2.330   2.225  2.0296 -1.3118  1.5359
11572TIP3   OH256206   5.664   3.888   5.190 -0.1264  0.4963 -0.2545
11572TIP3    H156207   5.600   3.877   5.261 -1.0268  2.2672 -0.7429
11572TIP3    H256208   5.749   3.888   5.234 -0.5322 -0.3921  0.5796
11573TIP3   OH256209   0.748   0.287   4.269 -0.5120 -0.3562  0.7685
11573TIP3    H156210   0.677   0.277   4.332 -1.3172 -0.5455 -0.1333
11573TIP3    H256211   0.784   0.374   4.286 -2.2208  0.5519  0.0203
11574TIP3   OH256212   0.669   0.646   2.720 -0.1222 -0.2614  0.1826
11574TIP3    H156213   0.684   0.555   2.748 -0.4375 -0.0047  1.2601
11574TIP3    H256214   0.742   0.695   2.758 -0.2882  0.0258  0.1352
11575TIP3   OH256215   2.446   2.178   6.105 -0.5183  0.2228 -0.0533
11575TIP3    H156216   2.480   2.098   6.066 -0.5428 -0.5478  1.4595
11575TIP3    H256217   2.477   2.248   6.047  0.2870 -0.7912 -0.8747
11576TIP3   OH256218   3.882   4.237   1.941 -0.4760  0.0876 -0.1672
11576TIP3    H156219   3.949   4.302   1.963 -0.3882 -0.1731  0.3480
11576TIP3    H256220   3.801   4.273   1.978 -0.7945  0.8006 -1.4952
11577TIP3   OH256221   2.902   2.840   3.158  0.0423  0.6199  0.1124
11577TIP3    H156222   2.833   2.775   3.146 -0.1999  0.9326 -0.1905
11577TIP3    H256223   2.928   2.830   3.250  1.9953 -1.8492 -0.5950
11578TIP3   OH256224   1.173   1.679  15.075 -0.6421  0.0032  0.3850
11578TIP3    H156225   1.248   1.665  15.017 -0.8137 -0.8885  0.3557
11578TIP3    H256226   1.121   1.746  15.030 -0.2358  0.0929  0.0388
11579TIP3   OH256227   1.254   3.451   0.946  0.7944 -0.0398 -0.0384
11579TIP3    H156228   1.287   3.493   1.025 -1.3821  0.5354  0.6406
11579TIP3    H256229   1.170   3.494   0.929 -1.1662 -3.3994  0.1815
11580TIP3   OH256230   1.370   5.121   2.438 -0.5387 -0.0508 -0.2600
11580TIP3    H156231   1.358   5.078   2.523  0.1270 -1.6977 -0.9488
11580TIP3    H256232   1.411   5.054   2.383 -2.2588  0.4689 -2.3205
11581TIP3   OH256233   3.206   1.995  11.727  0.1424  0.3713 -0.2523
11581TIP3    H156234   3.210   2.084  11.763 -2.7421 -0.4862  2.6038
11581TIP3    H256235   3.134   1.998  11.664  2.1673  0.7144 -2.7155
11582TIP3   OH256236   6.346   4.867  16.007  0.0671  0.4927 -0.4061
11582TIP3    H156237   6.330   4.809  16.082  1.3797 -0.4639 -0.8283
11582TIP3    H256238   6.420   4.827  15.961 -0.5928  1.1609 -2.1226
11583TIP3   OH256239   1.789   2.980  12.176 -0.0319  0.6767 -0.7625
11583TIP3    H156240   1.780   2.991  12.082  0.5775  1.6739 -0.7213
11583TIP3    H256241   1.826   2.892  12.187  1.4318  1.1637 -1.5617
11584TIP3   OH256242   6.168   6.635   4.792  0.1197  0.6376 -0.3526
11584TIP3    H156243   6.249   6.685   4.786  0.1825  0.3676 -3.0088
11584TIP3    H256244   6.133   6.635   4.702 -2.6519  0.4682  0.6278
11585TIP3   OH256245   4.951   1.123  14.311 -0.2532  0.3522 -0.3755
11585TIP3    H156246   4.891   1.072  14.365  0.2779  0.4376  0.3028
11585TIP3    H256247   5.033   1.124  14.360 -0.2556  1.8743 -0.3549
11586TIP3   OH256248   1.501   1.342   1.575  0.2472  0.5327 -0.0202
11586TIP3    H156249   1.488   1.295   1.493 -0.0602 -0.6774  0.6924
11586TIP3    H256250   1.596   1.355   1.580  0.3388 -0.0243 -0.2338
11587TIP3   OH256251   4.374   5.226  17.121 -0.0551 -0.5804  0.1106
11587TIP3    H156252   4.376   5.185  17.207  0.5418  1.1128  0.9480
11587TIP3    H256253   4.281   5.247  17.107  0.1222  1.5204  1.5885
11588TIP3   OH256254   0.344   4.778  11.364 -0.0540 -0.2126 -0.2595
11588TIP3    H156255   0.417   4.743  11.414 -0.2183  0.5639  0.5485
11588TIP3    H256256   0.373   4.775  11.273  0.7228 -0.5169 -0.0075
11589TIP3   OH256257   6.372   4.243  17.267  0.4650 -0.1056 -0.2305
11589TIP3    H156258   6.443   4.307  17.267  1.0569 -0.7485 -0.9173
11589TIP3    H256259   6.378   4.201  17.353  2.9543 -2.3190 -1.3447
11590TIP3   OH256260   0.423   2.222  12.402 -0.1980  0.3140 -0.0929
11590TIP3    H156261   0.340   2.228  12.449  0.6759  0.7633  1.4365
11590TIP3    H256262   0.472   2.299  12.430  0.3955  0.5651 -1.7172
11591TIP3   OH256263   4.750   1.842   5.934  0.4488  0.5498 -0.0387
11591TIP3    H156264   4.685   1.909   5.913  2.0822  2.8272  1.6310
11591TIP3    H256265   4.733   1.820   6.026  0.7761 -0.3298 -0.1792
11592TIP3   OH256266   0.227   6.596   2.515 -0.1535 -0.2235 -0.7645
11592TIP3    H156267   0.227   6.654   2.439  1.0880 -0.4041 -0.9198
11592TIP3    H256268   0.185   6.647   2.584  0.8729  0.8562 -0.9053
11593TIP3   OH256269   3.834   3.357  15.292 -0.6531  0.2140 -0.0388
11593TIP3    H156270   3.861   3.271  15.324 -1.1638 -0.4084 -1.2071
11593TIP3    H256271   3.746   3.344  15.258  0.2653  0.4688 -2.8261
11594TIP3   OH256272   1.871   5.545  11.132  0.0197  0.1631 -0.0137
11594TIP3    H156273   1.870   5.626  11.182 -0.5543  0.2872 -0.2222
11594TIP3    H256274   1.957   5.507  11.150 -0.5043 -0.2458  1.7823
11595TIP3   OH256275   4.023   5.002  15.248 -0.4968  0.1508 -0.7287
11595TIP3    H156276   3.972   5.038  15.176 -1.5046 -2.4388 -1.3897
11595TIP3    H256277   3.961   4.995  15.321 -0.4065 -0.5168 -0.7077
11596TIP3   OH256278   3.295   1.810  15.610  0.3789 -0.4822  0.7308
11596TIP3    H156279   3.208   1.835  15.580  0.2619  0.0883  1.5288
11596TIP3    H256280   3.306   1.853  15.694  1.0288 -1.3951  1.1390
11597TIP3   OH256281   4.853   4.776   3.504  0.8150  0.0338 -0.3224
11597TIP3    H156282   4.848   4.802   3.413  1.4236  1.9497  0.1514
11597TIP3    H256283   4.907   4.843   3.546  0.6061 -0.8258  1.4375
11598TIP3   OH256284   4.665   1.968  17.086 -0.2404  0.0538  0.2632
11598TIP3    H156285   4.738   1.971  17.024  0.6520  0.0967  1.2871
11598TIP3    H256286   4.706   1.959  17.172 -1.4501 -0.0663  0.8596
11599TIP3   OH256287   4.938   2.973   1.068 -0.7686 -0.1151  0.2582
11599TIP3    H156288   4.944   2.907   0.999 -1.0893  1.3498 -1.2336
11599TIP3    H256289   4.905   2.926   1.144 -0.0558 -1.8556 -0.4722
11600TIP3   OH256290   3.911   6.181   0.985 -0.2073  0.6215  0.3192
11600TIP3    H156291   3.864   6.223   1.056 -0.6012  1.2506 -0.2922
11600TIP3    H256292   3.847   6.123   0.944 -0.2687  0.9633 -0.0872
11601TIP3   OH256293   5.077   1.161   2.680 -0.2924 -0.5472 -0.5420
11601TIP3    H156294   5.090   1.234   2.618  0.0001 -0.2699 -0.1612
11601TIP3    H256295   4.994   1.181   2.723  0.4266  0.3052  0.5333
11602TIP3   OH256296   0.065   5.848  14.962  0.1504 -0.7132 -0.1544
11602TIP3    H156297   0.122   5.921  14.939 -2.5009  1.3361 -0.8302
11602TIP3    H256298   0.098   5.774  14.912  2.6745  0.0838  0.2069
11603TIP3   OH256299   3.489   3.148   0.962 -0.1604 -0.6650 -0.0943
11603TIP3    H156300   3.559   3.199   1.003 -0.3606  0.5026 -1.1674
11603TIP3    H256301   3.524   3.059   0.958  0.4082 -0.5336  1.3319
11604TIP3   OH256302   2.158   1.304  16.249 -0.0489  0.3906 -0.4985
11604TIP3    H156303   2.220   1.315  16.321  2.8271  0.7056 -2.8117
11604TIP3    H256304   2.126   1.393  16.232 -0.9247  0.2817  0.4712
11605TIP3   OH256305   2.497   0.719  16.005  0.0689 -0.2287  0.0925
11605TIP3    H156306   2.536   0.671  16.078 -0.0637 -0.9629 -0.3133
11605TIP3    H256307   2.427   0.771  16.046  1.3738  1.0331  0.8146
11606TIP3   OH256308   2.946   5.689   3.321 -0.2236  0.1733  0.0902
11606TIP3    H156309   2.873   5.654   3.270  0.3557 -0.4382 -0.3274
11606TIP3    H256310   2.935   5.651   3.408  0.2810 -0.9135 -0.3022
11607TIP3   OH256311   6.574   1.498  12.252  0.9460  0.3040 -0.2007
11607TIP3    H156312   6.524   1.574  12.222 -0.0526 -0.7871 -1.4092
11607TIP3    H256313   6.519   1.459  12.320  0.6153 -0.3244 -0.8210
11608TIP3   OH256314   3.018   2.444  12.046 -0.4096 -0.4916  0.2449
11608TIP3    H156315   2.965   2.520  12.068 -0.4010 -0.4233  0.0315
11608TIP3    H256316   3.065   2.424  12.127 -0.5016 -0.3442  0.3360
11609TIP3   OH256317   6.669   6.613   1.505 -0.0481  0.6407 -0.0848
11609TIP3    H156318   6.754   6.567   1.505 -0.5284 -0.2752 -0.1279
11609TIP3    H256319   6.612   6.556   1.557 -1.0255  0.5006 -1.2722
11610TIP3   OH256320   4.793   1.743   2.347  0.0582  0.7641  0.3447
11610TIP3    H156321   4.792   1.838   2.333  0.7635  0.5852 -1.1668
11610TIP3    H256322   4.703   1.715   2.330  0.0093  1.0810  0.0668
11611TIP3   OH256323   2.304   0.114  15.083 -0.1592 -0.1551  0.9035
11611TIP3    H156324   2.380   0.172  15.093 -0.6524  0.2644  2.5662
11611TIP3    H256325   2.229   0.169  15.106 -0.8047 -0.9771  0.7889
11612TIP3   OH256326   5.305   4.269   5.205 -0.0109  0.4841  0.2960
11612TIP3    H156327   5.306   4.315   5.289 -0.7221  0.8304  0.1279
11612TIP3    H256328   5.288   4.337   5.140  0.8952  0.2720 -0.1772
11613TIP3   OH256329   3.265   3.597   2.595 -0.1873  0.3108 -0.4883
11613TIP3    H156330   3.189   3.560   2.550  0.0800 -1.5275  0.4751
11613TIP3    H256331   3.228   3.646   2.668 -0.4895 -2.2992  1.2408
11614TIP3   OH256332   2.873   6.437   5.000 -0.7881  0.2725 -0.3096
11614TIP3    H156333   2.900   6.362   4.947 -1.5103 -3.4524  3.9642
11614TIP3    H256334   2.778   6.441   4.991 -0.8805 -0.1700  0.4570
11615TIP3   OH256335   4.417   3.691   4.852  0.6506 -0.3661  0.3125
11615TIP3    H156336   4.409   3.603   4.888 -0.5722 -0.3902  0.0212
11615TIP3    H256337   4.512   3.708   4.851  0.8589 -1.3972  1.0091
11616TIP3   OH256338   3.785   0.786   1.871 -0.1035 -0.7244  0.3530
11616TIP3    H156339   3.835   0.859   1.906 -0.5756 -0.4256  0.4188
11616TIP3    H256340   3.698   0.823   1.853  0.3274 -0.6803 -1.8370
11617TIP3   OH256341   1.133   1.683   2.867 -0.3531 -0.2073 -0.4977
11617TIP3    H156342   1.086   1.753   2.821 -0.5923 -0.8872 -1.3076
11617TIP3    H256343   1.064   1.624   2.898 -0.2939  0.7477  1.6944
11618TIP3   OH256344   5.784   4.689   6.363  0.0338  0.0213 -0.1189
11618TIP3    H156345   5.763   4.627   6.293 -1.8396  0.1611  0.2578
11618TIP3    H256346   5.798   4.634   6.440 -1.5749 -0.0005  0.2024
11619TIP3   OH256347   4.540   2.716  15.923 -0.2552 -0.0257  0.2959
11619TIP3    H156348   4.449   2.730  15.946  0.2041  2.3220  0.9374
11619TIP3    H256349   4.542   2.628  15.884 -2.4819 -0.7796  1.6930
11620TIP3   OH256350   3.184   1.111   5.326  0.0464 -0.0402  0.2170
11620TIP3    H156351   3.210   1.145   5.412  4.3937 -1.4329 -0.3049
11620TIP3    H256352   3.172   1.017   5.340  0.4272 -0.2209 -0.6050
11621TIP3   OH256353   5.076   5.566   1.295 -0.6547  0.8856 -0.0858
11621TIP3    H156354   5.126   5.485   1.290 -1.0069  0.7038 -0.8181
11621TIP3    H256355   5.005   5.546   1.356  0.1959  1.1765  1.0330
11622TIP3   OH256356   3.975   3.984   0.152 -0.8400  0.0795 -0.5317
11622TIP3    H156357   4.059   4.029   0.143 -1.4938  1.1096 -2.0839
11622TIP3    H256358   3.910   4.052   0.133 -1.9697 -0.9794 -0.5746
11623TIP3   OH256359   4.436   6.820   0.657 -0.0681 -0.9649  0.6486
11623TIP3    H156360   4.370   6.750   0.659 -0.4341 -0.6610 -0.1299
11623TIP3    H256361   4.443   6.849   0.748 -2.0436 -0.0652  0.5740
11624TIP3   OH256362   2.542   4.810  11.007 -0.8613 -0.7011 -0.7381
11624TIP3    H156363   2.459   4.821  10.961 -1.2590 -0.8262 -0.0624
11624TIP3    H256364   2.599   4.878  10.971 -1.6498  0.1892 -0.3152
11625TIP3   OH256365   3.603   6.794  11.486  0.0772 -0.2028 -0.7195
11625TIP3    H156366   3.673   6.834  11.434 -0.1233  0.5793 -0.4075
11625TIP3    H256367   3.626   6.701  11.491  0.1533 -0.2766 -2.1221
11626TIP3   OH256368   3.637   5.718  16.843  0.0123  0.1754  0.6895
11626TIP3    H156369   3.721   5.741  16.802  0.3883 -2.9195 -0.5902
11626TIP3    H256370   3.656   5.717  16.937  1.4202 -0.4025  0.4237
11627TIP3   OH256371   4.682   5.354  11.779  0.2634  0.3160  0.0633
11627TIP3    H156372   4.680   5.258  11.776 -2.0879  0.1943  2.3441
11627TIP3    H256373   4.760   5.374  11.830  0.4694 -0.4245  0.0564
11628TIP3   OH256374   1.881   5.586   6.074  0.0650  0.1362 -0.5374
11628TIP3    H156375   1.874   5.495   6.044  0.7691 -0.1211  0.0514
11628TIP3    H256376   1.802   5.628   6.039 -1.2324 -1.1396  0.6750
11629TIP3   OH256377   1.042   5.897  16.455  0.0651 -0.2649  0.7993
11629TIP3    H156378   1.014   5.917  16.365 -0.1045 -0.7115  0.7522
11629TIP3    H256379   1.136   5.885  16.448  0.0587 -0.2560  0.6867
11630TIP3   OH256380   2.696   3.980  12.122  0.4354 -0.5687  0.2141
11630TIP3    H156381   2.682   4.066  12.083  1.6808 -0.2011  0.5266
11630TIP3    H256382   2.649   3.983  12.205 -1.7969 -1.1718 -0.9585
11631TIP3   OH256383   2.441   1.139  16.456 -0.3978 -0.5652  0.5131
11631TIP3    H156384   2.380   1.210  16.435  2.2954  1.8225  0.1713
11631TIP3    H256385   2.500   1.134  16.381  1.1083 -1.3182  1.6900
11632TIP3   OH256386   6.647   0.100  14.674  0.4743  0.1338 -0.3233
11632TIP3    H156387   6.665   0.061  14.759 -2.5263  0.5456  0.6441
11632TIP3    H256388   6.693   0.045  14.611  1.6170 -1.0263  1.4459
11633TIP3   OH256389   4.404   0.522  11.575  1.0132 -0.4120  0.7080
11633TIP3    H156390   4.450   0.549  11.654  0.6722  1.7170  0.2485
11633TIP3    H256391   4.314   0.551  11.588  0.8122 -0.5843 -0.2088
11634TIP3   OH256392   6.200   4.118   2.076  0.0002  0.1424 -0.2425
11634TIP3    H156393   6.203   4.195   2.019  0.6274 -1.1099 -1.9910
11634TIP3    H256394   6.182   4.045   2.017  2.0050 -1.4132  0.9411
11635TIP3   OH256395   2.329   6.772  16.875  0.5931 -0.7528  0.1514
11635TIP3    H156396   2.279   6.693  16.854 -1.4817  0.1919  1.1252
11635TIP3    H256397   2.398   6.776  16.810 -0.3705 -2.3961 -1.0442
11636TIP3   OH256398   4.741   1.842   4.648 -0.0376 -0.3177 -0.1343
11636TIP3    H156399   4.752   1.878   4.560 -0.4272 -2.2841 -1.0256
11636TIP3    H256400   4.648   1.852   4.667 -0.3359 -1.6672 -0.7856
11637TIP3   OH256401   6.000   4.199  13.021  0.4377  0.1263  0.6433
11637TIP3    H156402   6.048   4.121  12.994  0.9812  0.5194  0.4838
11637TIP3    H256403   5.952   4.171  13.099  1.0122 -0.2344  0.8725
11638TIP3   OH256404   4.806   5.983  10.906  0.1590  0.1729 -0.5664
11638TIP3    H156405   4.786   5.896  10.871 -1.5562 -0.5514  1.9492
11638TIP3    H256406   4.724   6.031  10.898  1.1035  1.6580 -1.9746
11639TIP3   OH256407   1.136   0.884  12.702  0.4920 -0.0158 -0.3228
11639TIP3    H156408   1.219   0.927  12.679  0.0223  0.9882 -0.2020
11639TIP3    H256409   1.153   0.845  12.788  0.8243  0.2439 -0.2652
11640TIP3   OH256410   4.500   0.396   3.816  0.2305  0.1884 -0.5215
11640TIP3    H156411   4.564   0.425   3.751 -0.4396  2.5309 -0.2172
11640TIP3    H256412   4.429   0.359   3.764  0.5579  0.2354 -1.0128
11641TIP3   OH256413   2.335   0.030   3.798 -0.0206 -0.2611  0.0379
11641TIP3    H156414   2.260   0.016   3.856 -0.6342  0.0329 -0.6693
11641TIP3    H256415   2.296   0.049   3.713  0.8680 -0.6737 -0.4731
11642TIP3   OH256416   5.655   0.375  14.940  0.2666 -0.3810  0.6008
11642TIP3    H156417   5.661   0.284  14.969 -0.2419 -0.4616  0.4636
11642TIP3    H256418   5.712   0.380  14.863 -1.1929 -1.0900 -0.5999
11643TIP3   OH256419   5.140   4.382  14.704  0.0888  0.1767  0.3312
11643TIP3    H156420   5.136   4.311  14.768 -1.0057 -1.4968 -1.4644
11643TIP3    H256421   5.230   4.381  14.672 -0.2291 -1.4662 -0.6906
11644TIP3   OH256422   4.207   5.480   3.009  0.1591  0.1017  0.0378
11644TIP3    H156423   4.279   5.419   3.027  0.3661 -0.1578 -1.5294
11644TIP3    H256424   4.241   5.536   2.938 -1.3045 -0.2802 -1.0155
11645TIP3   OH256425   1.863   1.975  12.049  0.4203 -0.5605  0.0728
11645TIP3    H156426   1.925   2.047  12.059  0.9287 -1.0378  0.4189
11645TIP3    H256427   1.817   1.994  11.967  2.9152 -1.5800 -1.7032
11646TIP3   OH256428   1.677   3.498  14.608 -0.1678  0.1300  0.1804
11646TIP3    H156429   1.614   3.462  14.670  1.4674 -2.0154  0.7699
11646TIP3    H256430   1.757   3.508  14.659 -0.1583  3.6383 -0.3128
11647TIP3   OH256431   1.368   5.389   0.549 -0.5037  0.7890 -0.0428
11647TIP3    H156432   1.306   5.439   0.494  0.2630 -0.0591 -1.7569
11647TIP3    H256433   1.315   5.319   0.587 -0.5674 -0.2218 -1.8845
11648TIP3   OH256434   5.793   5.800   1.564  0.0299  0.3674 -0.5348
11648TIP3    H156435   5.842   5.825   1.642 -1.2763  0.7734  0.1919
11648TIP3    H256436   5.836   5.721   1.532 -0.1819 -0.5625  1.3528
11649TIP3   OH256437   6.135   6.637  13.510  0.4178 -0.3719  0.1714
11649TIP3    H156438   6.218   6.650  13.464  0.2121  0.4512  0.0202
11649TIP3    H256439   6.139   6.698  13.584 -0.0593 -0.3070  0.1465
11650TIP3   OH256440   4.205   0.754  10.684  0.0277 -0.3406 -0.0890
11650TIP3    H156441   4.206   0.800  10.768 -0.2288 -1.4594  0.5606
11650TIP3    H256442   4.146   0.680  10.699  1.1872 -1.4381 -0.7606
11651TIP3   OH256443   4.789   3.463  13.335 -0.2019  0.1245 -0.3689
11651TIP3    H156444   4.839   3.545  13.334 -2.4295  1.5900  0.2161
11651TIP3    H256445   4.721   3.476  13.269 -1.6978 -0.4679  0.9832
11652TIP3   OH256446   4.182   1.955   5.777 -0.2175 -0.2013  0.3676
11652TIP3    H156447   4.115   1.924   5.838 -1.8877 -3.5810 -2.7638
11652TIP3    H256448   4.140   2.028   5.730 -1.2214 -1.2912 -0.5020
11653TIP3   OH256449   1.337   6.670  14.857  0.3030 -0.1046  0.1386
11653TIP3    H156450   1.341   6.756  14.815 -1.4489 -0.0033  0.0942
11653TIP3    H256451   1.256   6.631  14.823  1.4984 -2.1429 -0.4953
11654TIP3   OH256452   2.140   5.317  15.283  0.4978 -0.3767 -0.4816
11654TIP3    H156453   2.203   5.342  15.351  0.7832  1.2485 -1.3052
11654TIP3    H256454   2.173   5.357  15.203 -1.5097  0.4496 -0.9694
11655TIP3   OH256455   2.491   5.335   1.858  0.0332 -0.7446 -0.1853
11655TIP3    H156456   2.400   5.350   1.881  0.9750  0.7763  3.3486
11655TIP3    H256457   2.521   5.417   1.820 -0.1729 -1.4767 -2.0194
11656TIP3   OH256458   6.619   5.168  11.913 -0.0743 -0.2706 -0.3954
11656TIP3    H156459   6.605   5.225  11.837  0.3505  0.0617 -0.2316
11656TIP3    H256460   6.710   5.186  11.939 -0.1505 -0.5410  0.0606
11657TIP3   OH256461   1.153   5.004   0.443 -0.5462 -0.7749  0.0727
11657TIP3    H156462   1.240   4.967   0.435  0.1229  0.5133  1.0923
11657TIP3    H256463   1.124   5.016   0.353  1.6577  1.7307 -0.4293
11658TIP3   OH256464   0.912   5.464   1.724 -0.3367 -0.2020 -0.0269
11658TIP3    H156465   0.851   5.531   1.692  1.5260  1.0317 -1.1976
11658TIP3    H256466   0.895   5.459   1.818 -0.5216  1.9706  0.1011
11659TIP3   OH256467   3.955   3.995  16.633  0.2060  0.1391 -0.1015
11659TIP3    H156468   3.880   3.978  16.577  0.3591 -0.9901  0.0205
11659TIP3    H256469   4.031   3.972  16.580  0.5768  2.2666 -0.6096
11660TIP3   OH256470   0.872   1.139  16.834  0.3064 -0.3895  0.2501
11660TIP3    H156471   0.948   1.103  16.788 -0.7320 -1.1958 -0.8886
11660TIP3    H256472   0.883   1.234  16.828  0.7485 -0.4949 -0.7186
11661TIP3   OH256473   1.918   0.720   1.418  0.3273  0.8338  0.1373
11661TIP3    H156474   1.982   0.748   1.484  1.1292 -0.2873 -0.1376
11661TIP3    H256475   1.967   0.720   1.336  0.5466 -1.8176  0.1835
11662TIP3   OH256476   2.481   4.405  14.190  0.0062 -0.2758  0.0500
11662TIP3    H156477   2.500   4.499  14.187  0.6005 -0.2742  2.1758
11662TIP3    H256478   2.505   4.373  14.103  4.1273  0.8074  0.5917
11663TIP3   OH256479   1.731   4.605  14.390  0.2868 -0.4714  0.1613
11663TIP3    H156480   1.690   4.624  14.305  1.8235 -0.5662 -0.6351
11663TIP3    H256481   1.718   4.511  14.401  0.6936 -0.5934 -0.3278
11664TIP3   OH256482   1.330   0.986  15.489  0.5585 -0.4800 -0.2391
11664TIP3    H156483   1.425   0.995  15.481  0.3248  1.2774 -1.6301
11664TIP3    H256484   1.300   0.975  15.399 -0.8179  2.5595 -0.2585
11665TIP3   OH256485   6.779   5.119   0.580  0.0527 -0.1544  0.6501
11665TIP3    H156486   6.870   5.145   0.572  0.4874 -1.5521  0.7963
11665TIP3    H256487   6.776   5.066   0.659 -1.0947  0.6688  1.1900
11666TIP3   OH256488   5.118   2.779  10.275 -0.1232  0.0735 -0.1535
11666TIP3    H156489   5.105   2.686  10.260  0.2392 -0.1905  1.0647
11666TIP3    H256490   5.210   2.787  10.301  0.3841  1.0340 -2.0813
11667TIP3   OH256491   3.524   1.161   4.204 -0.2660 -0.1171  0.1645
11667TIP3    H156492   3.585   1.198   4.140  0.0620  0.8835  1.0230
11667TIP3    H256493   3.538   1.066   4.198  0.1233 -0.0029 -0.8702
11668TIP3   OH256494   0.302   0.983  11.237 -0.5098 -0.1895 -0.5877
11668TIP3    H156495   0.317   1.077  11.226  0.2338 -0.3161 -0.7105
11668TIP3    H256496   0.386   0.943  11.214 -0.5790 -0.8290  0.2368
11669TIP3   OH256497   1.273   3.411  14.852 -0.1105  0.1191 -0.2121
11669TIP3    H156498   1.211   3.441  14.918  1.0220 -1.7557  1.8263
11669TIP3    H256499   1.220   3.397  14.774 -1.9433  0.1279  0.9818
11670TIP3   OH256500   2.547   0.254  13.379 -0.4808 -0.1120  0.8195
11670TIP3    H156501   2.478   0.317  13.396 -0.4855 -0.0247  0.4977
11670TIP3    H256502   2.501   0.173  13.354 -0.4712 -0.1682  0.9825
11671TIP3   OH256503   4.477   1.415  11.635 -0.2114  0.5098  0.9442
11671TIP3    H156504   4.553   1.453  11.680 -0.5696  2.0027  0.3498
11671TIP3    H256505   4.501   1.416  11.543 -0.7373  0.4807  0.8025
11672TIP3   OH256506   6.515   3.280  11.972  0.0692 -0.6380  0.0002
11672TIP3    H156507   6.502   3.301  12.064 -4.2532 -0.4198 -0.4600
11672TIP3    H256508   6.520   3.366  11.929  1.6506 -0.7425 -0.0852
11673TIP3   OH256509   5.486   6.648   0.512 -0.4896 -0.2978 -0.4212
11673TIP3    H156510   5.394   6.632   0.531 -0.6051 -0.7309 -1.3097
11673TIP3    H256511   5.522   6.681   0.595 -1.5265  0.2873 -0.1936
11674TIP3   OH256512   4.521   2.447  11.614  0.3788  0.2459 -0.4794
11674TIP3    H156513   4.504   2.405  11.530 -1.8580 -1.0705  0.5152
11674TIP3    H256514   4.607   2.415  11.640 -0.6430 -2.8210 -0.4074
11675TIP3   OH256515   3.881   2.693  14.560 -0.4539  0.3809  0.3157
11675TIP3    H156516   3.795   2.655  14.577  0.4630 -1.1588  1.9083
11675TIP3    H256517   3.935   2.619  14.531  1.5357  0.1552  3.9980
11676TIP3   OH256518   0.315   1.635  11.983 -0.1430 -0.2017  0.1193
11676TIP3    H156519   0.282   1.579  11.914  0.4647 -1.5722  0.9132
11676TIP3    H256520   0.259   1.713  11.979 -1.2699 -1.0227 -0.7304
11677TIP3   OH256521   4.071   5.698   0.469 -0.4069 -0.0911  0.0980
11677TIP3    H156522   4.002   5.764   0.456 -1.1703 -0.7782  0.5863
11677TIP3    H256523   4.039   5.643   0.540  1.2576  0.3648  1.2720
11678TIP3   OH256524   5.952   6.155  14.667  0.5657  0.7023  0.1603
11678TIP3    H156525   5.898   6.232  14.650  0.2977  0.2263 -1.3972
11678TIP3    H256526   5.889   6.083  14.671  1.0128  0.1947 -1.2806
11679TIP3   OH256527   3.903   1.443   5.457  0.1069 -0.3859 -0.5481
11679TIP3    H156528   3.813   1.429   5.427 -0.2552 -1.2453  0.8270
11679TIP3    H256529   3.936   1.514   5.403 -1.3187 -0.2240 -1.2488
11680TIP3   OH256530   0.345   0.327   2.746  0.2363  0.1794 -0.0257
11680TIP3    H156531   0.406   0.253   2.747  0.4246  0.2960 -1.2657
11680TIP3    H256532   0.313   0.330   2.656 -0.5910  0.9528  0.2801
11681TIP3   OH256533   2.033   1.880  13.546 -0.4576 -0.0800  0.3990
11681TIP3    H156534   2.017   1.832  13.627  1.4100 -0.9591  0.2987
11681TIP3    H256535   2.066   1.966  13.575 -2.7247  0.7998  0.5588
11682TIP3   OH256536   5.578   5.487  16.717  0.4260 -0.1494  0.3754
11682TIP3    H156537   5.593   5.438  16.635 -1.5823  0.3147 -0.3298
11682TIP3    H256538   5.622   5.571  16.703  2.8606 -1.2258  1.1152
11683TIP3   OH256539   1.311   6.067  14.278 -0.3061  0.0968 -0.3128
11683TIP3    H156540   1.391   6.120  14.285  0.0900 -0.6911  4.5291
11683TIP3    H256541   1.247   6.112  14.333 -1.5305 -1.8880  0.0041
11684TIP3   OH256542   4.769   0.188   4.174 -0.5120 -0.1127 -0.1114
11684TIP3    H156543   4.700   0.167   4.112 -0.4191  0.6909 -0.4962
11684TIP3    H256544   4.724   0.196   4.258 -0.9548  0.7679 -0.4204
11685TIP3   OH256545   5.442   6.369   2.365 -0.2834 -0.2604  0.3022
11685TIP3    H156546   5.474   6.432   2.429 -1.1300  0.3367  0.1572
11685TIP3    H256547   5.388   6.309   2.415 -0.1354 -0.3886  0.3086
11686TIP3   OH256548   1.404   1.586   4.610 -0.3599 -0.2029 -0.2096
11686TIP3    H156549   1.343   1.588   4.536  0.2691 -2.5638 -0.8721
11686TIP3    H256550   1.485   1.551   4.573  0.6086  0.4209  1.2184
11687TIP3   OH256551   0.273   3.987  12.328 -0.5083 -0.5110  0.6977
11687TIP3    H156552   0.337   4.039  12.375 -0.3280 -0.2583  0.1867
11687TIP3    H256553   0.316   3.903  12.313  0.2695  0.1080 -0.8482
11688TIP3   OH256554   4.747   5.389  16.687 -0.4860  0.2228 -0.1796
11688TIP3    H156555   4.790   5.473  16.672  0.0194 -0.0349 -0.2227
11688TIP3    H256556   4.654   5.409  16.693 -0.3137  0.8578  0.3845
11689TIP3   OH256557   2.910   0.793  16.309 -0.3046 -0.0999 -0.1110
11689TIP3    H156558   2.899   0.873  16.360  1.1531 -0.4831  0.8557
11689TIP3    H256559   2.959   0.821  16.231  2.1029 -0.3124  1.2127
11690TIP3   OH256560   6.057   4.197   0.343  0.0991 -0.7054 -0.3391
11690TIP3    H156561   6.127   4.183   0.407  1.0283  0.4009 -1.0653
11690TIP3    H256562   6.008   4.272   0.376  0.1435 -0.5776 -0.5612
11691TIP3   OH256563   2.029   3.656   4.492 -0.4132 -0.1066  0.7676
11691TIP3    H156564   2.019   3.561   4.499 -1.0795 -0.1656 -0.5217
11691TIP3    H256565   2.051   3.685   4.580 -1.6400 -1.2919  1.4959
11692TIP3   OH256566   4.975   5.559  13.470  0.6610  0.0780  0.1415
11692TIP3    H156567   4.887   5.523  13.480  1.3399 -2.0036 -0.6631
11692TIP3    H256568   4.981   5.628  13.535 -0.7937 -1.2735  1.8045
11693TIP3   OH256569   5.212   3.520  10.844  0.1073 -0.4439  0.4434
11693TIP3    H156570   5.307   3.512  10.852  0.1008 -0.6015  0.3725
11693TIP3    H256571   5.178   3.453  10.903 -0.0009  1.3414  2.5008
11694TIP3   OH256572   2.712   3.577  11.192 -0.1454  0.1223  0.6196
11694TIP3    H156573   2.624   3.568  11.156 -0.0753  0.2957  0.4080
11694TIP3    H256574   2.750   3.652  11.146  0.4304 -0.4878  0.0869
11695TIP3   OH256575   6.767   2.810   2.341 -0.3163 -0.5848 -0.8486
11695TIP3    H156576   6.734   2.780   2.426  1.5263  0.7153  0.4166
11695TIP3    H256577   6.844   2.756   2.324  0.2209  0.1776 -0.9074
11696TIP3   OH256578   6.240   5.213   2.682 -0.3871  0.2752 -0.5192
11696TIP3    H156579   6.261   5.122   2.703  0.7384  0.8763  1.2079
11696TIP3    H256580   6.154   5.227   2.722 -0.5511 -0.0096 -0.7663
11697TIP3   OH256581   2.162   1.190  11.957 -0.1223  0.3689 -0.3340
11697TIP3    H156582   2.137   1.140  11.880  0.2864 -0.6586  0.1850
11697TIP3    H256583   2.247   1.229  11.933 -0.5004  0.9359 -0.7819
11698TIP3   OH256584   4.652   0.883  17.045  0.0694 -0.0037 -0.3246
11698TIP3    H156585   4.636   0.927  16.962 -1.3399 -0.6117 -0.4138
11698TIP3    H256586   4.718   0.816  17.026 -0.8262 -0.6730 -1.1605
11699TIP3   OH256587   0.189   0.915  16.509 -0.3760 -0.2664 -0.3440
11699TIP3    H156588   0.183   0.833  16.559 -1.4006 -0.8642 -1.4016
11699TIP3    H256589   0.279   0.945  16.524 -0.6476 -0.3748  1.8853
11700TIP3   OH256590   1.004   6.001   4.869 -0.1436 -0.0087  0.0892
11700TIP3    H156591   1.042   6.078   4.911 -1.6894  1.1597 -0.5088
11700TIP3    H256592   0.911   6.023   4.860 -1.2174 -3.0070  2.2349
11701TIP3   OH256593   6.159   6.748   5.207 -0.3584 -0.5714 -0.2623
11701TIP3    H156594   6.249   6.758   5.236 -1.0190 -1.7859  2.5864
11701TIP3    H256595   6.106   6.773   5.283 -2.4423  0.1322 -1.8524
11702TIP3   OH256596   5.107   6.369  17.113  0.0489 -0.3202  0.7196
11702TIP3    H156597   5.018   6.403  17.112 -0.5432 -1.8249  0.5083
11702TIP3    H256598   5.123   6.344  17.204 -0.2930 -1.4282  0.4802
11703TIP3   OH256599   3.910   1.464  11.621 -0.7974 -0.2656  0.1318
11703TIP3    H156600   3.880   1.542  11.574 -1.1134 -0.2455  0.3642
11703TIP3    H256601   3.874   1.391  11.571 -0.7156 -0.2573  0.0605
11704TIP3   OH256602   3.906   2.457   3.512 -0.0824 -0.3544  0.3508
11704TIP3    H156603   3.813   2.438   3.527  0.1921 -1.3775  0.8537
11704TIP3    H256604   3.923   2.423   3.424  0.2108 -1.7641  0.9298
11705TIP3   OH256605   6.591   4.160  15.774  0.1693 -0.4809 -0.1058
11705TIP3    H156606   6.506   4.154  15.818 -0.0414  0.1497 -0.4120
11705TIP3    H256607   6.650   4.109  15.830 -0.0924  0.2837  0.8926
11706TIP3   OH256608   4.535   2.485   5.546 -0.0906 -0.3172  0.0142
11706TIP3    H156609   4.608   2.432   5.578  0.2147 -0.6500 -1.1574
11706TIP3    H256610   4.565   2.517   5.461 -1.2457 -0.3138 -0.4070
11707TIP3   OH256611   0.204   6.224  12.762  0.1324 -0.3022  0.1015
11707TIP3    H156612   0.134   6.207  12.698  1.1028  1.0312 -1.3807
11707TIP3    H256613   0.177   6.304  12.806  0.8753  0.4305 -0.7419
11708TIP3   OH256614   4.247   5.594   0.712  0.3525 -0.2660  0.1197
11708TIP3    H156615   4.188   5.560   0.780 -1.2207 -0.0349 -1.0742
11708TIP3    H256616   4.255   5.687   0.732 -0.1213 -0.1949 -0.0023
11709TIP3   OH256617   2.427   3.937  13.150  0.0094  0.7007  0.3008
11709TIP3    H156618   2.448   4.017  13.198 -0.3477  0.1090  1.4820
11709TIP3    H256619   2.477   3.868  13.194 -0.3604  0.1339 -0.1495
11710TIP3   OH256620   2.279   4.243  16.410  0.2273 -0.3775  0.2636
11710TIP3    H156621   2.359   4.238  16.357  0.1645 -0.8777  0.2108
11710TIP3    H256622   2.211   4.268  16.347  0.6642  1.9435  0.6558
11711TIP3   OH256623   5.362   1.663   1.548 -0.1971  0.0993  0.5391
11711TIP3    H156624   5.416   1.592   1.582 -0.1645 -1.0721 -1.7388
11711TIP3    H256625   5.335   1.632   1.461 -0.8979  2.5301 -0.1692
11712TIP3   OH256626   4.577   1.707   5.321  0.3679 -0.1493  0.6253
11712TIP3    H156627   4.488   1.676   5.306  0.4613 -0.5119  0.7971
11712TIP3    H256628   4.591   1.693   5.415  1.6555 -2.9731  0.1115
11713TIP3   OH256629   5.527   5.389   1.316  0.3765 -0.0039 -0.4094
11713TIP3    H156630   5.618   5.381   1.286  0.4584  1.1098 -0.4743
11713TIP3    H256631   5.531   5.452   1.388 -0.0414 -1.5285  1.0012
11714TIP3   OH256632   1.657   5.274   5.798 -0.4890  0.0785  0.1871
11714TIP3    H156633   1.655   5.178   5.802 -0.2677  0.0328 -0.5546
11714TIP3    H256634   1.575   5.302   5.836 -0.3550 -0.3931  0.8380
11715TIP3   OH256635   2.025   1.733  11.688  0.2257  0.2999 -0.4093
11715TIP3    H156636   2.074   1.675  11.748 -0.8078 -0.6507 -0.4461
11715TIP3    H256637   1.993   1.674  11.620  0.4865  1.2009 -1.3274
11716TIP3   OH256638   6.690   3.548  11.077 -0.2351 -0.9106  0.4198
11716TIP3    H156639   6.716   3.509  10.994 -0.3035  0.0091 -0.0408
11716TIP3    H256640   6.743   3.628  11.083 -1.0617 -0.3798  0.7179
11717TIP3   OH256641   1.612   0.849  13.256 -0.0956 -0.1611  0.0737
11717TIP3    H156642   1.598   0.768  13.206 -1.8787  0.3125 -0.2372
11717TIP3    H256643   1.547   0.847  13.325  0.0894  0.8331  0.2963
11718TIP3   OH256644   2.940   2.275   2.273 -0.5964 -0.8392 -0.4212
11718TIP3    H156645   2.944   2.367   2.248  0.6412 -0.7070  0.1801
11718TIP3    H256646   2.874   2.272   2.343  1.5181  0.1992  1.7877
11719TIP3   OH256647   5.626   5.519   3.859  0.2024 -1.1499 -0.4692
11719TIP3    H156648   5.640   5.488   3.948 -2.4044 -2.3667 -0.3945
11719TIP3    H256649   5.594   5.443   3.811  0.9726 -0.3784 -2.3274
11720TIP3   OH256650   3.226   4.877  14.596  0.0845  0.2542 -0.3309
11720TIP3    H156651   3.271   4.810  14.545 -0.1410  0.9772 -1.5464
11720TIP3    H256652   3.133   4.860  14.581  0.0028  0.1988  0.2214
11721TIP3   OH256653   5.497   4.127  13.105  0.4597 -0.0160  0.8425
11721TIP3    H156654   5.546   4.047  13.090  1.7145  0.8339  0.2948
11721TIP3    H256655   5.437   4.133  13.031 -1.0721 -1.4286  1.8780
11722TIP3   OH256656   0.115   3.528  14.151 -0.6338 -0.3265 -0.1502
11722TIP3    H156657   0.063   3.602  14.120 -0.2028 -0.7117 -1.8475
11722TIP3    H256658   0.203   3.543  14.117 -0.2767 -1.0666  0.4081
11723TIP3   OH256659   0.522   1.212   2.472 -0.5392  0.0917  0.3141
11723TIP3    H156660   0.552   1.280   2.412  0.6840 -0.9151 -0.2368
11723TIP3    H256661   0.578   1.221   2.549  0.3518 -0.9590 -0.1922
11724TIP3   OH256662   0.215   2.468  15.951 -0.4483  0.0745 -0.7388
11724TIP3    H156663   0.300   2.428  15.935  0.5669  1.7636  0.1378
11724TIP3    H256664   0.154   2.417  15.898  1.0368 -1.4177 -1.0884
11725TIP3   OH256665   6.304   5.465  17.186 -0.2438  0.2374 -0.0480
11725TIP3    H156666   6.395   5.437  17.198  0.0795  1.3516  0.1964
11725TIP3    H256667   6.274   5.415  17.110  0.1972 -0.9952  0.5458
11726TIP3   OH256668   1.038   5.364  16.081 -0.4873  0.2856  0.2018
11726TIP3    H156669   0.971   5.427  16.106 -0.7124  0.1531 -0.0572
11726TIP3    H256670   1.029   5.293  16.144  2.2582  2.1320  2.9410
11727TIP3   OH256671   0.154   6.015   2.519 -0.4313  0.1479  0.3239
11727TIP3    H156672   0.128   6.046   2.432 -0.6480 -0.1277  0.2931
11727TIP3    H256673   0.249   6.001   2.511 -0.2626  1.1360  0.4365
11728TIP3   OH256674   2.577   4.431  12.990  0.6087 -0.5328  0.3514
11728TIP3    H156675   2.484   4.441  13.007  0.7438 -0.4930  1.0801
11728TIP3    H256676   2.586   4.345  12.950  0.1162 -0.0540 -0.8488
11729TIP3   OH256677   6.207   2.515  14.137 -0.0660  0.6837 -0.2571
11729TIP3    H156678   6.276   2.567  14.095 -0.7640  1.5213 -0.3865
11729TIP3    H256679   6.164   2.576  14.197  0.5241 -0.3361  1.2576
11730TIP3   OH256680   0.149   4.015  13.611  0.1588 -0.2531  0.3568
11730TIP3    H156681   0.225   4.008  13.554 -0.6154  1.7825 -1.0484
11730TIP3    H256682   0.184   4.045  13.695  1.1359 -1.7938  0.5368
11731TIP3   OH256683   5.016   2.592   1.330  0.2086 -0.5879  0.1785
11731TIP3    H156684   5.086   2.541   1.368  0.5835 -1.1590 -1.2077
11731TIP3    H256685   5.007   2.668   1.387  0.8443 -1.3155  1.2669
11732TIP3   OH256686   1.946   1.061   5.576 -0.3591  0.2372  0.2135
11732TIP3    H156687   1.866   1.007   5.575  0.7537 -1.5113  0.7779
11732TIP3    H256688   2.002   1.019   5.641  1.3539  0.9118 -0.7730
11733TIP3   OH256689   0.307   6.071  13.333  0.4186  0.2972 -0.1117
11733TIP3    H156690   0.280   6.161  13.347 -2.3738 -0.4920  0.2115
11733TIP3    H256691   0.295   6.057  13.239  1.8855  0.5394 -0.3498
11734TIP3   OH256692   6.735   0.028  13.515 -0.0415 -0.0920  0.1369
11734TIP3    H156693   6.765   0.105  13.564  1.1644 -0.5194  0.1077
11734TIP3    H256694   6.798   0.020  13.443  0.4145 -1.6279  0.6635
11735TIP3   OH256695   1.845   0.459   1.512 -0.1809  0.4606 -0.0429
11735TIP3    H156696   1.913   0.440   1.577  1.7178 -0.7034 -2.2162
11735TIP3    H256697   1.882   0.531   1.460 -1.0157  0.4254 -0.6977
11736TIP3   OH256698   3.001   5.689   3.761  0.4481 -0.4920 -0.8948
11736TIP3    H156699   3.028   5.748   3.691  1.3995 -0.9783 -0.9474
11736TIP3    H256700   2.950   5.745   3.821  1.8001  0.5224 -0.6544
11737TIP3   OH256701   1.102   6.220  16.448 -0.1955  0.5921  0.1797
11737TIP3    H156702   1.073   6.194  16.361 -1.1233  0.1730  0.5991
11737TIP3    H256703   1.032   6.191  16.507  0.7427  0.2172  1.1523
11738TIP3   OH256704   3.638   2.199  11.579 -0.2998 -0.4411 -0.0715
11738TIP3    H156705   3.587   2.176  11.656  0.3366 -0.4521  0.3613
11738TIP3    H256706   3.582   2.258  11.529 -0.8116 -0.6234  0.2859
11739TIP3   OH256707   0.469   6.163   2.188 -0.1644  0.5448 -0.9117
11739TIP3    H156708   0.373   6.161   2.192 -0.1329  0.5085  0.7193
11739TIP3    H256709   0.495   6.195   2.275  1.3378 -1.8087 -0.4108
11740TIP3   OH256710   5.239   6.663   3.822  0.0600 -0.7175 -0.8664
11740TIP3    H156711   5.234   6.752   3.857 -0.5202  0.5885 -3.9255
11740TIP3    H256712   5.325   6.631   3.848  0.1082  0.5725  0.6481
11741TIP3   OH256713   5.772   0.938  13.195  0.0625 -0.0239 -0.4188
11741TIP3    H156714   5.719   0.943  13.115  0.2389  1.4102 -0.4720
11741TIP3    H256715   5.729   0.997  13.256 -0.0361 -1.0648  0.5526
11742TIP3   OH256716   0.624   0.574   4.121 -1.0871 -0.1956  0.8061
11742TIP3    H156717   0.649   0.571   4.214 -1.8663  0.4527  1.0389
11742TIP3    H256718   0.553   0.511   4.113 -0.5372 -0.7877  0.4904
11743TIP3   OH256719   0.137   5.797   2.807  0.3507  0.3629 -0.2502
11743TIP3    H156720   0.081   5.846   2.748  1.4935 -0.0494 -1.7437
11743TIP3    H256721   0.113   5.705   2.793 -1.1683  0.3465  1.8859
11744TIP3   OH256722   2.525   3.238  11.293  0.1573  0.1871  0.3760
11744TIP3    H156723   2.539   3.280  11.208 -2.1643  3.1617  1.3008
11744TIP3    H256724   2.482   3.156  11.272  1.2403 -0.0021 -1.3511
11745TIP3   OH256725   6.089   1.884   3.984 -0.2406  0.5640  0.6414
11745TIP3    H156726   6.133   1.842   3.909  0.0539 -0.2603  1.2581
11745TIP3    H256727   6.094   1.819   4.054  0.5672  1.7931  1.7603
11746TIP3   OH256728   6.324   1.197   5.672 -0.0307  0.4954 -0.5237
11746TIP3    H156729   6.383   1.179   5.745 -0.6979  2.1256  0.4608
11746TIP3    H256730   6.343   1.287   5.647 -0.6929  0.3702 -1.5472
11747TIP3   OH256731   3.568   4.717   4.501  0.4694  0.4039  0.4459
11747TIP3    H156732   3.628   4.659   4.455 -0.4977 -1.6945  1.6629
11747TIP3    H256733   3.525   4.768   4.432  0.8361 -0.8641 -0.7581
11748TIP3   OH256734   0.868   6.819   3.267 -0.2016 -0.0475  0.0070
11748TIP3    H156735   0.814   6.797   3.190  0.1196 -0.8460  0.0025
11748TIP3    H256736   0.950   6.849   3.230 -0.8339  1.7759 -0.0020
11749TIP3   OH256737   3.283   4.645   0.251 -0.4518  0.4641  0.2498
11749TIP3    H156738   3.332   4.568   0.280  0.5586  0.5258 -1.2178
11749TIP3    H256739   3.201   4.640   0.300 -0.6116 -1.7977 -0.1359
11750TIP3   OH256740   0.020   1.014  12.736  0.3361  0.1662 -0.3772
11750TIP3    H156741   0.010   0.933  12.685  1.4632  0.9246 -1.8946
11750TIP3    H256742   0.073   1.071  12.680  1.5539  1.1086  1.6166
11751TIP3   OH256743   2.567   2.252  16.793 -0.0700  0.2775  0.2543
11751TIP3    H156744   2.509   2.214  16.727  0.9621 -1.1950  0.1406
11751TIP3    H256745   2.650   2.204  16.782  0.9715  1.8796  0.8216
11752TIP3   OH256746   3.253   6.585   0.909 -0.2102 -0.0634 -0.1435
11752TIP3    H156747   3.271   6.574   1.003  1.0879  0.1512 -0.3590
11752TIP3    H256748   3.170   6.538   0.896 -1.1503  1.0386  1.3656
11753TIP3   OH256749   3.257   3.463  12.578 -0.2560  0.3859 -0.7728
11753TIP3    H156750   3.197   3.490  12.647 -0.1675 -0.7405 -0.2307
11753TIP3    H256751   3.203   3.416  12.515  0.0944 -0.9982 -0.0753
11754TIP3   OH256752   0.123   6.746  16.819  0.2098  0.0966  0.3210
11754TIP3    H156753   0.203   6.773  16.773 -0.1261 -0.6781 -0.7561
11754TIP3    H256754   0.096   6.824  16.867  1.9867  0.1772  1.2628
11755TIP3   OH256755   6.602   2.020   2.126 -0.4053  0.2129 -0.7716
11755TIP3    H156756   6.684   2.053   2.163 -0.1144 -2.0841  0.8409
11755TIP3    H256757   6.541   2.093   2.133  0.7126  1.0517  0.7259
11756TIP3   OH256758   6.353   6.196   1.664 -0.1951 -0.4876  0.2519
11756TIP3    H156759   6.352   6.251   1.586 -0.2770  0.3884  0.8549
11756TIP3    H256760   6.321   6.111   1.634 -2.2465  0.3991 -0.2625
11757TIP3   OH256761   1.503   5.373   3.918 -0.3293 -0.1629  0.1927
11757TIP3    H156762   1.518   5.279   3.909  0.0917  0.0327 -1.5199
11757TIP3    H256763   1.472   5.384   4.008 -0.4269 -1.9371  0.4130
11758TIP3   OH256764   0.472   4.017  14.298 -0.0440  0.6795 -0.3444
11758TIP3    H156765   0.532   4.065  14.355  0.8798 -0.2032 -0.5521
11758TIP3    H256766   0.528   3.971  14.236 -0.8801 -0.7052 -0.1284
11759TIP3   OH256767   3.760   3.127   5.266 -0.1395  0.0221 -0.3013
11759TIP3    H156768   3.805   3.084   5.193 -0.7834 -0.8804 -0.1832
11759TIP3    H256769   3.728   3.056   5.320 -0.8470  0.6625  0.1481
11760TIP3   OH256770   0.414   3.804   2.890 -0.2067 -0.4174  0.1082
11760TIP3    H156771   0.435   3.864   2.819  0.8401 -0.5472  0.2819
11760TIP3    H256772   0.497   3.762   2.911 -0.7967 -1.4627  0.4219
11761TIP3   OH256773   5.741   1.608  14.625 -0.4703  0.3399  0.2707
11761TIP3    H156774   5.821   1.563  14.653 -0.1885 -0.3247 -1.4522
11761TIP3    H256775   5.772   1.692  14.591 -0.1764 -0.7263 -2.3019
11762TIP3   OH256776   0.087   6.618   4.549  0.1911  0.0715 -0.1164
11762TIP3    H156777   0.140   6.690   4.582  0.4046 -0.0711 -0.1416
11762TIP3    H256778   0.013   6.659   4.506  0.2773  0.2733 -0.0709
11763TIP3   OH256779   5.074   1.199   1.579  0.7208 -0.2707  0.2717
11763TIP3    H156780   4.983   1.180   1.605  0.6161 -0.4100 -0.1920
11763TIP3    H256781   5.101   1.121   1.531  0.5934  0.3704 -0.8758
11764TIP3   OH256782   6.498   3.968  10.875 -0.1270  0.6292 -0.3372
11764TIP3    H156783   6.586   3.945  10.846 -0.1576  1.8169 -1.4361
11764TIP3    H256784   6.445   3.892  10.853  0.4478  0.2617 -0.4790
11765TIP3   OH256785   2.011   0.485   2.508  0.3373 -0.3855  0.0110
11765TIP3    H156786   1.925   0.454   2.481  0.1549  0.6650 -0.6629
11765TIP3    H256787   2.057   0.406   2.538 -1.1342 -0.8362  1.2031
11766TIP3   OH256788   2.774   6.216  15.691  0.0426 -0.0730  0.3008
11766TIP3    H156789   2.836   6.224  15.618  1.1629  0.3526  1.2668
11766TIP3    H256790   2.699   6.268  15.664  0.1560 -0.4787 -0.8419
11767TIP3   OH256791   1.580   2.434   6.778  0.2803 -0.3375  0.3814
11767TIP3    H156792   1.621   2.398   6.857 -1.0799  0.0422  1.2898
11767TIP3    H256793   1.510   2.372   6.756 -0.6558  0.5914  0.6775
11768TIP3   OH256794   0.276   4.700   4.691  0.6381  0.3112 -0.4718
11768TIP3    H156795   0.306   4.682   4.602  0.8709  1.1359 -0.5698
11768TIP3    H256796   0.230   4.621   4.717  0.2422  0.1958 -1.4636
11769TIP3   OH256797   3.342   2.137  14.465 -0.1713  0.7509  0.6835
11769TIP3    H156798   3.312   2.070  14.404  1.0932  0.2567  0.5772
11769TIP3    H256799   3.298   2.217  14.435 -0.4307  0.2969 -0.1955
11770TIP3   OH256800   0.499   5.737   1.987  0.0863 -0.1698 -0.0238
11770TIP3    H156801   0.460   5.729   1.900 -0.9948 -1.4934  0.5429
11770TIP3    H256802   0.452   5.672   2.040  2.4095 -1.1389  0.9543
11771TIP3   OH256803   2.145   5.779   3.846 -0.0004  0.1334 -0.0412
11771TIP3    H156804   2.193   5.754   3.766  0.6536 -0.4812  0.5298
11771TIP3    H256805   2.213   5.812   3.905 -0.5942  1.4250 -0.0462
11772TIP3   OH256806   6.345   5.340   5.822  0.4287 -0.0446  0.2160
11772TIP3    H156807   6.363   5.345   5.729 -0.5022 -1.7965 -0.1067
11772TIP3    H256808   6.250   5.328   5.828  0.4413  0.2593  1.4064
11773TIP3   OH256809   3.076   2.573   2.578  0.0109 -0.5443  0.3090
11773TIP3    H156810   3.078   2.668   2.571  2.0400 -0.3083  2.6791
11773TIP3    H256811   3.128   2.542   2.504 -2.5065 -0.0463 -1.8084
11774TIP3   OH256812   2.690   1.880  13.958 -0.3276  0.4640 -0.2198
11774TIP3    H156813   2.609   1.907  13.914 -0.6720 -1.9022 -1.2194
11774TIP3    H256814   2.701   1.788  13.932  1.0333 -0.1908  2.3669
11775TIP3   OH256815   1.542   4.419   1.012  0.7009  0.0212 -0.3952
11775TIP3    H156816   1.556   4.325   1.002  0.9916  0.0809 -0.5528
11775TIP3    H256817   1.449   4.427   1.033  0.8386 -0.3653  0.4337
11776TIP3   OH256818   5.312   5.595  16.564  0.0197  0.8082 -0.3853
11776TIP3    H156819   5.324   5.658  16.493  1.9113  0.8835 -0.0486
11776TIP3    H256820   5.400   5.572  16.591 -0.6243  0.6900  1.8708
11777TIP3   OH256821   4.454   4.427   1.482  0.1525  0.3435 -0.1291
11777TIP3    H156822   4.520   4.488   1.514 -0.7811  0.5640  1.5254
11777TIP3    H256823   4.371   4.474   1.494 -0.5630 -1.1039  0.9082
11778TIP3   OH256824   6.474   4.616   2.723  0.3405 -0.3787  0.1372
11778TIP3    H156825   6.556   4.597   2.678  1.2090  0.7419  1.1756
11778TIP3    H256826   6.499   4.628   2.815 -0.9687  0.0605  0.4573
11779TIP3   OH256827   2.928   0.268  13.697 -0.8067  0.5854  0.8113
11779TIP3    H156828   2.945   0.249  13.789 -2.4977 -0.0672  1.0269
11779TIP3    H256829   2.969   0.195  13.650  1.1403  1.5624  0.9214
11780TIP3   OH256830   5.912   6.165  15.796 -0.3041  0.6038  0.2151
11780TIP3    H156831   5.926   6.218  15.874  0.2600  1.0019 -0.1486
11780TIP3    H256832   5.950   6.216  15.725  0.5621 -0.4248 -0.0959
11781TIP3   OH256833   2.757   3.232   5.053  0.0306  0.4511 -0.3427
11781TIP3    H156834   2.826   3.174   5.085 -0.2214 -0.0896 -0.7550
11781TIP3    H256835   2.690   3.173   5.018 -1.6003  0.8668  1.8792
11782TIP3   OH256836   4.472   2.249   2.386  0.3377 -0.1143  0.7032
11782TIP3    H156837   4.397   2.192   2.369  0.3923 -0.1762  0.6693
11782TIP3    H256838   4.435   2.324   2.431 -0.2363  1.1928 -1.7440
11783TIP3   OH256839   0.690   2.649   5.500 -0.1640  0.4648 -0.3948
11783TIP3    H156840   0.701   2.619   5.409  0.6761  0.7037 -0.3809
11783TIP3    H256841   0.759   2.714   5.512  0.4980 -0.4248  0.7822
11784TIP3   OH256842   3.162   6.162   2.611 -0.3505  0.0537 -0.2418
11784TIP3    H156843   3.156   6.220   2.687  0.1582 -0.2446  0.0298
11784TIP3    H256844   3.251   6.126   2.614 -0.4557 -0.2699 -0.7522
11785TIP3   OH256845   4.592   0.209  16.846  0.7453 -0.1812  0.0882
11785TIP3    H156846   4.555   0.298  16.848  0.2423 -0.3871  0.1545
11785TIP3    H256847   4.648   0.205  16.923  1.6929  0.4630 -0.5382
11786TIP3   OH256848   6.446   3.649  11.166  0.2791  0.4677  0.6525
11786TIP3    H156849   6.510   3.588  11.128 -0.2604  1.4151 -1.9056
11786TIP3    H256850   6.477   3.736  11.141 -1.1200  1.0383  0.8058
11787TIP3   OH256851   6.642   4.097  12.239  0.7664 -0.4460  0.0440
11787TIP3    H156852   6.608   4.020  12.283 -0.3100 -0.3545 -0.6020
11787TIP3    H256853   6.683   4.064  12.159  0.9266 -0.4081  0.1088
11788TIP3   OH256854   1.606   0.275  11.716  0.1182 -0.3752 -0.1643
11788TIP3    H156855   1.690   0.308  11.682  0.0826 -1.4957 -1.4277
11788TIP3    H256856   1.596   0.318  11.801 -0.0496  3.0511 -1.7373
11789TIP3   OH256857   3.803   5.972  17.027 -0.1677 -0.3173  0.3206
11789TIP3    H156858   3.872   5.993  17.089  0.0768  2.2519 -0.6746
11789TIP3    H256859   3.837   5.899  16.976  1.3001  0.0925  0.6773
11790TIP3   OH256860   2.229   3.114  17.113 -0.0229 -0.4903  0.2351
11790TIP3    H156861   2.162   3.164  17.160  2.0806  1.5220  1.2612
11790TIP3    H256862   2.179   3.053  17.058 -2.6442  0.0986  1.8015
11791TIP3   OH256863   2.713   3.088  15.868  0.1032  0.3046 -0.2615
11791TIP3    H156864   2.680   3.020  15.927 -1.7416  0.9480 -0.4906
11791TIP3    H256865   2.636   3.141  15.848  0.6938  0.2374 -3.0682
11792TIP3   OH256866   1.535   2.325   0.369  0.4193 -0.9733 -0.2035
11792TIP3    H156867   1.505   2.234   0.366 -0.9360 -0.5576  0.0760
11792TIP3    H256868   1.549   2.343   0.462  2.6745 -1.4694 -0.3720
11793TIP3   OH256869   5.996   0.670  14.540 -0.0860  0.3092  0.5275
11793TIP3    H156870   6.078   0.631  14.508  1.1041  2.2012  1.0909
11793TIP3    H256871   5.940   0.676  14.462 -0.6885 -3.1492  0.5505
11794TIP3   OH256872   0.254   3.926   4.611  0.1729 -0.0229  0.2998
11794TIP3    H156873   0.160   3.934   4.629 -0.4297 -0.0029 -2.4925
11794TIP3    H256874   0.291   3.890   4.692 -2.4601 -1.3953  0.9920
11795TIP3   OH256875   4.711   4.061  14.877 -1.1401 -0.6044 -0.0104
11795TIP3    H156876   4.703   3.973  14.912  0.3899 -0.5134  0.6155
11795TIP3    H256877   4.687   4.052  14.784  1.0157 -2.1359 -0.5040
11796TIP3   OH256878   1.190   2.261  14.301  0.2807 -0.2783 -0.2667
11796TIP3    H156879   1.159   2.352  14.308  0.9120 -0.0884  0.1151
11796TIP3    H256880   1.121   2.217  14.252 -0.1911  0.3335 -0.1740
11797TIP3   OH256881   2.828   4.932  10.590 -0.3458 -0.4481 -0.1569
11797TIP3    H156882   2.877   4.994  10.536  0.9817 -1.1997  0.1584
11797TIP3    H256883   2.788   4.872  10.527  1.4062 -1.4779 -0.3511
11798TIP3   OH256884   2.638   0.665  13.472  0.0251 -1.0342 -0.0041
11798TIP3    H156885   2.546   0.683  13.450 -0.6590 -2.7450  1.2423
11798TIP3    H256886   2.659   0.587  13.422  0.7549 -0.7802 -0.0988
11799TIP3   OH256887   3.642   0.741  10.646  0.0100 -0.2320 -0.3822
11799TIP3    H156888   3.570   0.729  10.584 -0.3925 -2.0685  0.3790
11799TIP3    H256889   3.720   0.747  10.590 -0.2384 -2.6770 -1.1132
11800TIP3   OH256890   6.300   4.153   3.798 -0.2117  0.3187  0.6571
11800TIP3    H156891   6.333   4.067   3.770  2.3972  1.0713  1.1754
11800TIP3    H256892   6.228   4.171   3.737  0.2610 -1.5005 -0.5432
11801TIP3   OH256893   0.738   3.954   4.903 -0.0749 -0.2869  0.3170
11801TIP3    H156894   0.815   3.914   4.943 -0.4479 -1.0762  0.2556
11801TIP3    H256895   0.736   4.043   4.940 -0.0810 -0.7984  1.6112
11802TIP3   OH256896   1.506   0.631  13.122  0.2556  0.0708 -0.4771
11802TIP3    H156897   1.533   0.564  13.185  1.4810  0.1400 -0.9079
11802TIP3    H256898   1.413   0.645  13.141  0.6478  0.3330  1.5503
11803TIP3   OH256899   6.212   1.419  12.692 -0.2833  0.2024  0.7974
11803TIP3    H156900   6.167   1.398  12.610  1.7779 -1.0398 -0.1030
11803TIP3    H256901   6.225   1.514  12.689  0.5708  0.0580 -0.7757
11804TIP3   OH256902   1.898   3.372   1.125  0.0099  0.2175  0.2205
11804TIP3    H156903   1.946   3.421   1.058  1.3887 -0.9804  0.3020
11804TIP3    H256904   1.910   3.422   1.205  0.8434  0.1033  0.1698
11805TIP3   OH256905   1.870   2.316  14.670 -0.4325 -0.2514  0.1771
11805TIP3    H156906   1.815   2.303  14.747 -0.1795 -0.3892  0.3379
11805TIP3    H256907   1.922   2.394  14.691 -2.1984  1.3101 -0.9347
11806TIP3   OH256908   5.212   1.320   0.510 -0.0355 -0.1942 -0.5541
11806TIP3    H156909   5.223   1.264   0.433  0.6231 -2.1393  0.8713
11806TIP3    H256910   5.214   1.409   0.475  3.2490 -0.8553 -2.5062
11807TIP3   OH256911   1.831   0.643   0.570  0.2650 -0.2787 -0.8981
11807TIP3    H156912   1.897   0.618   0.635  1.2096  1.4477 -1.1248
11807TIP3    H256913   1.881   0.686   0.501 -1.0691  0.9092 -1.1681
11808TIP3   OH256914   5.504   6.240  14.492  0.1679 -0.0493 -0.0886
11808TIP3    H156915   5.493   6.150  14.462 -1.1900  0.3766 -0.9202
11808TIP3    H256916   5.581   6.236  14.549  0.9748 -1.4531 -1.2197
11809TIP3   OH256917   2.224   3.491   0.709 -0.3170 -0.1917 -0.3326
11809TIP3    H156918   2.219   3.444   0.626  0.8911  0.1127 -0.5807
11809TIP3    H256919   2.273   3.432   0.767 -0.9795 -0.3162  0.1260
11810TIP3   OH256920   6.659   4.766   2.210  0.0687  0.7061 -0.3191
11810TIP3    H156921   6.676   4.701   2.142 -2.1446  0.6648 -0.9029
11810TIP3    H256922   6.676   4.720   2.292  0.1520 -0.0804 -0.7695
11811TIP3   OH256923   1.953   6.234   1.853  0.0021 -0.4782  0.0983
11811TIP3    H156924   1.905   6.281   1.921  2.2625  0.3754  1.1837
11811TIP3    H256925   1.970   6.148   1.892 -2.6354 -1.7162 -1.2299
11812TIP3   OH256926   2.810   4.740   5.033  0.1507  0.3352 -0.3709
11812TIP3    H156927   2.769   4.787   5.106  0.4303  1.8464 -1.1608
11812TIP3    H256928   2.871   4.679   5.075  0.6660  1.5210  0.6567
11813TIP3   OH256929   3.290   0.422  10.715  0.3112  0.4426 -0.0229
11813TIP3    H156930   3.254   0.486  10.654 -0.6702 -0.3798 -0.3417
11813TIP3    H256931   3.217   0.361  10.731  1.3855 -0.9392 -0.2120
11814TIP3   OH256932   2.446   2.090  16.270  0.0489 -0.2687 -0.3705
11814TIP3    H156933   2.488   2.097  16.355  1.5768  2.9095 -1.2317
11814TIP3    H256934   2.510   2.045  16.215 -0.7497 -1.9102 -0.0067
11815TIP3   OH256935   5.790   5.395   5.947 -0.0733  0.4956  0.4707
11815TIP3    H156936   5.762   5.444   6.024 -0.6209 -0.1114  0.6661
11815TIP3    H256937   5.712   5.346   5.920  0.4007 -0.0979  0.1546
11816TIP3   OH256938   1.225   3.404   5.340 -0.2777  0.6313  0.4123
11816TIP3    H156939   1.174   3.485   5.340 -1.3857 -0.0294  2.1237
11816TIP3    H256940   1.175   3.343   5.394  0.8734 -1.0014 -0.2738
11817TIP3   OH256941   3.231   2.892  15.753  0.1576 -0.4352  0.4690
11817TIP3    H156942   3.317   2.914  15.718 -1.5742  2.7725 -2.3825
11817TIP3    H256943   3.191   2.976  15.775 -2.1378 -1.8242  2.1505
11818TIP3   OH256944   5.526   2.872  16.061 -0.2859  0.2548 -0.0999
11818TIP3    H156945   5.458   2.875  16.128 -0.3913 -2.4273  0.0135
11818TIP3    H256946   5.481   2.844  15.982  0.1320  1.7987 -0.9293
11819TIP3   OH256947   0.744   0.207  13.975  0.3586 -0.3182 -0.4218
11819TIP3    H156948   0.770   0.202  14.067  1.0946  0.3316 -0.5909
11819TIP3    H256949   0.659   0.252  13.977 -0.1592 -1.2833  0.0187
11820TIP3   OH256950   1.620   3.266  14.373 -0.2045  0.2201  0.4096
11820TIP3    H156951   1.542   3.320  14.358  0.3378  1.7048  2.4222
11820TIP3    H256952   1.589   3.194  14.428 -0.0311  1.3716  2.0798
11821TIP3   OH256953   0.794   1.544   5.802 -0.3340  0.2239  0.6183
11821TIP3    H156954   0.779   1.600   5.877 -0.8024  0.6030  0.2450
11821TIP3    H256955   0.861   1.589   5.751 -0.4415  0.2583  0.5076
11822TIP3   OH256956   5.203   5.737  16.339  0.5068  0.1387  0.0361
11822TIP3    H156957   5.161   5.805  16.286 -0.3076  0.1713  0.6992
11822TIP3    H256958   5.155   5.658  16.319 -1.4369  0.5826  2.4582
11823TIP3   OH256959   2.881   0.834   2.802  0.2487  0.0147  0.0819
11823TIP3    H156960   2.883   0.819   2.708 -1.0750  0.5766 -0.0592
11823TIP3    H256961   2.821   0.769   2.836  0.1904  0.2533  0.4449
11824TIP3   OH256962   1.210   1.280  15.898  0.3186 -0.1311  0.0116
11824TIP3    H156963   1.168   1.243  15.975 -0.0720 -0.1216 -0.1950
11824TIP3    H256964   1.242   1.205  15.849  2.5463 -0.0863  1.2608
11825TIP3   OH256965   3.167   6.457  11.424 -0.3434 -0.5015  0.5482
11825TIP3    H156966   3.213   6.484  11.503  1.2770 -0.6284 -0.2996
11825TIP3    H256967   3.232   6.467  11.354 -1.8774  0.1229 -0.8622
11826TIP3   OH256968   2.795   5.868  11.967  0.0501  0.1912  0.5707
11826TIP3    H156969   2.833   5.932  12.027 -1.4700  1.3794  0.3186
11826TIP3    H256970   2.791   5.914  11.883 -0.8688 -0.3179  0.3300
11827TIP3   OH256971   0.867   5.139   4.715 -0.4959 -0.3694  0.0123
11827TIP3    H156972   0.907   5.099   4.792 -0.8719  0.3444  0.5961
11827TIP3    H256973   0.850   5.229   4.741 -3.6031 -0.9115  0.2530
11828TIP3   OH256974   6.812   6.370   5.518 -0.4767 -0.8195 -0.4222
11828TIP3    H156975   6.777   6.293   5.474 -1.2536 -1.8360  1.7976
11828TIP3    H256976   6.734   6.416   5.551  0.0739 -0.5898  0.6074
11829TIP3   OH256977   5.997   5.490   0.413  0.1829 -0.3077  0.0639
11829TIP3    H156978   5.993   5.491   0.509 -0.2615 -1.2002  0.0590
11829TIP3    H256979   5.930   5.428   0.386  0.8716 -0.6979 -0.8021
11830TIP3   OH256980   0.608   6.766   1.813 -0.4694  0.2025 -0.5894
11830TIP3    H156981   0.561   6.689   1.781  1.9467 -0.9340 -1.7395
11830TIP3    H256982   0.673   6.783   1.745  1.7699  0.6811  1.5270
11831TIP3   OH256983   1.569   0.837  12.894 -0.8754  0.2390 -0.0418
11831TIP3    H156984   1.519   0.775  12.947 -0.7734  0.9540  0.9110
11831TIP3    H256985   1.582   0.913  12.951  2.1852 -0.2898  0.1444
11832TIP3   OH256986   2.884   0.087   1.738 -0.2120  0.2998 -0.6241
11832TIP3    H156987   2.815   0.153   1.730 -0.0161  0.6895  0.6403
11832TIP3    H256988   2.842   0.004   1.716 -1.1125  0.5172  0.2378
11833TIP3   OH256989   2.328   2.492   2.706 -0.5949 -1.6717 -0.5215
11833TIP3    H156990   2.274   2.452   2.638  0.7606 -1.0422 -2.0394
11833TIP3    H256991   2.409   2.440   2.707 -0.1557 -1.0037 -0.1826
11834TIP3   OH256992   1.865   3.634  14.231 -0.8924  0.3246  0.0895
11834TIP3    H156993   1.831   3.553  14.194 -1.4734 -0.3633  2.0192
11834TIP3    H256994   1.924   3.606  14.301 -0.3736  1.5681  0.1783
11835TIP3   OH256995   5.901   4.149  16.380 -0.0289  0.4007  0.7663
11835TIP3    H156996   5.985   4.194  16.369 -0.4872  1.0526 -0.0989
11835TIP3    H256997   5.883   4.155  16.474  0.7171  0.5681  0.9075
11836TIP3   OH256998   6.564   2.179   0.382 -0.1943  0.1786  0.0471
11836TIP3    H156999   6.574   2.245   0.450 -1.0420 -0.2871  0.6523
11836TIP3    H257000   6.478   2.140   0.399  0.2603 -1.0474 -0.3127
11837TIP3   OH257001   3.832   6.710  14.136  0.2317  0.5524 -0.5290
11837TIP3    H157002   3.826   6.624  14.094  0.0326  0.8035 -1.0243
11837TIP3    H257003   3.919   6.711  14.176  0.2805  0.1652 -0.6211
11838TIP3   OH257004   4.923   4.250  10.880  0.3896  0.0615  0.2188
11838TIP3    H157005   4.880   4.236  10.795  3.0891  1.3488 -1.4988
11838TIP3    H257006   4.866   4.313  10.925 -0.4129  0.4330 -1.2463
11839TIP3   OH257007   5.346   0.086   0.718 -0.0727  0.1869  0.2999
11839TIP3    H157008   5.386   0.001   0.736  2.5991  1.1013 -0.8253
11839TIP3    H257009   5.279   0.067   0.652  1.0055 -0.9732 -0.5111
11840TIP3   OH257010   0.301   2.056  11.375  0.1095 -0.5601  0.4838
11840TIP3    H157011   0.213   2.052  11.413  0.5326 -0.5622  1.4746
11840TIP3    H257012   0.300   2.136  11.322  0.0521  0.3838  1.8689
11841TIP3   OH257013   1.678   6.477  11.175  0.3442  0.4671  0.2218
11841TIP3    H157014   1.733   6.461  11.252  1.1683  1.7768 -0.0663
11841TIP3    H257015   1.596   6.431  11.194 -0.1228  2.1211  2.6484
11842TIP3   OH257016   2.491   3.261  13.936  0.0293  0.4012 -0.1453
11842TIP3    H157017   2.450   3.339  13.972 -0.6922  0.5091 -1.1448
11842TIP3    H257018   2.566   3.294  13.886 -1.0524  0.6397 -1.7060
11843TIP3   OH257019   6.549   1.724   3.202 -0.0835  0.1585  0.3909
11843TIP3    H157020   6.508   1.707   3.287 -1.5553  0.4957 -0.2106
11843TIP3    H257021   6.553   1.820   3.196  1.3024  0.1363  0.6431
11844TIP3   OH257022   4.501   2.234  11.427 -0.2037  0.1458  0.4687
11844TIP3    H157023   4.539   2.155  11.388  0.2352  0.7531 -0.3659
11844TIP3    H257024   4.438   2.201  11.492 -0.0700 -0.8828  0.0932
11845TIP3   OH257025   6.256   4.365   4.763  0.3422  0.1441 -0.2793
11845TIP3    H157026   6.288   4.275   4.757 -0.3929 -0.3018  1.8157
11845TIP3    H257027   6.168   4.358   4.799  0.4461  1.7405  0.3873
11846TIP3   OH257028   5.111   1.264  16.960 -0.4970  0.2754  0.3038
11846TIP3    H157029   5.184   1.299  16.910 -1.9283  0.5888 -1.7010
11846TIP3    H257030   5.081   1.189  16.908 -0.8773 -0.5598  1.6934
11847TIP3   OH257031   3.018   3.198   5.725 -0.1939 -0.0787 -0.0019
11847TIP3    H157032   3.070   3.267   5.684 -0.5184 -0.3466 -0.9014
11847TIP3    H257033   2.990   3.235   5.808 -1.4970  1.4155 -1.0508
11848TIP3   OH257034   5.214   6.552   0.889  0.0828  0.2028 -1.0096
11848TIP3    H157035   5.286   6.515   0.839 -0.7069 -0.8769 -1.3884
11848TIP3    H257036   5.137   6.505   0.859 -1.0284  2.3061 -1.6394
11849TIP3   OH257037   2.747   0.732  15.365  0.0462 -0.0696 -0.5640
11849TIP3    H157038   2.835   0.701  15.343  0.5120  0.7477  0.1332
11849TIP3    H257039   2.744   0.822  15.332  0.4578  0.8850  1.8521
11850TIP3   OH257040   2.328   4.869  12.485 -0.7268  0.0076 -0.0183
11850TIP3    H157041   2.356   4.951  12.525 -0.8633  0.0192  0.0533
11850TIP3    H257042   2.234   4.881  12.470 -0.5958  0.1730 -0.7368
11851TIP3   OH257043   3.433   4.629   0.010 -0.2372  0.0226  0.2581
11851TIP3    H157044   3.352   4.642   0.060 -0.1714 -1.8991  0.9395
11851TIP3    H257045   3.500   4.673   0.062 -0.7436  1.2435 -0.0850
11852TIP3   OH257046   6.399   5.105  15.071  0.0536 -0.5150 -0.5242
11852TIP3    H157047   6.486   5.101  15.112  0.5135 -2.7581 -1.5238
11852TIP3    H257048   6.348   5.161  15.129  1.4750 -1.1803  1.4985
11853TIP3   OH257049   2.996   5.660  13.268 -0.2604 -0.6610  0.0296
11853TIP3    H157050   3.064   5.715  13.308 -0.3498 -0.8662  0.4581
11853TIP3    H257051   2.925   5.658  13.332 -0.3865 -1.0277 -0.1207
11854TIP3   OH257052   2.653   6.610  13.805  0.1132  0.0220  0.6890
11854TIP3    H157053   2.609   6.645  13.728 -0.0644  0.8581  1.1592
11854TIP3    H257054   2.595   6.540  13.837  1.2321 -1.8801 -1.1782
11855TIP3   OH257055   0.728   5.391  11.793  0.0043  0.3952  0.0625
11855TIP3    H157056   0.677   5.471  11.806 -1.5306 -0.3380 -1.1167
11855TIP3    H257057   0.813   5.421  11.760 -1.3024  1.5199 -2.5844
11856TIP3   OH257058   0.857   2.602  16.026  0.4958  0.5513 -0.1039
11856TIP3    H157059   0.900   2.653  15.957 -1.5255  0.9918 -1.1157
11856TIP3    H257060   0.915   2.527  16.040  1.4935  1.0198 -1.5048
11857TIP3   OH257061   3.959   2.807  12.050 -0.2469 -0.2585  0.3429
11857TIP3    H157062   3.918   2.867  12.111 -0.0657  0.8302 -0.5767
11857TIP3    H257063   3.982   2.861  11.974 -0.8217 -1.6219 -0.8633
11858TIP3   OH257064   3.361   5.186  12.393 -0.4645  0.2025 -0.1394
11858TIP3    H157065   3.382   5.096  12.366 -1.7977  0.0660 -0.7562
11858TIP3    H257066   3.287   5.211  12.339 -0.0606  1.7234 -0.0267
11859TIP3   OH257067   5.379   4.260  15.192 -0.2911  0.2171 -0.0070
11859TIP3    H157068   5.451   4.312  15.229  1.0075 -1.8612  0.5791
11859TIP3    H257069   5.421   4.207  15.124 -1.9140  1.1466 -1.8262
11860TIP3   OH257070   4.809   2.881  15.031  0.0439 -0.6479 -0.0733
11860TIP3    H157071   4.779   2.797  14.997 -0.2062 -1.1694  1.3638
11860TIP3    H257072   4.732   2.937  15.029  0.0315 -0.6742 -0.3590
11861TIP3   OH257073   2.650   6.044  11.751 -0.0914  0.3599  0.3203
11861TIP3    H157074   2.573   6.001  11.714  1.0735  0.8569 -2.9635
11861TIP3    H257075   2.636   6.137  11.735  0.0357  0.7432  2.1585
11862TIP3   OH257076   1.255   5.396   2.377 -0.6729 -0.4421 -0.4102
11862TIP3    H157077   1.253   5.381   2.283  0.2137 -0.7347 -0.3919
11862TIP3    H257078   1.251   5.308   2.415 -0.5201 -0.3519 -0.1843
11863TIP3   OH257079   0.717   3.589  14.035  0.5683  0.4812 -0.4464
11863TIP3    H157080   0.656   3.563  13.966  1.5350  0.5188 -1.3171
11863TIP3    H257081   0.722   3.684  14.029  0.0942  0.5599  0.1749
11864TIP3   OH257082   3.987   2.017   4.696 -0.6217  0.3710 -0.2285
11864TIP3    H157083   4.005   1.991   4.605 -3.1827  0.8977 -0.9716
11864TIP3    H257084   4.004   1.938   4.747  1.5454  0.2649 -1.0351
11865TIP3   OH257085   6.059   2.386  15.597  0.4658 -0.1856 -0.8143
11865TIP3    H157086   6.064   2.332  15.677 -0.5160 -2.3131 -2.1036
11865TIP3    H257087   6.147   2.379  15.559  0.2805 -1.1003 -1.0917
11866TIP3   OH257088   6.526   2.537  12.617  0.1090 -0.0186 -0.3983
11866TIP3    H157089   6.447   2.572  12.660  0.7161  0.6999  0.1568
11866TIP3    H257090   6.558   2.610  12.563 -0.8404 -1.0151 -2.4219
11867TIP3   OH257091   2.173   5.606   0.490 -0.7672 -0.1015  0.3067
11867TIP3    H157092   2.094   5.555   0.508 -0.2095 -0.9377  0.4349
11867TIP3    H257093   2.243   5.559   0.535 -0.0035 -0.0256 -0.7611
11868TIP3   OH257094   5.468   6.533  17.169 -0.1716 -0.5913  0.0352
11868TIP3    H157095   5.535   6.466  17.182 -0.5554 -0.7565  1.2038
11868TIP3    H257096   5.417   6.533  17.250 -0.2005  1.0887  0.0495
11869TIP3   OH257097   5.557   6.325   4.436 -0.0044 -0.7368  0.7052
11869TIP3    H157098   5.534   6.324   4.529  1.9654  0.3305  1.2506
11869TIP3    H257099   5.549   6.416   4.410  1.2593 -0.7187  0.3240
11870TIP3   OH257100   4.438   3.871  17.146 -0.5453 -0.2610  0.3325
11870TIP3    H157101   4.468   3.781  17.134 -0.5689 -0.3007  0.5599
11870TIP3    H257102   4.380   3.867  17.221  0.6157  0.1869  1.2946
11871TIP3   OH257103   6.183   1.880  12.234 -0.7318 -0.1418  0.3946
11871TIP3    H157104   6.274   1.852  12.238 -0.2682  1.0518 -0.9899
11871TIP3    H257105   6.185   1.973  12.256 -1.2822  0.4406 -1.7883
11872TIP3   OH257106   2.168   0.911   2.676  0.1944 -0.1177 -0.7969
11872TIP3    H157107   2.099   0.977   2.666  0.8466  0.4279 -1.9097
11872TIP3    H257108   2.227   0.947   2.742  1.2377  1.0763 -2.2998
11873TIP3   OH257109   1.914   5.532  13.636  0.1231  0.4392 -0.2691
11873TIP3    H157110   1.914   5.436  13.645  0.1546  0.3779 -0.8870
11873TIP3    H257111   1.834   5.560  13.681  0.0843  0.1183 -0.1339
11874TIP3   OH257112   5.104   0.129  14.796  0.1659  0.5752 -0.2069
11874TIP3    H157113   5.113   0.188  14.871 -2.1247  0.9711 -0.1805
11874TIP3    H257114   5.060   0.052  14.831 -1.6958  1.1105 -1.2551
11875TIP3   OH257115   5.772   3.227   5.119  0.1810  0.3276 -0.6048
11875TIP3    H157116   5.765   3.320   5.141  0.5239  0.0914  0.5347
11875TIP3    H257117   5.744   3.181   5.198  1.4371 -0.5544 -0.6560
11876TIP3   OH257118   6.705   5.025  15.796 -0.3759  0.3790 -0.3060
11876TIP3    H157119   6.788   5.006  15.751 -1.0028 -1.1461 -0.8931
11876TIP3    H257120   6.693   4.950  15.855 -1.1638  0.7715  0.0386
11877TIP3   OH257121   6.754   6.240  15.309  0.0827  0.0630  0.1132
11877TIP3    H157122   6.823   6.235  15.376  0.4161 -0.3513 -0.2558
11877TIP3    H257123   6.697   6.166  15.327  1.4770 -1.4986 -1.4630
11878TIP3   OH257124   1.660   5.884  14.327  0.0806 -0.0454  0.4594
11878TIP3    H157125   1.692   5.837  14.251 -0.6862  0.4491 -0.1881
11878TIP3    H257126   1.569   5.854  14.337  0.5387 -1.0596  1.9517
11879TIP3   OH257127   5.148   3.015  11.693 -0.1783 -0.6123 -0.6631
11879TIP3    H157128   5.178   2.988  11.779  0.3499  1.7342 -0.0448
11879TIP3    H257129   5.053   3.026  11.703 -0.0049  0.4977 -0.0998
11880TIP3   OH257130   2.932   2.617  15.136 -0.1979  0.1638  0.1640
11880TIP3    H157131   2.956   2.685  15.072  0.2016  0.8267  1.0016
11880TIP3    H257132   3.001   2.552  15.128 -0.4712 -0.0584 -0.4966
11881TIP3   OH257133   5.841   6.135  15.350 -0.4038  0.6727  0.4437
11881TIP3    H157134   5.815   6.050  15.386 -0.3324  0.2501 -0.4638
11881TIP3    H257135   5.760   6.175  15.320 -0.4810  1.0843  1.1776
11882TIP3   OH257136   0.989   5.304   3.023 -0.3313 -0.3661 -0.3247
11882TIP3    H157137   1.015   5.390   3.057  0.9835 -0.9699  0.2956
11882TIP3    H257138   0.931   5.268   3.090  1.1992 -1.0002  0.7338
11883TIP3   OH257139   4.204   0.653   4.659 -0.1332 -0.2517 -0.2581
11883TIP3    H157140   4.228   0.728   4.714  0.2963  0.4800 -1.4012
11883TIP3    H257141   4.248   0.579   4.699  1.6379  0.5682 -0.5746
11884TIP3   OH257142   1.295   3.202   4.080 -0.1362 -0.0279 -0.0172
11884TIP3    H157143   1.280   3.112   4.109  2.1310 -0.9300 -1.4142
11884TIP3    H257144   1.389   3.216   4.092 -0.5087  2.3449  0.6034
11885TIP3   OH257145   3.906   1.240  15.117 -0.0931  0.3318 -0.5721
11885TIP3    H157146   3.815   1.263  15.135 -0.3654 -2.2697  2.1125
11885TIP3    H257147   3.956   1.313  15.154 -0.9872  1.5080 -1.5643
11886TIP3   OH257148   3.090   4.736   5.891  0.5541 -0.4595  0.3604
11886TIP3    H157149   3.088   4.678   5.967 -1.3943  0.6453  1.2159
11886TIP3    H257150   3.036   4.692   5.826 -1.1833  0.4416  1.1184
11887TIP3   OH257151   2.169   4.280  13.275 -0.2588  0.2063  0.0702
11887TIP3    H157152   2.148   4.304  13.185 -0.0045 -0.1589 -0.0869
11887TIP3    H257153   2.145   4.188  13.282 -0.6117  0.3242  0.4802
11888TIP3   OH257154   4.311   0.536  15.414  0.0793  0.5400  0.1591
11888TIP3    H157155   4.281   0.446  15.401  0.9149  0.3790 -0.7513
11888TIP3    H257156   4.309   0.547  15.509 -2.9358  0.6050  0.1841
11889TIP3   OH257157   0.068   6.173   2.717 -0.3244 -0.1749 -0.2575
11889TIP3    H157158   0.050   6.258   2.678 -3.2778 -0.4310  0.3385
11889TIP3    H257159   0.103   6.120   2.644  0.0123  1.0522 -1.0180
11890TIP3   OH257160   1.989   2.257  11.595  0.2841  0.1906  0.5433
11890TIP3    H157161   1.936   2.183  11.627  1.2514 -1.0645 -0.6541
11890TIP3    H257162   2.078   2.236  11.623  0.6122  0.7435 -0.0713
11891TIP3   OH257163   2.364   5.421  16.164 -0.5206  0.2480 -0.3276
11891TIP3    H157164   2.300   5.450  16.099 -2.0041  0.9692  1.3746
11891TIP3    H257165   2.314   5.368  16.226  0.5483  0.6285  0.9200
11892TIP3   OH257166   2.195   3.488  17.273 -0.4554 -0.0669  0.2716
11892TIP3    H157167   2.170   3.398  17.294  0.1990 -0.0639  1.1436
11892TIP3    H257168   2.114   3.538  17.278 -0.5268 -0.2965  1.6349
11893TIP3   OH257169   5.151   0.936   1.483 -0.5044  0.4296 -0.1631
11893TIP3    H157170   5.130   0.857   1.432 -0.6691  0.7863 -0.6551
11893TIP3    H257171   5.184   0.903   1.567 -0.6093 -0.1612 -0.3536
11894TIP3   OH257172   4.671   4.960   0.998 -0.5202  0.1631 -0.0219
11894TIP3    H157173   4.741   4.914   1.044 -1.9952 -0.5606  1.6031
11894TIP3    H257174   4.596   4.902   1.005 -1.5603  1.3613 -0.8685
11895TIP3   OH257175   2.533   1.626  16.473  0.1448 -0.2727  0.0473
11895TIP3    H157176   2.498   1.661  16.392  0.1477  1.2514  0.6670
11895TIP3    H257177   2.574   1.543  16.448 -1.0366 -0.4916 -1.2456
11896TIP3   OH257178   3.437   2.425  14.236  0.2559  0.1106  0.8610
11896TIP3    H157179   3.351   2.429  14.278 -0.4820  0.4271 -0.6166
11896TIP3    H257180   3.418   2.423  14.142  1.9035  2.1726  0.4132
11897TIP3   OH257181   6.078   1.185  15.698 -0.6509 -0.6811 -0.1125
11897TIP3    H157182   6.145   1.221  15.640 -1.0783  1.6452  0.7557
11897TIP3    H257183   6.087   1.090  15.688  3.6304 -0.5765  0.9259
11898TIP3   OH257184   2.533   4.667  16.269 -0.0171 -0.6908 -0.1417
11898TIP3    H157185   2.438   4.656  16.271 -0.2670  1.2029  0.3257
11898TIP3    H257186   2.566   4.602  16.331 -1.3028  0.8301  2.2770
11899TIP3   OH257187   3.772   3.440  14.755  0.0604  0.4196  0.2469
11899TIP3    H157188   3.848   3.424  14.699 -0.5805  1.3610 -0.9544
11899TIP3    H257189   3.788   3.527  14.792 -1.3006  1.5252 -1.5946
11900TIP3   OH257190   3.586   0.244  15.758 -0.3040 -0.9268 -0.0582
11900TIP3    H157191   3.681   0.257  15.765 -0.3578 -0.8275  0.6007
11900TIP3    H257192   3.562   0.204  15.842 -1.1785  1.1140  0.7056
11901TIP3   OH257193   0.794   6.550   0.026  0.1749  0.0738 -0.0553
11901TIP3    H157194   0.812   6.543  -0.068 -1.1201 -0.0252 -0.3115
11901TIP3    H257195   0.856   6.616   0.057  2.2782 -1.5821 -0.4821
11902TIP3   OH257196   5.429   6.571  15.049 -0.3914 -0.3744  0.3555
11902TIP3    H157197   5.394   6.649  15.005 -0.3797 -0.5843 -0.0397
11902TIP3    H257198   5.470   6.604  15.128  0.1504  0.0969 -0.1113
11903TIP3   OH257199   4.218   3.258  13.305 -0.0060  0.2856  0.1117
11903TIP3    H157200   4.234   3.348  13.334 -2.7069  1.3048 -1.2328
11903TIP3    H257201   4.306   3.223  13.289  1.2553  1.9392  2.6252
11904TIP3   OH257202   4.346   3.739  16.690  0.2737 -0.1911 -0.1151
11904TIP3    H157203   4.329   3.787  16.609  0.1666  0.4832  0.3054
11904TIP3    H257204   4.276   3.766  16.750 -0.0117 -1.1553  0.0110
11905TIP3   OH257205   4.446   0.073   1.963 -0.4187 -0.3249 -1.0576
11905TIP3    H157206   4.523   0.070   2.019 -1.3073  1.6140  0.3643
11905TIP3    H257207   4.468   0.137   1.895 -1.2609  1.3614  0.2060
11906TIP3   OH257208   4.903   3.249   1.413  0.2976 -0.1044  0.0191
11906TIP3    H157209   4.851   3.264   1.333  0.4076  0.2283  0.0101
11906TIP3    H257210   4.985   3.295   1.397  0.6853 -0.8190 -0.0576
11907TIP3   OH257211   5.728   5.422   2.251  0.3715  0.1432 -0.1040
11907TIP3    H157212   5.697   5.337   2.284 -0.1935  1.0056  1.7339
11907TIP3    H257213   5.659   5.484   2.274 -0.3904  0.8136 -3.6304
11908TIP3   OH257214   4.079   2.840  14.710 -0.1497 -0.2303  0.7446
11908TIP3    H157215   4.035   2.770  14.662 -0.4027  1.8560 -2.3922
11908TIP3    H257216   4.025   2.917  14.693  1.8086  1.3377  1.3301
11909TIP3   OH257217   2.749   2.117   5.585 -0.0525  0.3502  0.0662
11909TIP3    H157218   2.836   2.081   5.567  0.3873  1.2601  0.3408
11909TIP3    H257219   2.721   2.071   5.665 -0.2393 -0.6262 -0.5389
11910TIP3   OH257220   3.024   2.648  16.158  0.0700  0.0033  0.0302
11910TIP3    H157221   2.941   2.602  16.150  0.0413 -0.1347  0.9543
11910TIP3    H257222   3.035   2.661  16.253  0.1953  1.6676 -0.1862
11911TIP3   OH257223   0.282   5.606   0.908 -0.4277  0.3181 -0.3746
11911TIP3    H157224   0.214   5.554   0.952 -0.3143 -0.3379 -0.9693
11911TIP3    H257225   0.321   5.657   0.979 -1.5610  0.7389 -0.0208
11912TIP3   OH257226   1.406   2.240  13.728  0.2407  0.3673 -0.3267
11912TIP3    H157227   1.424   2.304  13.797  0.7564  0.8641 -0.9086
11912TIP3    H257228   1.492   2.219  13.692 -0.1082  0.9062 -1.5092
11913TIP3   OH257229   1.288   4.986   2.663  0.1597 -0.1929 -0.1316
11913TIP3    H157230   1.348   4.996   2.737 -1.0711 -0.8089  0.9814
11913TIP3    H257231   1.209   5.033   2.689 -0.7678 -1.5159 -0.4720
11914TIP3   OH257232   1.643   1.894   1.754  0.3431 -0.3562  0.1998
11914TIP3    H157233   1.702   1.958   1.793 -1.3701  0.5223  1.4495
11914TIP3    H257234   1.701   1.835   1.705  1.9526  2.8127 -2.1071
11915TIP3   OH257235   0.877   4.539  16.532 -0.5634 -0.4622 -0.7609
11915TIP3    H157236   0.943   4.585  16.481  0.4073  0.2760  1.0684
11915TIP3    H257237   0.823   4.608  16.569 -1.3104 -0.9846 -0.8619
11916TIP3   OH257238   4.544   2.126   0.072  0.0162  0.3584 -0.4152
11916TIP3    H157239   4.509   2.051   0.024 -1.1829  0.9598 -0.5304
11916TIP3    H257240   4.535   2.103   0.164  3.8374 -1.4946 -0.3294
11917TIP3   OH257241   4.924   3.121  12.147  0.2841  0.1251  0.3192
11917TIP3    H157242   4.866   3.055  12.109  0.7730 -0.8523  1.2131
11917TIP3    H257243   4.962   3.079  12.224  0.1831  1.6447  1.2574
11918TIP3   OH257244   1.633   2.439  13.338 -0.1875  0.2149  0.4908
11918TIP3    H157245   1.640   2.519  13.389  2.1559  0.5103 -0.1991
11918TIP3    H257246   1.721   2.402  13.338 -0.9049 -1.6602 -0.3744
11919TIP3   OH257247   3.430   2.305   1.568  0.2369 -0.5212  0.2386
11919TIP3    H157248   3.486   2.369   1.524  0.5744 -1.2641 -0.4190
11919TIP3    H257249   3.465   2.220   1.543 -1.2520 -1.0154 -0.2796
11920TIP3   OH257250   0.467   1.085   4.378 -0.0892  0.8198  0.0686
11920TIP3    H157251   0.528   1.036   4.433  0.9472  1.4602 -0.5059
11920TIP3    H257252   0.462   1.171   4.418  1.5441  1.6662 -1.4195
11921TIP3   OH257253   1.287   5.316  13.620  0.0594  0.0968  0.0900
11921TIP3    H157254   1.195   5.334  13.600 -0.2761 -1.0733  0.4668
11921TIP3    H257255   1.291   5.220  13.625  1.2040  0.1604  0.5357
11922TIP3   OH257256   2.564   0.246   1.251  0.6717  0.0649 -0.1611
11922TIP3    H157257   2.646   0.216   1.289  1.9582  2.1700 -1.1336
11922TIP3    H257258   2.531   0.312   1.311  0.5283  0.3824 -0.5791
11923TIP3   OH257259   5.819   4.287   5.659 -0.3217  0.1184  0.4384
11923TIP3    H157260   5.889   4.348   5.637  1.0068 -1.3494  0.4558
11923TIP3    H257261   5.860   4.221   5.715 -1.9492 -0.2369  1.2833
11924TIP3   OH257262   1.029   3.293  12.117 -0.0795  0.3906  0.1424
11924TIP3    H157263   0.977   3.320  12.193  1.2614  3.3219  0.1295
11924TIP3    H257264   0.967   3.296  12.043 -0.2864  2.4599  0.3509
11925TIP3   OH257265   2.578   2.810  11.448  0.5637  0.0257 -0.9013
11925TIP3    H157266   2.495   2.773  11.476  1.5954 -2.1073 -0.4611
11925TIP3    H257267   2.580   2.795  11.354 -0.2941  1.7387 -1.2279
11926TIP3   OH257268   2.671   6.247   6.838  0.0504 -0.1805  0.2335
11926TIP3    H157269   2.711   6.332   6.857  1.6723 -0.8740  0.1026
11926TIP3    H257270   2.741   6.197   6.795 -0.9436 -1.4938  0.0942
11927TIP3   OH257271   6.397   5.160  13.924  0.3467  0.0417  0.2492
11927TIP3    H157272   6.313   5.166  13.878 -0.7196  0.1358  2.1039
11927TIP3    H257273   6.436   5.079  13.892 -1.0446 -0.6561  0.2529
11928TIP3   OH257274   5.053   0.109  15.717  0.5647  0.2065 -0.4714
11928TIP3    H157275   5.101   0.107  15.800 -0.1031  1.3541 -0.0311
11928TIP3    H257276   5.008   0.024  15.714  1.7274 -0.4364 -0.3724
11929TIP3   OH257277   0.147   0.734  16.724  0.4581  0.2882 -0.0411
11929TIP3    H157278   0.224   0.703  16.773 -0.4435 -0.6861  0.8275
11929TIP3    H257279   0.126   0.818  16.764  0.5276  0.1289  0.3332
11930TIP3   OH257280   6.026   4.054   0.126 -0.1225 -0.4741  0.0643
11930TIP3    H157281   6.117   4.085   0.125 -0.0677 -0.5800  0.7687
11930TIP3    H257282   5.989   4.092   0.206 -1.2889  1.1571 -1.1795
11931TIP3   OH257283   2.364   4.692  13.867  0.3408  0.3188 -0.3038
11931TIP3    H157284   2.328   4.773  13.902 -3.9312 -1.6105  0.3005
11931TIP3    H257285   2.378   4.710  13.774 -0.8173  1.6364 -0.2479
11932TIP3   OH257286   2.645   6.097   3.049 -0.0607 -0.0896 -0.3555
11932TIP3    H157287   2.727   6.141   3.074 -0.2059  0.1594 -0.3120
11932TIP3    H257288   2.668   6.005   3.043  0.1986 -0.0334 -0.2311
11933TIP3   OH257289   1.669   4.166  15.485  0.0708 -0.1306 -0.2090
11933TIP3    H157290   1.663   4.189  15.578  0.1931 -1.3260  0.1181
11933TIP3    H257291   1.583   4.188  15.449 -1.8170 -4.0441  1.2906
11934TIP3   OH257292   2.989   0.257  14.909  0.6241 -0.1876 -0.1913
11934TIP3    H157293   2.918   0.308  14.870 -0.2689 -0.1180  1.4424
11934TIP3    H257294   3.050   0.323  14.942  1.2382 -0.2445 -1.1663
11935TIP3   OH257295   4.894   6.227   4.588 -0.0050 -0.4621 -0.1565
11935TIP3    H157296   4.911   6.259   4.499 -0.5373  0.7349  0.1531
11935TIP3    H257297   4.839   6.295   4.628  0.4008 -0.8827  1.1649
11936TIP3   OH257298   1.759   0.937   2.382  0.7440  0.6884  0.5607
11936TIP3    H157299   1.807   0.866   2.340 -2.0045 -0.0805 -1.6169
11936TIP3    H257300   1.793   1.017   2.342  0.1264  0.1470 -1.1347
11937TIP3   OH257301   6.122   4.300   3.330 -0.1801 -0.0689 -1.0965
11937TIP3    H157302   6.181   4.376   3.327  0.8540 -0.8796 -2.2756
11937TIP3    H257303   6.042   4.329   3.287  0.0615  0.4687 -1.1894
11938TIP3   OH257304   1.805   6.383   1.296  0.5269  0.3302 -0.1128
11938TIP3    H157305   1.733   6.442   1.315  0.4304  0.1250  0.1673
11938TIP3    H257306   1.860   6.386   1.374 -0.3520 -1.2254  0.6160
11939TIP3   OH257307   2.744   1.802  14.975 -0.4768  0.6816 -0.3260
11939TIP3    H157308   2.771   1.878  14.922  0.6175  0.4990 -0.0447
11939TIP3    H257309   2.686   1.839  15.041  0.4871  1.3769  0.1569
11940TIP3   OH257310   2.115   1.523  11.846  0.2254  0.0214 -0.3911
11940TIP3    H157311   2.057   1.447  11.837  1.2739 -0.7504 -0.8655
11940TIP3    H257312   2.201   1.491  11.819  0.8389  1.1985  0.0823
11941TIP3   OH257313   5.570   4.510  14.888  0.4352  0.2085 -0.4821
11941TIP3    H157314   5.617   4.462  14.820 -0.5224 -1.1180 -0.2566
11941TIP3    H257315   5.636   4.528  14.955  1.1048  0.3786 -1.1802
11942TIP3   OH257316   5.350   5.694  17.202  0.1822  0.0526 -0.1397
11942TIP3    H157317   5.421   5.662  17.146 -0.0627 -1.6924  0.4925
11942TIP3    H257318   5.296   5.617  17.219  1.1718  0.0172  3.8500
11943TIP3   OH257319   6.421   6.553   4.972 -0.7088 -0.1985  0.0881
11943TIP3    H157320   6.404   6.562   5.066  1.5131  2.7306  0.3575
11943TIP3    H257321   6.413   6.642   4.938  0.7482 -0.8255 -2.0559
11944TIP3   OH257322   0.496   0.151   0.308 -0.3598 -0.0137 -0.3400
11944TIP3    H157323   0.544   0.076   0.343  0.4719  0.7259  0.1491
11944TIP3    H257324   0.462   0.195   0.386  1.4407  1.6102 -0.4228
11945TIP3   OH257325   6.469   4.361  14.817 -0.3705 -0.1281  0.1051
11945TIP3    H157326   6.487   4.270  14.793  1.7609  0.2339  0.1537
11945TIP3    H257327   6.545   4.388  14.868 -0.3345  2.0665 -0.9931
11946TIP3   OH257328   0.231   2.777   1.680  0.0798 -0.1319 -0.4713
11946TIP3    H157329   0.271   2.703   1.635 -0.5792 -0.0474 -1.2180
11946TIP3    H257330   0.305   2.827   1.714  0.5397 -0.9793 -0.1930
11947TIP3   OH257331   3.660   6.442   4.386 -0.1858  0.2332  0.6859
11947TIP3    H157332   3.725   6.418   4.451  1.4978 -0.9411 -1.3130
11947TIP3    H257333   3.647   6.363   4.334 -1.5617  1.0800 -0.3351
11948TIP3   OH257334   5.225   4.453  14.298 -0.0305  0.1560  0.8757
11948TIP3    H157335   5.169   4.386  14.337 -1.3555  0.3932 -0.5367
11948TIP3    H257336   5.312   4.414  14.299 -0.9548 -2.2215 -1.1396
11949TIP3   OH257337   0.624   1.553   2.656 -0.6481  0.2196  0.4172
11949TIP3    H157338   0.588   1.636   2.689  1.6713  1.2450  0.5251
11949TIP3    H257339   0.713   1.550   2.691 -0.3734 -1.9165 -0.3335
11950TIP3   OH257340   4.262   0.651   5.084 -0.1988 -0.0224  0.2008
11950TIP3    H157341   4.184   0.674   5.034 -0.4934 -0.0552  0.6400
11950TIP3    H257342   4.325   0.720   5.063  0.0836 -0.6329 -1.0969
11951TIP3   OH257343   5.803   2.803   5.466  0.2555  0.0855 -0.3834
11951TIP3    H157344   5.732   2.766   5.518  0.2164 -0.2626 -0.6856
11951TIP3    H257345   5.879   2.801   5.524 -0.0375  0.6989  0.0314
11952TIP3   OH257346   1.854   4.644   2.523  0.4857 -0.2951 -0.1094
11952TIP3    H157347   1.886   4.711   2.462  0.4005  1.2421  1.4581
11952TIP3    H257348   1.884   4.561   2.485  0.2299  0.5558 -2.3512
11953TIP3   OH257349   5.288   6.688  16.405 -0.2642  0.0619  0.1368
11953TIP3    H157350   5.233   6.650  16.336 -1.2208 -0.2385  1.0300
11953TIP3    H257351   5.312   6.613  16.460 -1.4630  0.5798  1.4391
11954TIP3   OH257352   0.993   2.350  16.072  0.6516 -0.1430 -0.2171
11954TIP3    H157353   0.936   2.358  16.148  0.1300 -0.1241 -0.6075
11954TIP3    H257354   1.061   2.288  16.099 -0.4178 -1.3646 -0.2638
11955TIP3   OH257355   2.111   0.286  11.079 -0.0572  0.1468  0.5721
11955TIP3    H157356   2.134   0.248  10.994  1.3727  0.0565  0.9712
11955TIP3    H257357   2.185   0.342  11.101 -0.9265  1.0582  1.2471
11956TIP3   OH257358   5.419   1.884   4.103 -0.0742 -0.0705  0.2569
11956TIP3    H157359   5.349   1.858   4.163  0.4527 -0.3171  0.7831
11956TIP3    H257360   5.436   1.976   4.125 -0.0710 -0.0797  0.2935
11957TIP3   OH257361   6.340   2.657   5.143  0.4884  0.3201 -0.5396
11957TIP3    H157362   6.420   2.619   5.180  0.9836  1.4829 -0.3933
11957TIP3    H257363   6.370   2.723   5.081 -0.3307  1.9608  0.7293
11958TIP3   OH257364   4.058   0.978  11.225 -0.2406 -0.0225 -0.7059
11958TIP3    H157365   4.125   1.009  11.165  1.4993 -1.4564  0.3966
11958TIP3    H257366   4.003   0.920  11.172  1.5559 -1.6508 -0.9012
11959TIP3   OH257367   5.004   2.747  17.220 -0.2566 -0.0502 -0.1446
11959TIP3    H157368   4.992   2.656  17.248 -0.2926  0.0223  0.0785
11959TIP3    H257369   5.090   2.749  17.179  0.3040  0.0889  0.9950
11960TIP3   OH257370   6.509   3.619   0.569  0.3937 -0.2271  0.0558
11960TIP3    H157371   6.431   3.585   0.525  0.4448  0.3880 -0.5348
11960TIP3    H257372   6.558   3.664   0.499  2.0040 -1.8367  0.0902
11961TIP3   OH257373   2.385   2.840   4.595 -0.6499  0.1721 -0.2354
11961TIP3    H157374   2.357   2.748   4.592  0.3212 -0.1226 -0.6351
11961TIP3    H257375   2.408   2.856   4.686  1.2762 -0.6460 -0.5445
11962TIP3   OH257376   6.803   2.060   5.387 -0.0753  0.0347  0.2252
11962TIP3    H157377   6.867   2.031   5.452  0.4153 -1.8888 -1.0303
11962TIP3    H257378   6.827   2.013   5.307 -0.7057  2.2383 -1.3568
11963TIP3   OH257379   0.331   3.929  16.311 -0.1332 -0.2448 -0.3706
11963TIP3    H157380   0.315   3.845  16.267 -2.1130  0.5970 -1.3750
11963TIP3    H257381   0.324   3.994  16.241  0.1525  0.8704  0.6087
11964TIP3   OH257382   3.848   5.614   3.759 -0.3095  0.0423 -0.2395
11964TIP3    H157383   3.824   5.522   3.752 -0.4542  0.1496 -1.3225
11964TIP3    H257384   3.778   5.653   3.811 -0.1697 -0.4829  0.3498
11965TIP3   OH257385   4.531   6.188   0.801  0.1683 -0.1924 -0.3387
11965TIP3    H157386   4.471   6.254   0.765 -0.7374 -0.1109  1.2373
11965TIP3    H257387   4.524   6.114   0.740 -1.4785 -0.1427 -0.2459
11966TIP3   OH257388   0.362   6.760  13.940  0.0563 -0.2163 -0.3444
11966TIP3    H157389   0.451   6.777  13.910 -0.3553  1.8621 -0.5747
11966TIP3    H257390   0.368   6.678  13.988  2.0457 -0.2482 -0.5595
11967TIP3   OH257391   0.927   2.459  13.054 -0.2085 -0.1959 -0.4106
11967TIP3    H157392   0.967   2.373  13.071 -1.9227 -0.9603  0.0247
11967TIP3    H257393   0.898   2.454  12.963  1.7688  0.8533 -1.1546
11968TIP3   OH257394   3.179   5.539   2.846  0.0351  0.3000  0.7209
11968TIP3    H157395   3.095   5.575   2.819 -0.1906 -2.2673 -2.7582
11968TIP3    H257396   3.160   5.448   2.869  1.8665 -0.5441 -0.8409
11969TIP3   OH257397   5.035   0.472   0.313 -0.3313  0.7431  0.7386
11969TIP3    H157398   5.045   0.554   0.265 -0.5157  0.8523  0.8872
11969TIP3    H257399   5.089   0.482   0.391  0.4599  0.3281  0.2565
11970TIP3   OH257400   6.785   1.718   4.941  0.7068 -0.1189 -0.0757
11970TIP3    H157401   6.781   1.711   4.845  0.3992  1.6139 -0.2279
11970TIP3    H257402   6.873   1.690   4.964  1.0204  0.1109 -0.9592
11971TIP3   OH257403   0.397   0.114   1.819 -0.0849 -0.3496 -0.4256
11971TIP3    H157404   0.447   0.196   1.816 -0.3718 -0.0813  1.2211
11971TIP3    H257405   0.463   0.045   1.810  0.7123 -0.0095  2.0556
11972TIP3   OH257406   2.846   4.307   4.161 -0.1090 -0.0191 -0.1940
11972TIP3    H157407   2.909   4.315   4.233  1.4488  2.7101 -1.7355
11972TIP3    H257408   2.765   4.341   4.197  0.2820  0.0198  0.6771
11973TIP3   OH257409   4.833   4.550  16.061 -0.5128  0.1590 -0.3853
11973TIP3    H157410   4.897   4.489  16.099  0.3314 -0.5607 -2.8054
11973TIP3    H257411   4.886   4.623  16.030 -1.4082  1.6846  1.4442
11974TIP3   OH257412   5.484   2.347  13.769 -0.1539  0.3270  0.1613
11974TIP3    H157413   5.452   2.287  13.702 -0.8852 -0.9831  1.6333
11974TIP3    H257414   5.528   2.416  13.720  0.6841 -1.3756 -1.6101
11975TIP3   OH257415   4.510   5.199  14.832  0.2724  0.1885 -0.3440
11975TIP3    H157416   4.584   5.194  14.772  0.7546 -0.4474  0.2896
11975TIP3    H257417   4.525   5.279  14.882  1.0167 -0.3960  0.3926
11976TIP3   OH257418   0.868   1.561   5.304  0.1676 -0.5662 -0.4865
11976TIP3    H157419   0.823   1.477   5.314  0.8474 -0.9417 -0.4677
11976TIP3    H257420   0.799   1.623   5.280 -0.3168 -1.1622 -0.6636
11977TIP3   OH257421   4.793   5.614   0.276 -0.2173 -0.0724 -0.0038
11977TIP3    H157422   4.771   5.631   0.184 -0.1511 -0.5544 -0.1063
11977TIP3    H257423   4.733   5.671   0.325 -0.1039  0.3527 -0.3456
11978TIP3   OH257424   0.923   6.520   6.523  0.0625  0.0085 -0.1222
11978TIP3    H157425   0.896   6.475   6.603 -1.6340 -0.5987 -0.9969
11978TIP3    H257426   0.938   6.450   6.460  0.9729  0.5123 -0.4934
11979TIP3   OH257427   1.862   1.866   2.231  0.5090  0.0098  0.0032
11979TIP3    H157428   1.785   1.908   2.192 -0.5469 -0.9227  0.9728
11979TIP3    H257429   1.901   1.816   2.159  0.9352  1.4531 -0.7945
11980TIP3   OH257430   2.498   0.277  16.997  0.3902 -0.1534 -0.2933
11980TIP3    H157431   2.498   0.353  16.939 -0.4350  0.4768  0.5152
11980TIP3    H257432   2.410   0.275  17.034  0.3931 -1.5104 -0.3041
11981TIP3   OH257433   3.049   0.836  16.038  0.2956  0.0018 -0.3842
11981TIP3    H157434   3.109   0.870  16.104  0.9978 -1.6659 -0.1236
11981TIP3    H257435   3.068   0.887  15.959  1.1994  0.3150  0.0326
11982TIP3   OH257436   1.893   4.045  16.625 -0.1463  0.2848  0.5476
11982TIP3    H157437   1.806   4.045  16.664 -0.6097 -0.5598 -0.4584
11982TIP3    H257438   1.882   4.085  16.539  1.0839  3.2299  1.6282
11983TIP3   OH257439   3.448   3.083  13.185 -0.5186  1.1676 -0.2553
11983TIP3    H157440   3.435   3.125  13.270 -1.6207  0.3971 -0.0115
11983TIP3    H257441   3.360   3.073  13.149 -0.2966 -0.6768 -0.3991
11984TIP3   OH257442   4.357   5.863  15.746 -0.0388 -0.0671  0.0146
11984TIP3    H157443   4.267   5.847  15.716  0.7376 -3.6526 -0.8347
11984TIP3    H257444   4.354   5.847  15.840 -0.1531 -0.8843 -0.1268
11985TIP3   OH257445   4.895   1.827   4.185 -0.1988 -0.3281 -0.5354
11985TIP3    H157446   4.826   1.761   4.182  0.5761 -1.1475 -0.8748
11985TIP3    H257447   4.949   1.809   4.108  0.5529  0.1093 -0.1196
11986TIP3   OH257448   1.939   3.790   3.663  0.1443 -0.2988 -0.2434
11986TIP3    H157449   1.926   3.876   3.623 -0.4758 -0.5764 -0.6498
11986TIP3    H257450   2.018   3.800   3.716  0.3281  0.3955 -0.6393
11987TIP3   OH257451   5.284   1.448   0.024  0.3578  0.1506  0.0918
11987TIP3    H157452   5.203   1.418  -0.018  0.0723 -0.0026  0.7376
11987TIP3    H257453   5.262   1.535   0.058 -0.3912 -0.9069  2.5420
11988TIP3   OH257454   6.185   2.383   2.303  0.0873  0.7367  0.5614
11988TIP3    H157455   6.120   2.364   2.236 -0.4151 -0.4851  1.3494
11988TIP3    H257456   6.250   2.437   2.259 -0.9581  1.1800 -0.5038
11989TIP3   OH257457   2.970   2.743   1.282  0.3098 -1.6842  0.1571
11989TIP3    H157458   2.904   2.767   1.218 -0.0259 -0.4826  0.9293
11989TIP3    H257459   3.044   2.711   1.230  0.6718  0.7816 -0.9488
11990TIP3   OH257460   4.130   4.849   2.503  0.1762  0.0218 -0.2505
11990TIP3    H157461   4.132   4.941   2.476 -1.6044  0.1765  0.0269
11990TIP3    H257462   4.100   4.802   2.425 -0.6093 -0.0890  0.1086
11991TIP3   OH257463   4.992   2.624   3.900 -1.0752  0.2959  0.6287
11991TIP3    H157464   5.008   2.533   3.875  1.0107  0.8462 -0.2608
11991TIP3    H257465   5.006   2.625   3.995 -0.0182 -0.1069  0.4869
11992TIP3   OH257466   2.660   5.454  13.632 -0.5555 -0.1976  0.0438
11992TIP3    H157467   2.731   5.486  13.687  0.4689 -0.2355 -1.2350
11992TIP3    H257468   2.582   5.462  13.687  0.3701  0.1990  1.3287
11993TIP3   OH257469   0.493   4.105  15.443  0.3103 -0.1043 -0.1797
11993TIP3    H157470   0.503   4.148  15.528  0.2939 -1.3548  0.4778
11993TIP3    H257471   0.578   4.066  15.426 -0.1580 -1.2858  0.0867
11994TIP3   OH257472   4.286   5.434   0.478  0.1209 -0.0931  0.5686
11994TIP3    H157473   4.266   5.502   0.542  1.9621 -0.8842  2.0968
11994TIP3    H257474   4.265   5.352   0.523  0.6151 -0.6377 -0.1605
11995TIP3   OH257475   4.886   3.212   1.894  0.3881  0.2849  0.2156
11995TIP3    H157476   4.833   3.271   1.947 -0.1724  0.0254 -0.0491
11995TIP3    H257477   4.925   3.268   1.827  0.3845  0.4599  0.3601
11996TIP3   OH257478   1.893   5.198  13.036  0.2465  0.1714 -0.2350
11996TIP3    H157479   1.821   5.145  13.068  0.3993  0.7362  1.1284
11996TIP3    H257480   1.960   5.135  13.011 -1.1596 -0.4304 -2.8203
11997TIP3   OH257481   5.773   3.502  11.411 -0.0925 -0.3670  0.1056
11997TIP3    H157482   5.782   3.441  11.338 -1.3744 -1.0856  0.5330
11997TIP3    H257483   5.859   3.545  11.416  0.9419 -2.3156 -0.0269
11998TIP3   OH257484   5.664   4.938  16.468 -0.1440  0.3294  0.1752
11998TIP3    H157485   5.719   4.938  16.390 -0.4011 -0.7780 -0.0277
11998TIP3    H257486   5.583   4.896  16.440 -1.2433  2.1802  0.3912
11999TIP3   OH257487   2.856   3.441   3.277 -0.5072  0.2017  0.0559
11999TIP3    H157488   2.893   3.408   3.358 -0.4587 -0.1543 -0.1096
11999TIP3    H257489   2.832   3.362   3.228 -0.7316  0.4180 -0.1819
12000TIP3   OH257490   0.736   4.268   3.027  0.6727 -0.1119 -0.6109
12000TIP3    H157491   0.647   4.257   3.060  0.1232  2.3508 -1.0786
12000TIP3    H257492   0.786   4.299   3.103  0.5073  0.9624 -0.9227
12001TIP3   OH257493   5.983   6.266   0.950 -0.3160  0.4535  0.0931
12001TIP3    H157494   5.891   6.292   0.951 -0.2280  0.7773  1.5953
12001TIP3    H257495   6.028   6.340   0.910 -0.6930  0.2736 -0.6937
12002TIP3   OH257496   2.256   6.041   4.655 -0.1081 -0.4482 -0.1852
12002TIP3    H157497   2.244   6.108   4.588  0.5853 -1.3819 -1.2816
12002TIP3    H257498   2.269   5.960   4.606  1.8401 -0.9359  1.0283
12003TIP3   OH257499   5.645   4.379  13.892  0.4911  0.3969 -0.2727
12003TIP3    H157500   5.739   4.374  13.909  0.4002 -1.6845 -0.0968
12003TIP3    H257501   5.634   4.334  13.808 -0.2716  1.3685 -0.7100
12004TIP3   OH257502   2.294   0.690   2.499 -0.3296  0.6479 -0.6701
12004TIP3    H157503   2.371   0.663   2.549 -1.6310 -0.3868  0.8688
12004TIP3    H257504   2.311   0.657   2.411  0.3682 -0.8688 -0.0132
12005TIP3   OH257505   3.968   5.629  15.649 -0.7561 -0.1189  0.1253
12005TIP3    H157506   3.915   5.561  15.692  0.0616 -0.3405  0.8051
12005TIP3    H257507   3.929   5.638  15.562 -0.5220 -1.9131 -0.2131
12006TIP3   OH257508   2.189   2.651   4.768  0.4242 -0.1314 -0.1130
12006TIP3    H157509   2.159   2.572   4.812  2.0290 -1.8542 -1.8919
12006TIP3    H257510   2.152   2.645   4.680  0.6528  1.0463 -0.3074
12007TIP3   OH257511   1.663   6.791   5.233 -0.0759  0.0519 -0.4686
12007TIP3    H157512   1.596   6.812   5.169  1.4220  0.4377 -1.9897
12007TIP3    H257513   1.703   6.711   5.199  0.4151 -0.0213  0.2662
12008TIP3   OH257514   5.695   0.849   2.801  0.4396 -0.3785  0.7778
12008TIP3    H157515   5.659   0.769   2.763 -1.9533  0.6936  0.5728
12008TIP3    H257516   5.787   0.829   2.819  0.3240 -2.5871 -0.7934
12009TIP3   OH257517   5.601   2.037   4.819  0.3534  0.4483 -0.0786
12009TIP3    H157518   5.666   2.078   4.878 -0.0619 -0.3721  0.9880
12009TIP3    H257519   5.519   2.082   4.839  0.2421  0.2747 -0.1410
12010TIP3   OH257520   2.483   0.096  16.266 -0.3350  0.0131 -0.0489
12010TIP3    H157521   2.435   0.102  16.184  0.3351  1.1967 -0.3783
12010TIP3    H257522   2.431   0.148  16.328 -0.1372  0.2535 -0.0821
12011TIP3   OH257523   1.510   3.463  12.325 -0.3032 -0.2770  0.5451
12011TIP3    H157524   1.502   3.399  12.396  1.5556 -0.9058  0.2496
12011TIP3    H257525   1.427   3.457  12.278 -0.7936 -1.3108  1.4813
12012TIP3   OH257526   6.757   2.967  11.291  0.3319  0.1243  0.2522
12012TIP3    H157527   6.788   2.893  11.343 -0.1105  1.3567  2.3965
12012TIP3    H257528   6.677   2.995  11.335  0.2315  1.5953 -0.7876
12013TIP3   OH257529   3.170   4.716  13.659 -0.3274  0.4602 -0.0723
12013TIP3    H157530   3.124   4.799  13.672  0.1377  0.7971 -0.5535
12013TIP3    H257531   3.105   4.650  13.681 -0.4090  0.9507  1.2696
12014TIP3   OH257532   5.283   6.359  15.838  0.0114 -0.5414  0.4530
12014TIP3    H157533   5.319   6.394  15.757 -0.4115 -0.4989  0.2859
12014TIP3    H257534   5.193   6.392  15.842  0.2037 -0.0559  1.2238
12015TIP3   OH257535   2.312   1.425  15.662 -0.0378  0.8223  0.2030
12015TIP3    H157536   2.242   1.486  15.684 -2.1034 -0.9198 -1.0964
12015TIP3    H257537   2.275   1.371  15.591  2.3171 -0.7375  0.0597
12016TIP3   OH257538   5.550   2.488  12.398 -0.2125  0.1444 -0.2099
12016TIP3    H157539   5.550   2.396  12.424 -1.2896  0.1769 -0.0754
12016TIP3    H257540   5.640   2.516  12.413  0.3000 -1.0473 -0.8492
12017TIP3   OH257541   0.017   5.524  15.484  0.1930 -0.0518 -0.0382
12017TIP3    H157542  -0.018   5.612  15.466 -0.6408 -0.4504 -0.4086
12017TIP3    H257543  -0.044   5.487  15.548  0.4575 -0.4246  0.0033
12018TIP3   OH257544   1.733   2.064   0.509  0.2799  0.4312 -0.2476
12018TIP3    H157545   1.696   1.995   0.564  1.1508 -0.0675 -0.2568
12018TIP3    H257546   1.674   2.070   0.433 -0.7021  0.8413  0.5269
12019TIP3   OH257547   2.747   4.975   1.805 -0.2136  0.3929  0.3485
12019TIP3    H157548   2.677   4.924   1.845 -0.7680  0.7530 -0.1423
12019TIP3    H257549   2.703   5.027   1.738  0.9193 -1.7199 -2.2269
12020TIP3   OH257550   0.384   3.940   0.428 -0.0728  0.6825  0.1924
12020TIP3    H157551   0.427   3.856   0.412 -1.4513 -0.2931  1.3500
12020TIP3    H257552   0.294   3.917   0.450  0.3103  2.1222  4.0298
12021TIP3   OH257553   4.249   4.539   2.743  0.3664  0.5941 -0.0793
12021TIP3    H157554   4.222   4.627   2.769 -2.7459 -0.2859  0.0223
12021TIP3    H257555   4.203   4.523   2.661 -0.2816 -1.4113  0.6109
12022TIP3   OH257556   2.731   0.184  16.363 -0.3251  0.3306  0.5518
12022TIP3    H157557   2.652   0.130  16.357  0.2438 -0.4663 -0.0461
12022TIP3    H257558   2.718   0.254  16.299 -2.0470  2.2901  2.8623
12023TIP3   OH257559   2.271   4.920  13.988 -0.2636  0.4399  0.0489
12023TIP3    H157560   2.177   4.933  13.976 -0.4085  1.8740  2.2705
12023TIP3    H257561   2.281   4.899  14.081  1.4604 -1.7859 -0.5536
12024TIP3   OH257562   4.815   2.872   4.615  0.3147  0.1586 -0.5674
12024TIP3    H157563   4.741   2.862   4.555 -0.0280  0.6166 -0.2272
12024TIP3    H257564   4.821   2.966   4.629  0.8120  0.1031 -0.3993
12025TIP3   OH257565   5.546   1.044  14.421 -0.0871  0.7014  0.2119
12025TIP3    H157566   5.512   1.045  14.332 -2.2606  0.8479  0.9862
12025TIP3    H257567   5.504   0.969  14.463 -0.1014  1.3793  1.4699
12026TIP3   OH257568   4.120   4.315  10.907  0.2196  0.6908  0.4566
12026TIP3    H157569   4.206   4.338  10.943  1.0246 -1.3159 -0.0163
12026TIP3    H257570   4.110   4.371  10.830  2.6649 -1.1705 -1.4016
12027TIP3   OH257571   3.422   6.660  16.128 -0.1116  0.2043  0.2962
12027TIP3    H157572   3.375   6.577  16.118  2.5085 -1.1628 -2.2675
12027TIP3    H257573   3.374   6.721  16.073 -1.6234  0.2508  1.5984
12028TIP3   OH257574   0.963   5.523   4.549  0.0187 -0.2954 -0.3738
12028TIP3    H157575   0.976   5.503   4.456 -1.4398  3.2154 -1.5276
12028TIP3    H257576   0.870   5.506   4.564 -0.4365  1.8540 -0.4534
12029TIP3   OH257577   6.600   2.132  16.026 -0.6432 -0.1487  0.4141
12029TIP3    H157578   6.509   2.155  16.006 -0.4654  0.4332  0.2628
12029TIP3    H257579   6.602   2.037  16.018 -0.8198 -0.0335 -1.4089
12030TIP3   OH257580   4.404   0.258   0.489 -0.4550 -0.0383 -0.4355
12030TIP3    H157581   4.421   0.171   0.525 -2.4073 -0.0699  0.5337
12030TIP3    H257582   4.468   0.315   0.534  0.5062 -0.8593 -0.7171
12031TIP3   OH257583   0.047   1.796  13.104  0.3609  0.0617  0.0974
12031TIP3    H157584   0.004   1.816  13.021  1.1834  0.3778 -0.2708
12031TIP3    H257585   0.034   1.875  13.157 -0.3648 -0.2311  0.3554
12032TIP3   OH257586   1.773   6.521   5.665 -0.8033  0.4089  0.9307
12032TIP3    H157587   1.830   6.548   5.592 -0.2215 -1.4257  0.6391
12032TIP3    H257588   1.722   6.448   5.629 -0.8890 -0.1771  2.2010
12033TIP3   OH257589   4.346   4.767  13.167 -0.0376  0.2162  0.2712
12033TIP3    H157590   4.350   4.801  13.256 -1.1792 -1.9792  1.2579
12033TIP3    H257591   4.350   4.672  13.178 -2.8427 -0.2662 -1.7596
12034TIP3   OH257592   0.667   0.725  13.065 -0.3515 -0.3208 -0.5131
12034TIP3    H157593   0.753   0.754  13.036  0.1881 -1.3494  0.0119
12034TIP3    H257594   0.640   0.660  13.001 -1.1926  0.6913 -1.2257
12035TIP3   OH257595   4.902   3.688  13.239 -0.3655  0.5635 -0.0714
12035TIP3    H157596   4.971   3.653  13.183 -0.9308 -1.1766  0.2741
12035TIP3    H257597   4.856   3.751  13.184 -0.6917 -0.8406 -1.4771
12036TIP3   OH257598   5.390   5.946  16.380  0.0087  0.6473  0.3205
12036TIP3    H157599   5.353   5.859  16.364  0.0055  0.3230  1.8729
12036TIP3    H257600   5.405   5.982  16.293  0.3163 -1.0382 -0.3758
12037TIP3   OH257601   5.754   0.910  12.392 -0.4350  0.0817 -0.5326
12037TIP3    H157602   5.757   0.834  12.335 -0.8485  0.3854 -0.9729
12037TIP3    H257603   5.807   0.976  12.347  1.2708 -0.4428  0.6294
12038TIP3   OH257604   1.301   5.693  14.035  0.0478  0.1603  0.0568
12038TIP3    H157605   1.246   5.648  13.972  0.2619 -1.1983  0.8135
12038TIP3    H257606   1.264   5.781  14.040 -0.5832 -0.0098 -1.1950
12039TIP3   OH257607   0.134   6.452  12.947  0.7633  0.7052 -0.3575
12039TIP3    H157608   0.114   6.537  12.909 -2.6166  0.5453  0.7351
12039TIP3    H257609   0.178   6.472  13.030  0.3336  1.3712 -0.2893
12040TIP3   OH257610   0.362   3.231  16.182  0.0662  0.0194 -0.2398
12040TIP3    H157611   0.333   3.177  16.256 -1.2485 -0.8377 -1.3550
12040TIP3    H257612   0.399   3.168  16.120 -1.1312  0.4278 -1.3875
12041TIP3   OH257613   1.588   1.944   1.293 -0.2681  0.4340  0.5916
12041TIP3    H157614   1.669   1.993   1.308  0.2420 -0.2210  0.0155
12041TIP3    H257615   1.587   1.878   1.363 -0.5575  0.7398  0.8859
12042TIP3   OH257616   5.923   1.818   0.559 -0.3320 -0.5958 -0.0903
12042TIP3    H157617   5.831   1.790   0.561 -0.9788  1.2403 -1.2157
12042TIP3    H257618   5.949   1.807   0.468 -0.1291  0.8725 -0.2296
12043TIP3   OH257619   1.112   0.904   3.279 -1.0833 -0.2594 -0.2101
12043TIP3    H157620   1.159   0.985   3.264 -1.0600 -0.2659 -0.1721
12043TIP3    H257621   1.042   0.904   3.214 -1.7308  0.2948  0.4825
12044TIP3   OH257622   2.913   1.223   6.849 -0.4285 -0.3496 -0.1346
12044TIP3    H157623   2.950   1.135   6.842 -1.7687 -0.8212 -3.1246
12044TIP3    H257624   2.824   1.215   6.813 -0.4002  2.2904 -1.0732
12045TIP3   OH257625   4.405   3.892   4.282 -0.2490  0.2861 -0.5896
12045TIP3    H157626   4.497   3.892   4.257  0.2379 -1.5178  1.0004
12045TIP3    H257627   4.405   3.878   4.376 -2.1743 -0.7024 -0.6793
12046TIP3   OH257628   0.804   4.257   4.386  0.2349  0.0138 -0.1366
12046TIP3    H157629   0.854   4.203   4.447 -1.7245 -1.5180  0.2272
12046TIP3    H257630   0.809   4.211   4.302 -1.1952 -0.6180  0.1001
12047TIP3   OH257631   0.964   1.380   0.107 -0.2025  0.1659  0.2230
12047TIP3    H157632   1.028   1.316   0.077  0.4001  1.2762 -0.9724
12047TIP3    H257633   0.904   1.330   0.162  0.8681 -1.1853  0.2200
12048TIP3   OH257634   2.381   6.308  11.736 -0.2932 -0.2563 -0.6421
12048TIP3    H157635   2.372   6.380  11.798  0.0290  0.8730 -1.8512
12048TIP3    H257636   2.320   6.241  11.768 -0.2916  0.3758  0.7458
12049TIP3   OH257637   0.728   2.406   0.219  0.1475  0.0848 -0.4445
12049TIP3    H157638   0.822   2.390   0.223  0.2397  0.5552 -0.6371
12049TIP3    H257639   0.721   2.497   0.190 -0.3741 -0.3632 -1.8245
12050TIP3   OH257640   1.769   1.711   3.156  0.3338  0.3942 -0.0702
12050TIP3    H157641   1.837   1.712   3.089  0.7929  1.0650  0.3973
12050TIP3    H257642   1.810   1.749   3.234 -0.4890  0.5555  0.3026
12051TIP3   OH257643   4.449   5.852   5.527 -0.1470 -0.5428  0.3404
12051TIP3    H157644   4.436   5.764   5.562 -0.2797  0.1289  2.1036
12051TIP3    H257645   4.440   5.909   5.604  1.2718  0.8965 -0.5206
12052TIP3   OH257646   1.696   6.504  15.370  0.1596  0.6772  0.2801
12052TIP3    H157647   1.699   6.441  15.442  0.0678 -1.7155 -1.6695
12052TIP3    H257648   1.760   6.571  15.394  0.2608 -0.0999  2.4601
12053TIP3   OH257649   4.824   3.054   3.916 -0.1006  0.1675 -0.3854
12053TIP3    H157650   4.812   3.120   3.848 -0.2574  1.0989  0.5161
12053TIP3    H257651   4.865   2.980   3.871  1.7099  1.5171 -1.0759
12054TIP3   OH257652   2.104   0.336   0.846  0.3598  0.5632 -0.4710
12054TIP3    H157653   2.033   0.274   0.829  1.9227 -1.1002 -1.2510
12054TIP3    H257654   2.154   0.296   0.917  1.0483  1.2295 -0.5723
12055TIP3   OH257655   1.068   2.210   2.533  0.1320  0.3084 -0.0381
12055TIP3    H157656   1.028   2.217   2.446  1.7582  1.9108 -0.7197
12055TIP3    H257657   1.073   2.301   2.564 -0.7278 -0.2550  1.9255
12056TIP3   OH257658   2.603   2.849   5.593 -0.2034  0.3629 -0.1134
12056TIP3    H157659   2.549   2.835   5.671 -0.6146 -1.2466 -0.6508
12056TIP3    H257660   2.632   2.762   5.568  1.4083  1.0531 -0.7370
12057TIP3   OH257661   5.952   2.998   3.815  0.2595 -0.5230 -0.3660
12057TIP3    H157662   6.041   3.003   3.781  0.8003 -0.5281  0.9980
12057TIP3    H257663   5.902   3.059   3.761  0.8254 -1.3245 -1.8702
12058TIP3   OH257664   5.841   3.691   0.174  1.0344 -0.6366  0.6498
12058TIP3    H157665   5.790   3.610   0.177  1.0491 -0.7512 -0.9092
12058TIP3    H257666   5.825   3.733   0.258 -0.4463 -1.3815  0.7737
12059TIP3   OH257667   0.248   0.747   0.887 -0.0539  0.1215  0.0923
12059TIP3    H157668   0.204   0.719   0.807 -0.7269 -0.4956  0.6535
12059TIP3    H257669   0.179   0.792   0.937  0.1066 -0.3317  0.7312
12060TIP3   OH257670   3.715   3.770  13.210 -0.1965  0.1289  0.2393
12060TIP3    H157671   3.788   3.805  13.261 -0.0856 -0.9548  0.8724
12060TIP3    H257672   3.643   3.830  13.227  0.7407  1.7511 -1.1259
12061TIP3   OH257673   6.632   0.906   5.240 -0.1417  0.1775 -0.1912
12061TIP3    H157674   6.716   0.948   5.222 -0.3908  0.9970  0.4801
12061TIP3    H257675   6.618   0.920   5.334 -0.4170 -1.0946 -0.0260
12062TIP3   OH257676   3.694   6.653   0.623 -0.4720  0.4754 -0.4180
12062TIP3    H157677   3.681   6.575   0.678  0.2984 -0.9323 -2.1231
12062TIP3    H257678   3.662   6.627   0.537  0.4448  1.8107 -1.1951
12063TIP3   OH257679   2.438   3.647   6.107 -0.8392  0.1141  0.5338
12063TIP3    H157680   2.350   3.637   6.070 -1.0928  0.4190  1.0458
12063TIP3    H257681   2.438   3.588   6.182 -0.6557  0.2332  0.6248
12064TIP3   OH257682   3.779   0.643   1.291 -0.2256  0.1277  0.1371
12064TIP3    H157683   3.800   0.643   1.384  1.0674 -1.0331 -0.1367
12064TIP3    H257684   3.761   0.552   1.270  0.8982  0.1503 -1.0385
12065TIP3   OH257685   4.099   6.769   0.500 -0.4074  0.3125  0.3557
12065TIP3    H157686   4.047   6.828   0.445  0.5648  0.1771 -0.7608
12065TIP3    H257687   4.122   6.696   0.441 -0.1849 -0.3406  1.2348
12066TIP3   OH257688   2.882   4.572   6.369 -0.1283  0.6146 -0.2032
12066TIP3    H157689   2.936   4.647   6.346  0.4429  1.6747  3.8404
12066TIP3    H257690   2.939   4.496   6.354  0.2980  1.1711 -1.5913
12067TIP3   OH257691   5.595   5.953   2.453 -0.5481 -0.0104 -0.2829
12067TIP3    H157692   5.670   5.995   2.495 -0.1580 -1.6289  0.7209
12067TIP3    H257693   5.626   5.927   2.367 -0.1563 -0.0728 -0.1233
12068TIP3   OH257694   5.637   2.873  12.834 -0.1567  0.0806  0.2708
12068TIP3    H157695   5.685   2.822  12.769 -1.0213 -1.3180  0.6909
12068TIP3    H257696   5.705   2.924  12.879  0.9137 -1.5596  0.6024
12069TIP3   OH257697   0.273   2.957   5.641 -0.3421  0.0623  0.4895
12069TIP3    H157698   0.212   3.016   5.686  0.1175  0.2829  0.8243
12069TIP3    H257699   0.233   2.870   5.652 -1.3730  0.3625 -0.5930
12070TIP3   OH257700   3.909   2.796   2.723  0.4528  1.1860 -0.0169
12070TIP3    H157701   3.814   2.806   2.727  0.4931  2.8444 -1.7529
12070TIP3    H257702   3.938   2.804   2.814 -1.0557  0.5312  0.5545
12071TIP3   OH257703   5.999   1.192   0.132  0.3243 -0.3781 -0.4660
12071TIP3    H157704   6.064   1.227   0.193  0.2187 -1.1782  0.1306
12071TIP3    H257705   5.914   1.214   0.172  0.1742  1.3985 -1.6559
12072TIP3   OH257706   5.984   2.244   2.453  0.3107 -0.0616 -0.4732
12072TIP3    H157707   6.053   2.298   2.414 -0.7162  1.1730 -0.6432
12072TIP3    H257708   5.907   2.259   2.398 -0.5697 -0.0206  0.7178
12073TIP3   OH257709   4.848   6.295   5.144 -0.2286 -0.5878  0.3407
12073TIP3    H157710   4.764   6.278   5.187  0.7922 -2.5798  1.6768
12073TIP3    H257711   4.843   6.247   5.062 -0.0669 -1.4480  0.8305
12074TIP3   OH257712   0.311   0.694  12.031 -0.1091  0.2989  0.0325
12074TIP3    H157713   0.331   0.604  12.006  1.0197  0.4668  0.2918
12074TIP3    H257714   0.391   0.743  12.011 -0.6260  1.2063  0.1126
12075TIP3   OH257715   3.114   5.903   3.606  0.2459  0.2473  0.5706
12075TIP3    H157716   3.078   5.930   3.521 -0.9227 -0.3272  0.8555
12075TIP3    H257717   3.099   5.978   3.663  1.8407  0.9851  0.0915
12076TIP3   OH257718   2.926   5.018  14.166  0.2241  0.1142  0.5720
12076TIP3    H157719   2.930   5.025  14.261  2.2890 -0.6282  0.5893
12076TIP3    H257720   2.955   4.929  14.147  4.0437  1.4260 -0.8539
12077TIP3   OH257721   1.233   0.148   1.846 -0.0703  0.0325 -0.7152
12077TIP3    H157722   1.325   0.150   1.819  0.0462  0.5312 -0.2852
12077TIP3    H257723   1.208   0.240   1.853 -0.1412 -0.0721  0.7128
12078TIP3   OH257724   4.825   0.839   5.855  0.6942 -0.2108 -0.5851
12078TIP3    H157725   4.822   0.846   5.760  0.3557  0.3835 -0.5318
12078TIP3    H257726   4.736   0.858   5.884  1.1879  1.4734 -0.0334
12079TIP3   OH257727   4.721   4.802   4.889 -0.2011 -0.0667  0.0372
12079TIP3    H157728   4.793   4.811   4.826 -1.1239 -3.3071 -1.6835
12079TIP3    H257729   4.645   4.837   4.842 -0.4024  0.0117  0.4249
12080TIP3   OH257730   5.131   1.233   3.703  0.2129  0.0538 -0.7915
12080TIP3    H157731   5.108   1.175   3.630  0.2704  0.0257 -0.7880
12080TIP3    H257732   5.058   1.294   3.709 -0.7412 -1.1409  0.3862
12081TIP3   OH257733   3.143   1.898   4.859 -0.2545 -0.1211 -0.0643
12081TIP3    H157734   3.225   1.876   4.815 -0.3711  0.0300 -0.3552
12081TIP3    H257735   3.154   1.864   4.948 -0.1883 -0.8090 -0.3322
12082TIP3   OH257736   0.865   0.001  11.073 -0.1000  0.5109 -0.4125
12082TIP3    H157737   0.838   0.054  11.148 -0.9871 -1.0448  0.4432
12082TIP3    H257738   0.961   0.006  11.073 -0.1026  0.8690  0.5934
12083TIP3   OH257739   3.680   5.702  14.425  0.6128 -0.5937 -0.1449
12083TIP3    H157740   3.734   5.623  14.415 -1.9050 -2.1775 -2.4861
12083TIP3    H257741   3.697   5.752  14.345 -0.6958 -0.6979 -0.5004
12084TIP3   OH257742   1.914   6.771   0.725 -0.1735  0.1093  0.0637
12084TIP3    H157743   2.009   6.772   0.738 -0.1145  1.3235 -0.3510
12084TIP3    H257744   1.882   6.846   0.774 -1.0599 -0.8521  1.0099
12085TIP3   OH257745   6.248   1.398  16.184 -0.8553  0.1844  0.9805
12085TIP3    H157746   6.280   1.336  16.250  0.3156  1.0839  1.2947
12085TIP3    H257747   6.177   1.352  16.141  1.0839 -2.1083  0.0146
12086TIP3   OH257748   2.317   0.743  12.606 -0.1188  0.2429  0.0853
12086TIP3    H157749   2.345   0.824  12.649  1.2477 -0.5650  0.7945
12086TIP3    H257750   2.310   0.679  12.678 -1.2186 -0.2743 -0.4499
12087TIP3   OH257751   5.909   3.118  16.512 -0.3438  0.3250  0.0695
12087TIP3    H157752   5.978   3.112  16.578  0.7124  2.0736 -0.7893
12087TIP3    H257753   5.842   3.056  16.541  0.5094  0.3288  2.2455
12088TIP3   OH257754   2.412   5.170  14.029  0.0033 -0.2284  0.3475
12088TIP3    H157755   2.401   5.184  14.123  0.1162  2.3857  0.0401
12088TIP3    H257756   2.357   5.093  14.010 -2.4783  0.9794  2.0580
12089TIP3   OH257757   2.961   1.862   5.871 -0.3314  0.3905  0.5489
12089TIP3    H157758   2.868   1.868   5.892 -0.4174 -1.7175  1.0315
12089TIP3    H257759   2.980   1.768   5.877  0.7466  0.0650 -4.0353
12090TIP3   OH257760   3.156   1.609  11.022 -0.2426 -0.6879 -0.1958
12090TIP3    H157761   3.172   1.693  11.065 -0.6231 -0.5920 -0.2408
12090TIP3    H257762   3.240   1.588  10.980  0.4078 -1.1902  1.2743
12091TIP3   OH257763   4.569   4.737  13.804  0.1840 -0.0256 -0.5760
12091TIP3    H157764   4.637   4.693  13.855 -0.6876  0.1708  0.8089
12091TIP3    H257765   4.606   4.824  13.786  0.6031 -0.1844 -0.5045
12092TIP3   OH257766   5.607   4.865  12.523 -0.0384  0.0872  0.0882
12092TIP3    H157767   5.629   4.932  12.458  0.0001  1.6816  1.6647
12092TIP3    H257768   5.517   4.841  12.503  0.0831  0.2749 -0.7591
12093TIP3   OH257769   0.597   3.614  15.600 -0.2623  0.0331 -0.3319
12093TIP3    H157770   0.547   3.561  15.662  0.0111  0.6830  0.4539
12093TIP3    H257771   0.617   3.554  15.528  1.1685 -1.3094  1.1086
12094TIP3   OH257772   6.568   4.286  13.819 -0.0086  0.1562  0.4670
12094TIP3    H157773   6.483   4.242  13.820 -0.6716  1.3721  1.2481
12094TIP3    H257774   6.572   4.332  13.903  0.8982  1.0746 -0.0496
12095TIP3   OH257775   0.132   5.398   0.976 -0.6286 -0.3697  0.9806
12095TIP3    H157776   0.038   5.399   0.961 -0.5202 -1.4640  0.1415
12095TIP3    H257777   0.163   5.319   0.931  0.5273 -0.6418  2.1928
12096TIP3   OH257778   0.843   2.074  12.676  0.1865  0.2160 -0.6641
12096TIP3    H157779   0.935   2.100  12.670  0.5996 -0.5663  1.4454
12096TIP3    H257780   0.800   2.121  12.605  1.8811  2.0547 -0.5481
12097TIP3   OH257781   4.279   2.738   3.199  0.4022  0.3555  0.6696
12097TIP3    H157782   4.204   2.752   3.257 -0.7992 -1.3638 -0.3712
12097TIP3    H257783   4.347   2.702   3.256  0.1328  1.0883  1.4648
12098TIP3   OH257784   2.164   6.279  14.232 -0.0110  0.5069 -0.9224
12098TIP3    H157785   2.197   6.363  14.262  0.9885 -0.3831  0.6177
12098TIP3    H257786   2.129   6.237  14.310 -1.2571 -0.1942 -1.8141
12099TIP3   OH257787   4.110   6.629   3.594  0.0765 -0.1245 -0.0222
12099TIP3    H157788   4.184   6.598   3.646  0.1700  1.6040  0.9377
12099TIP3    H257789   4.061   6.686   3.653 -0.8508  0.4272 -1.2799
12100TIP3   OH257790   0.465   2.344   3.692  0.2744 -0.6381 -0.3609
12100TIP3    H157791   0.438   2.285   3.621 -0.5104 -0.3685 -0.2968
12100TIP3    H257792   0.485   2.285   3.764  0.5392 -0.8862 -0.6325
12101TIP3   OH257793   3.922   5.835   1.399 -0.0372 -0.2668  0.0444
12101TIP3    H157794   4.005   5.795   1.371 -0.5615 -0.0354 -1.9989
12101TIP3    H257795   3.914   5.914   1.347 -0.5884  0.8326  1.7185
12102TIP3   OH257796   1.592   2.632   5.156 -0.4927  0.1301 -0.1276
12102TIP3    H157797   1.680   2.621   5.191 -0.7725 -0.7414  0.3435
12102TIP3    H257798   1.605   2.673   5.070  0.1786  2.8453  1.1657
12103TIP3   OH257799   5.189   0.841  16.296  0.0662 -0.6164 -0.0006
12103TIP3    H157800   5.261   0.802  16.346  0.4477  1.3899  1.1148
12103TIP3    H257801   5.218   0.835  16.205  0.7587 -1.5777  0.2702
12104TIP3   OH257802   3.611   6.296   0.689  0.0275 -0.2739 -0.2440
12104TIP3    H157803   3.652   6.212   0.709 -0.0143 -0.4392 -0.8153
12104TIP3    H257804   3.608   6.298   0.593  0.3280  0.5248 -0.2415
12105TIP3   OH257805   4.338   6.028   4.850  0.3029  0.3490  0.0078
12105TIP3    H157806   4.286   6.017   4.931 -0.6810  2.6984 -0.2339
12105TIP3    H257807   4.341   5.940   4.812 -3.3141 -0.0128  0.2086
12106TIP3   OH257808   0.933   5.238  11.315 -0.3082 -0.4666  0.2001
12106TIP3    H157809   0.946   5.321  11.270  0.4661 -0.1407  0.9984
12106TIP3    H257810   0.907   5.177  11.246  0.2374  0.1714 -0.5856
12107TIP3   OH257811   3.246   3.961  14.382 -0.1776 -0.4900 -0.2407
12107TIP3    H157812   3.201   3.924  14.306  0.2310  1.9566 -1.7942
12107TIP3    H257813   3.180   4.018  14.422  0.8272  1.5354 -1.3354
12108TIP3   OH257814   5.264   4.144  17.208 -0.0663  0.2295  0.2887
12108TIP3    H157815   5.337   4.188  17.165  0.7735 -1.0683  0.3341
12108TIP3    H257816   5.246   4.067  17.153  0.2637 -0.8158  1.5844
12109TIP3   OH257817   3.170   5.928  12.765  0.1088 -0.2396  0.7482
12109TIP3    H157818   3.181   5.993  12.835 -0.1438 -0.8824  1.3926
12109TIP3    H257819   3.258   5.895  12.750  0.4514  1.1313 -0.4615
12110TIP3   OH257820   3.380   2.836  15.041  0.8061  0.2599 -0.0641
12110TIP3    H157821   3.391   2.893  14.965 -0.9017  0.1255 -0.4668
12110TIP3    H257822   3.344   2.755  15.005 -0.3774  0.3248  0.8856
12111TIP3   OH257823   0.678   6.686   4.299 -0.5867  0.3762 -0.0791
12111TIP3    H157824   0.747   6.752   4.305 -0.2800  0.1664 -1.0438
12111TIP3    H257825   0.633   6.706   4.216 -1.3986  0.2340  0.3152
12112TIP3   OH257826   0.446   6.499  13.102 -0.4775  0.7511  0.6206
12112TIP3    H157827   0.493   6.425  13.064 -1.3001  0.4533  0.1457
12112TIP3    H257828   0.497   6.576  13.076  0.2588  0.3669  0.9265
12113TIP3   OH257829   5.577   0.055  12.477 -0.2552 -0.2972  0.1149
12113TIP3    H157830   5.504   0.079  12.420 -0.1946  0.8677  0.4967
12113TIP3    H257831   5.618  -0.019  12.433 -1.6921 -1.0285 -0.0787
12114TIP3   OH257832   5.178   2.251   1.081 -0.1111  0.1604 -0.7190
12114TIP3    H157833   5.173   2.164   1.121 -0.9613  0.9141  0.9143
12114TIP3    H257834   5.168   2.235   0.987  0.1964 -1.5352 -0.4839
12115TIP3   OH257835   3.706   6.720  15.193  0.4958  0.6566 -0.0352
12115TIP3    H157836   3.737   6.728  15.283 -0.4118 -1.1918  0.4766
12115TIP3    H257837   3.624   6.769  15.192  0.1016  0.0171  0.3690
12116TIP3   OH257838   0.391   0.055   0.642  0.1594  0.8430 -0.1054
12116TIP3    H157839   0.386   0.125   0.577  0.3790  0.1142 -0.9374
12116TIP3    H257840   0.303   0.047   0.677  0.2693  1.9495  0.4631
12117TIP3   OH257841   2.688   0.202   5.410 -0.4279  0.3931 -0.0556
12117TIP3    H157842   2.711   0.121   5.366  0.9668 -0.1488  1.5539
12117TIP3    H257843   2.595   0.214   5.393 -0.4911 -1.1508 -0.9152
12118TIP3   OH257844   0.039   5.493  16.791  0.2991 -0.1443 -0.8117
12118TIP3    H157845  -0.025   5.561  16.773  2.2015  1.2225 -3.1587
12118TIP3    H257846   0.099   5.532  16.855  0.0495 -0.5701 -0.3093
12119TIP3   OH257847   2.041   5.920   5.366  0.0086 -0.1653 -0.2379
12119TIP3    H157848   2.002   5.883   5.287 -0.7976  0.8768 -0.3460
12119TIP3    H257849   2.094   5.848   5.402 -2.1788 -1.7488  0.0506
12120TIP3   OH257850   4.418   2.540  10.810 -0.1859  0.0887 -0.1015
12120TIP3    H157851   4.353   2.499  10.753 -0.0082 -1.7326  0.9143
12120TIP3    H257852   4.500   2.497  10.789  0.0366 -0.0280  0.9530
12121TIP3   OH257853   4.340   5.860  14.617  0.0389  0.8873 -0.0987
12121TIP3    H157854   4.373   5.788  14.671  1.2621  1.0168 -0.6451
12121TIP3    H257855   4.301   5.817  14.541  0.9349  0.7933 -0.5155
12122TIP3   OH257856   1.667   5.216   2.243  0.7674 -0.6169 -0.2224
12122TIP3    H157857   1.649   5.209   2.337 -0.0521  1.7747 -0.1250
12122TIP3    H257858   1.762   5.223   2.238  0.7296  2.2922  0.8226
12123TIP3   OH257859   5.748   2.374  13.897  0.3815 -0.2582  0.6636
12123TIP3    H157860   5.810   2.363  13.825 -0.8700 -3.0567 -0.1149
12123TIP3    H257861   5.664   2.343  13.861 -0.9837  1.1361  2.4262
12124TIP3   OH257862   3.666   4.901   5.641  0.0285 -0.1191  0.1504
12124TIP3    H157863   3.602   4.885   5.572 -1.8943  3.4479  0.8668
12124TIP3    H257864   3.730   4.961   5.602  1.8314 -1.9780  0.0863
12125TIP3   OH257865   1.485   4.871  11.524 -0.9899 -0.6686  0.3024
12125TIP3    H157866   1.471   4.777  11.533 -0.4104 -0.7725  0.1860
12125TIP3    H257867   1.504   4.901  11.613  1.1121 -1.0697  0.0352
12126TIP3   OH257868   0.800   6.638  14.227  0.4814 -0.0767  0.4239
12126TIP3    H157869   0.753   6.567  14.183  0.3193  1.0748 -1.3566
12126TIP3    H257870   0.891   6.625  14.202  0.3209  0.8776 -0.7649
12127TIP3   OH257871   5.100   3.055  14.099  0.1062 -0.4986  0.3762
12127TIP3    H157872   5.109   3.032  14.192  0.4703  0.5188  0.6003
12127TIP3    H257873   5.023   3.007  14.070 -0.2656 -0.4878  1.3146
12128TIP3   OH257874   3.471   5.798  14.127 -0.1378  0.7378  0.9707
12128TIP3    H157875   3.518   5.854  14.065  0.7616 -0.1245  0.8446
12128TIP3    H257876   3.540   5.752  14.175 -0.7433 -2.2570 -0.7348
12129TIP3   OH257877   0.317   5.797  14.779 -0.0774  0.0691  0.4995
12129TIP3    H157878   0.380   5.734  14.815 -1.6191 -0.6056  2.1530
12129TIP3    H257879   0.245   5.743  14.746  0.1657  0.8283 -1.4092
12130TIP3   OH257880   5.373   1.358   6.217  0.2568  0.1125 -0.0443
12130TIP3    H157881   5.301   1.417   6.239  0.6646  0.0682  1.5227
12130TIP3    H257882   5.337   1.270   6.235  0.4249  0.0432 -0.0463
12131TIP3   OH257883   6.197   4.775  16.274  0.1919 -0.0838 -0.2950
12131TIP3    H157884   6.171   4.866  16.291 -3.9735 -1.3842  1.9077
12131TIP3    H257885   6.270   4.760  16.334  0.4001  1.5685 -0.0783
12132TIP3   OH257886   3.398   4.028   2.166  0.2386  0.4844 -0.0146
12132TIP3    H157887   3.369   3.938   2.183 -1.0949  0.4183 -2.2538
12132TIP3    H257888   3.367   4.077   2.242 -1.5959 -0.4652 -0.0871
12133TIP3   OH257889   3.803   4.576   1.567  0.0753 -0.0390  0.0139
12133TIP3    H157890   3.844   4.634   1.503 -0.6438 -0.4516 -0.8480
12133TIP3    H257891   3.855   4.587   1.647  0.4018  1.2223 -0.3450
12134TIP3   OH257892   4.583   5.819  15.977  0.3091  0.6085  0.0742
12134TIP3    H157893   4.502   5.826  16.026 -0.4915 -0.7012 -1.0151
12134TIP3    H257894   4.618   5.733  15.998 -0.3290 -0.2058 -2.0146
12135TIP3   OH257895   3.244   0.587  11.608  0.0940 -0.0189 -0.1570
12135TIP3    H157896   3.273   0.643  11.535  2.2734  1.1007  1.4212
12135TIP3    H257897   3.238   0.500  11.570 -0.8956  0.8417 -2.1303
12136TIP3   OH257898   4.753   6.794  11.524 -0.2668  0.2378  0.1245
12136TIP3    H157899   4.780   6.881  11.498  2.4294 -0.2309  1.0685
12136TIP3    H257900   4.806   6.774  11.601  0.2926 -2.7630 -0.9003
12137TIP3   OH257901   2.043   6.721   3.053 -0.8581  0.0924  0.1789
12137TIP3    H157902   2.058   6.755   2.965 -1.1598 -0.5252 -0.1154
12137TIP3    H257903   1.953   6.688   3.052 -0.4493 -1.0686  0.3295
12138TIP3   OH257904   5.265   3.065   0.431 -0.6396 -0.2433 -0.0069
12138TIP3    H157905   5.248   3.078   0.524 -1.8829  2.3349 -0.5012
12138TIP3    H257906   5.191   3.013   0.400 -0.2102 -1.1294  0.4172
12139TIP3   OH257907   6.042   5.672  14.575 -0.3546  0.2568  0.1320
12139TIP3    H157908   5.982   5.744  14.556 -0.3706 -0.1283 -1.4479
12139TIP3    H257909   6.062   5.634  14.489  0.6133 -0.8554  0.8103
12140TIP3   OH257910   4.911   3.150   4.339  0.5580 -0.1313  0.2159
12140TIP3    H157911   4.909   3.232   4.290 -2.7539  0.6325  1.3668
12140TIP3    H257912   4.980   3.162   4.404  2.7776  0.1163 -2.0848
12141TIP3   OH257913   2.785   6.005   4.745 -0.7775 -0.4303 -0.5506
12141TIP3    H157914   2.816   6.088   4.782 -0.6970 -0.7902  0.2059
12141TIP3    H257915   2.841   5.939   4.785 -1.6166 -0.9652 -0.2371
12142TIP3   OH257916   3.938   4.815   0.702 -0.1679  0.1963 -0.1205
12142TIP3    H157917   3.852   4.841   0.672 -0.7937 -0.8230  0.7004
12142TIP3    H257918   3.972   4.759   0.633  1.1242  2.8584 -1.8263
12143TIP3   OH257919   3.782   0.608   3.374  0.1075 -0.1631 -0.7235
12143TIP3    H157920   3.800   0.517   3.398  1.1468 -0.2170 -1.6659
12143TIP3    H257921   3.753   0.649   3.456  5.0207  0.0736  1.2202
12144TIP3   OH257922   3.714   2.600  10.723 -0.1713  0.4138 -0.2235
12144TIP3    H157923   3.676   2.658  10.657 -0.9198 -1.5182 -1.5905
12144TIP3    H257924   3.666   2.620  10.803 -0.5170  1.5434 -0.6847
12145TIP3   OH257925   1.746   5.738   2.863 -0.1141  0.0397  0.2001
12145TIP3    H157926   1.772   5.647   2.852  1.2425  0.2203  1.5217
12145TIP3    H257927   1.668   5.748   2.809 -1.4704 -2.4122  1.5623
12146TIP3   OH257928   3.807   5.782   6.005 -0.1256  0.5589 -0.1031
12146TIP3    H157929   3.795   5.737   5.921 -1.2720  1.1000 -0.2505
12146TIP3    H257930   3.740   5.745   6.062  1.3498 -0.5985  0.9392
12147TIP3   OH257931   2.616   6.535  11.485  0.8193 -0.0624 -0.2690
12147TIP3    H157932   2.657   6.530  11.398  1.8879  1.5101  0.1151
12147TIP3    H257933   2.690   6.542  11.546  0.0506 -0.1929  0.7023
12148TIP3   OH257934   5.970   3.088  11.664  0.1744  0.0849 -0.0946
12148TIP3    H157935   6.036   3.048  11.606 -0.1597 -3.1259  1.5162
12148TIP3    H257936   6.019   3.154  11.713  2.0982 -1.5964  0.4245
12149TIP3   OH257937   3.409   2.536  11.220 -0.0089 -0.0717  0.3371
12149TIP3    H157938   3.342   2.541  11.152  0.7635  2.1709 -0.3313
12149TIP3    H257939   3.364   2.563  11.300 -0.5296 -1.1921  0.4408
12150TIP3   OH257940   3.725   1.511  14.866 -0.8377 -0.0290 -0.2755
12150TIP3    H157941   3.674   1.591  14.852  0.7183  1.1232  0.2532
12150TIP3    H257942   3.738   1.474  14.779 -0.4832  1.0371 -0.6929
12151TIP3   OH257943   0.585   1.186  11.746 -0.0110  0.3482 -0.0593
12151TIP3    H157944   0.636   1.160  11.670 -1.5959  2.3086 -1.9354
12151TIP3    H257945   0.503   1.138  11.738  0.5711 -1.0760  1.6919
12152TIP3   OH257946   5.535   2.708   2.793  0.7208 -0.6859  0.8726
12152TIP3    H157947   5.510   2.790   2.752  2.4152 -0.7037 -0.3231
12152TIP3    H257948   5.520   2.642   2.726  0.4512 -1.2009  1.4297
12153TIP3   OH257949   0.365   4.027   5.103 -0.3360  0.8262  0.0192
12153TIP3    H157950   0.444   4.059   5.146  0.9760 -0.6439 -1.1821
12153TIP3    H257951   0.345   3.944   5.147 -0.2749  0.4161 -0.7065
12154TIP3   OH257952   0.900   2.857  11.449 -0.2311 -0.0056  0.0976
12154TIP3    H157953   0.934   2.941  11.479  3.0499 -1.3698  0.6826
12154TIP3    H257954   0.933   2.849  11.359 -0.7613 -0.5374 -0.0531
12155TIP3   OH257955   1.683   0.398  14.013 -0.9897 -0.2189  0.3113
12155TIP3    H157956   1.729   0.386  14.097 -1.3342  2.4312  0.9743
12155TIP3    H257957   1.686   0.493  13.998 -1.7350 -0.5324 -2.2532
12156TIP3   OH257958   2.356   5.719   4.696 -0.2460 -0.4732 -0.4193
12156TIP3    H157959   2.401   5.668   4.763 -2.1995  0.0244  1.3547
12156TIP3    H257960   2.421   5.785   4.668  0.3714 -0.1899  1.5608
12157TIP3   OH257961   0.826   2.997   5.020  0.2378 -0.0161 -0.0175
12157TIP3    H157962   0.781   2.965   4.942 -0.2957  2.0564 -0.6171
12157TIP3    H257963   0.798   3.088   5.029  3.7012  1.2277 -0.0041
12158TIP3   OH257964   6.003   5.109  11.553  0.1550 -0.1350  0.3593
12158TIP3    H157965   6.050   5.123  11.635  1.3641  1.2920 -0.5342
12158TIP3    H257966   6.043   5.031  11.516  1.8431  1.0384 -0.3674
12159TIP3   OH257967   6.073   3.897  16.198 -0.0974 -0.5907  0.1313
12159TIP3    H157968   6.077   3.802  16.197 -0.2411 -0.5968  0.0826
12159TIP3    H257969   5.999   3.917  16.256 -0.6365 -0.5289 -0.5632
12160TIP3   OH257970   0.088   0.675  13.323  0.0118 -0.1114 -0.0589
12160TIP3    H157971   0.001   0.667  13.285  0.5274 -0.9836 -1.1152
12160TIP3    H257972   0.088   0.614  13.397 -0.4995  0.4600  0.4307
12161TIP3   OH257973   4.791   3.754   3.176  0.0720  0.6345 -0.4255
12161TIP3    H157974   4.713   3.803   3.150  0.2313  1.3206  0.3237
12161TIP3    H257975   4.760   3.690   3.239  0.1326  1.0615  0.0492
12162TIP3   OH257976   1.035   0.024   5.400  0.4225 -0.4702  0.2982
12162TIP3    H157977   1.045  -0.012   5.312  0.8296 -0.6848  0.4312
12162TIP3    H257978   0.955  -0.016   5.433 -0.0124  0.0048 -0.1632
12163TIP3   OH257979   1.540   0.114  14.584  0.3176  0.2112 -0.3910
12163TIP3    H157980   1.633   0.134  14.577  0.3756  0.6901  1.1780
12163TIP3    H257981   1.537   0.028  14.627  0.0374 -0.1426 -1.1091
12164TIP3   OH257982   6.190   0.666  16.665  0.3533  0.1359  0.1141
12164TIP3    H157983   6.272   0.715  16.657  0.5070 -0.3483 -1.5547
12164TIP3    H257984   6.127   0.730  16.698  1.1677  0.7525  0.5203
12165TIP3   OH257985   3.844   3.632  13.521  0.1557  0.6137 -0.0290
12165TIP3    H157986   3.871   3.717  13.487  1.3462  0.4612  0.4925
12165TIP3    H257987   3.805   3.588  13.446 -1.1612  1.8804 -0.1314
12166TIP3   OH257988   3.005   3.595  13.771  0.4736 -0.4987 -0.4457
12166TIP3    H157989   2.989   3.509  13.811  2.1173 -0.9888 -0.7392
12166TIP3    H257990   3.005   3.656  13.844  2.3558 -1.2259  0.2321
12167TIP3   OH257991   3.849   5.576  13.857  0.8194 -0.2145 -0.3605
12167TIP3    H157992   3.812   5.521  13.926  0.6866  1.5092  1.0155
12167TIP3    H257993   3.827   5.530  13.776 -0.2455 -1.6046  0.6490
12168TIP3   OH257994   0.344   3.712  12.229  0.7379  0.0482  0.3249
12168TIP3    H157995   0.270   3.704  12.168  0.6327  0.8276  0.3448
12168TIP3    H257996   0.321   3.653  12.302  0.7818 -0.7554 -0.2926
12169TIP3   OH257997   1.788   4.073   3.274  0.0628 -0.3008 -0.6265
12169TIP3    H157998   1.832   3.991   3.247  1.2633  0.1576 -0.1284
12169TIP3    H257999   1.810   4.082   3.366 -0.2573  0.4673 -0.6240
12170TIP3   OH258000   3.513   5.570   5.809 -0.1332  0.2439  0.1452
12170TIP3    H158001   3.426   5.600   5.835 -0.1395  0.4308 -0.0844
12170TIP3    H258002   3.546   5.522   5.885  0.3810  1.8854  1.0138
12171TIP3   OH258003   6.492   1.061  16.805  0.2105 -0.1829 -0.0451
12171TIP3    H158004   6.409   1.098  16.835  0.7094  0.4014  0.6368
12171TIP3    H258005   6.506   1.102  16.719  0.2556  0.4448  0.2541
12172TIP3   OH258006   3.637   4.455   2.882 -0.3371  0.0444  0.0878
12172TIP3    H158007   3.622   4.432   2.790 -0.4627  0.1744  0.0753
12172TIP3    H258008   3.654   4.549   2.881  1.8663 -0.2986 -0.0652
12173TIP3   OH258009   1.148   0.078  16.945  0.1458 -0.1474 -0.1903
12173TIP3    H158010   1.105   0.064  17.029 -0.5173 -0.8362 -0.6342
12173TIP3    H258011   1.078   0.066  16.880  0.2646  1.9776 -0.7802
12174TIP3   OH258012   2.659   5.231   2.080  0.3462 -0.5747  0.2177
12174TIP3    H158013   2.594   5.218   2.010 -0.6590 -0.0780  1.0267
12174TIP3    H258014   2.722   5.293   2.043 -0.4960  0.1377 -0.0508
12175TIP3   OH258015   1.340   4.898   1.866 -0.4149  0.2007  0.1988
12175TIP3    H158016   1.259   4.869   1.823 -0.4163  0.1866  0.2111
12175TIP3    H258017   1.318   4.900   1.959 -0.6195  0.8944  0.1393
12176TIP3   OH258018   4.179   6.460  17.206 -0.0688 -0.0284  0.1899
12176TIP3    H158019   4.268   6.444  17.175 -0.8145 -0.2598 -1.9995
12176TIP3    H258020   4.190   6.490  17.296  2.1823 -0.4968  0.1287
12177TIP3   OH258021   1.673   0.518  11.540  0.2490  0.2572  0.8606
12177TIP3    H158022   1.739   0.569  11.492 -0.7262  1.1304  0.4014
12177TIP3    H258023   1.611   0.584  11.572 -0.7476 -0.5968  0.7274
12178TIP3   OH258024   3.547   2.502   1.393 -0.0945 -0.4483  0.1207
12178TIP3    H158025   3.479   2.498   1.326 -1.0817 -1.3958  1.1381
12178TIP3    H258026   3.614   2.560   1.356 -0.8520 -0.5225 -1.4429
12179TIP3   OH258027   3.105   1.860  13.662  0.0910 -0.0811  0.1915
12179TIP3    H158028   3.174   1.866  13.729  0.5101  0.3600 -0.2662
12179TIP3    H258029   3.047   1.933  13.682 -1.5199 -1.7429  1.9380
12180TIP3   OH258030   4.768   6.661  12.961 -0.3363 -0.4825  0.8719
12180TIP3    H158031   4.743   6.583  13.011  2.0710 -1.1127  1.2278
12180TIP3    H258032   4.805   6.627  12.880 -0.2502  0.3500  0.5539
12181TIP3   OH258033   6.227   5.266  14.544 -0.3524  0.2027  0.1659
12181TIP3    H158034   6.264   5.198  14.601  1.3032  1.2062  0.3744
12181TIP3    H258035   6.288   5.339  14.552  0.0320  0.3750 -2.9362
12182TIP3   OH258036   3.709   6.289   1.165  0.0115  0.5792  0.5374
12182TIP3    H158037   3.649   6.281   1.092 -0.0514 -2.0598  0.7949
12182TIP3    H258038   3.685   6.371   1.208 -1.9579  0.6457 -0.6198
12183TIP3   OH258039   0.152   1.654   4.500  0.0172 -0.1780 -0.0647
12183TIP3    H158040   0.203   1.686   4.574 -0.8886  0.0927  0.4547
12183TIP3    H258041   0.150   1.559   4.511 -0.1481 -0.1349  0.2859
12184TIP3   OH258042   0.628   5.750  15.509  0.5259  0.4443  0.3763
12184TIP3    H158043   0.641   5.793  15.593 -0.7581  0.4294  0.5998
12184TIP3    H258044   0.575   5.673  15.529  1.3165 -0.2889 -0.2693
12185TIP3   OH258045   4.992   6.402  10.739 -0.0495 -0.1309  0.0499
12185TIP3    H158046   5.059   6.469  10.755  0.5196 -0.5528 -0.5220
12185TIP3    H258047   5.040   6.320  10.734 -0.5976 -0.4307 -0.4734
12186TIP3   OH258048   2.168   3.862   0.877 -0.0160 -0.4537 -0.1368
12186TIP3    H158049   2.192   3.799   0.809  0.7504 -1.3978  0.9740
12186TIP3    H258050   2.087   3.902   0.845  0.1909 -1.0663 -1.4751
12187TIP3   OH258051   6.683   2.645  17.232 -0.7688 -0.5108  0.0202
12187TIP3    H158052   6.658   2.558  17.262  0.5310 -0.6113  0.8650
12187TIP3    H258053   6.615   2.703  17.266 -0.9460 -1.0272  0.5514
12188TIP3   OH258054   1.859   4.085  14.050  0.3788 -0.5502 -0.3563
12188TIP3    H158055   1.771   4.121  14.064  0.1288 -1.3769  0.2044
12188TIP3    H258056   1.904   4.153  13.999 -1.3280 -1.0808 -2.7957
12189TIP3   OH258057   6.233   0.281   6.187  0.2611  0.1573  0.0860
12189TIP3    H158058   6.227   0.283   6.092 -0.5197 -1.0163  0.0820
12189TIP3    H258059   6.290   0.354   6.209  0.5063  0.4117 -1.2817
12190TIP3   OH258060   1.892   4.447   0.629 -0.1673 -0.0840  0.3918
12190TIP3    H158061   1.920   4.492   0.709  1.2417 -0.6656  0.2538
12190TIP3    H258062   1.907   4.354   0.647  0.4711 -0.1968 -0.6466
12191TIP3   OH258063   0.825   1.195   4.188  0.1183  0.4531  0.0998
12191TIP3    H158064   0.918   1.201   4.166  0.2525  0.0722  0.5567
12191TIP3    H258065   0.822   1.205   4.283 -0.0156 -2.3173  0.4666
12192TIP3   OH258066   1.137   3.698   1.075 -0.5143  0.3585  0.1383
12192TIP3    H158067   1.052   3.717   1.035 -0.9644 -0.0511  0.8606
12192TIP3    H258068   1.136   3.746   1.157 -0.6064 -0.6737  0.7661
12193TIP3   OH258069   5.472   3.174  15.907  0.5309  0.1642  0.5366
12193TIP3    H158070   5.442   3.259  15.873  1.5643  0.0253 -0.8080
12193TIP3    H258071   5.402   3.113  15.884  0.3602  0.4241  0.3532
12194TIP3   OH258072   2.321   1.060  14.634 -0.7226 -0.0101 -0.0634
12194TIP3    H158073   2.351   1.101  14.553  0.7686  0.6278  0.7607
12194TIP3    H258074   2.245   1.112  14.660 -1.6653 -0.6578 -1.3750
12195TIP3   OH258075   6.314   5.069  11.305  0.3993 -0.2170 -0.1968
12195TIP3    H158076   6.367   5.104  11.376  0.8073 -0.2531 -0.4806
12195TIP3    H258077   6.353   5.105  11.225  0.6487 -1.0756 -0.4743
12196TIP3   OH258078   4.977   4.235   3.818 -0.1384  0.3040  0.0641
12196TIP3    H158079   4.920   4.221   3.742 -2.5692 -0.2719  1.8730
12196TIP3    H258080   5.012   4.323   3.806 -0.2546  0.1268 -1.8423
12197TIP3   OH258081   6.722   4.157  16.038  0.9681  0.5016  0.2666
12197TIP3    H158082   6.701   4.074  16.079  0.7433 -0.0272 -0.8802
12197TIP3    H258083   6.810   4.178  16.069  0.3480  0.7625  1.9832
12198TIP3   OH258084   0.745   0.446   5.222 -0.0901 -0.0310  0.3367
12198TIP3    H158085   0.699   0.494   5.291 -1.5466 -1.5659  0.5056
12198TIP3    H258086   0.713   0.356   5.230 -0.1764 -0.2970 -2.2469
12199TIP3   OH258087   1.837   5.467  10.593 -0.1803  0.1438  0.1491
12199TIP3    H158088   1.859   5.376  10.569 -2.6580 -1.4140  3.0897
12199TIP3    H258089   1.773   5.493  10.527  0.4987 -0.2180 -0.6888
12200TIP3   OH258090   2.300   6.274  12.232 -0.2291  0.4092  0.2069
12200TIP3    H158091   2.224   6.221  12.207 -0.6952  0.0507  2.1609
12200TIP3    H258092   2.329   6.315  12.151  0.0875 -2.7285 -1.4249
12201TIP3   OH258093   2.599   3.527  17.233 -0.0301 -0.3104 -0.1823
12201TIP3    H158094   2.567   3.523  17.143 -0.6749  1.9649 -0.1236
12201TIP3    H258095   2.688   3.493  17.228 -0.2443 -0.7376 -1.5703
12202TIP3   OH258096   4.374   0.025   4.770  0.0714  0.1235  0.2879
12202TIP3    H158097   4.465   0.036   4.743  0.0528 -0.2642  0.0682
12202TIP3    H258098   4.334   0.111   4.753  0.3138  0.1959  0.0775
12203TIP3   OH258099   5.448   0.582  12.882  0.0465 -0.3297  0.4331
12203TIP3    H158100   5.430   0.650  12.817  0.5064 -1.3647 -0.8080
12203TIP3    H258101   5.415   0.501  12.843  1.6394 -1.2185  0.8216
12204TIP3   OH258102   3.530   0.510   6.436  0.7443 -0.1575  0.2338
12204TIP3    H158103   3.591   0.437   6.432  0.7728 -0.1041 -0.3830
12204TIP3    H258104   3.455   0.476   6.484  0.7772 -0.5742 -0.0073
12205TIP3   OH258105   2.081   2.162  16.589 -0.7002 -0.1696 -0.1680
12205TIP3    H158106   2.022   2.087  16.582  0.7647 -1.4202  0.3116
12205TIP3    H258107   2.043   2.216  16.658 -1.0222 -1.1997  0.4752
12206TIP3   OH258108   4.242   6.764   4.980  0.4707  0.1632 -0.0537
12206TIP3    H158109   4.297   6.777   4.903  0.8645 -1.3689 -0.0642
12206TIP3    H258110   4.291   6.700   5.033 -0.6858 -0.2335  0.5546
12207TIP3   OH258111   1.675   4.569   5.033 -0.9019  0.2529  0.3385
12207TIP3    H158112   1.630   4.558   4.949  0.7705 -1.5384 -0.4051
12207TIP3    H258113   1.706   4.482   5.056 -0.1532  0.9404  2.1662
12208TIP3   OH258114   4.750   0.976   0.553 -0.3103 -0.4879  0.4820
12208TIP3    H158115   4.825   1.028   0.581  0.6558 -2.1208  1.1313
12208TIP3    H258116   4.787   0.912   0.491 -1.5664  0.0039 -0.8448
12209TIP3   OH258117   4.213   5.367   2.554 -0.2483 -0.0439  0.3766
12209TIP3    H158118   4.162   5.289   2.532 -1.7256  1.4793 -2.2123
12209TIP3    H258119   4.147   5.432   2.579  0.3294  1.8163 -2.4868
12210TIP3   OH258120   5.701   2.153  13.410 -0.2702  0.0970 -0.3929
12210TIP3    H158121   5.697   2.058  13.398 -0.6227 -0.2148  1.8066
12210TIP3    H258122   5.794   2.174  13.400 -0.2774 -0.3442 -1.5811
12211TIP3   OH258123   1.096   3.485   5.729  0.9418 -0.2621  0.0233
12211TIP3    H158124   1.021   3.495   5.788  0.2097 -0.5409 -0.8393
12211TIP3    H258125   1.109   3.573   5.692  2.4302  0.3133  1.7665
12212TIP3   OH258126   6.434   1.438   5.657 -0.3302  0.1375 -0.1602
12212TIP3    H158127   6.487   1.515   5.636 -2.2058  1.1658 -1.3723
12212TIP3    H258128   6.395   1.459   5.742  0.9277 -0.5080  0.6075
12213TIP3   OH258129   5.922   1.122   2.932  0.3785  0.2323  0.1292
12213TIP3    H158130   5.932   1.098   3.024  0.4064 -0.5126 -0.0625
12213TIP3    H258131   6.012   1.133   2.900  0.3976 -0.2800 -0.0028
12214TIP3   OH258132   3.205   5.923   1.493 -0.3984  0.1652  0.5592
12214TIP3    H158133   3.234   5.924   1.402 -1.2508 -1.1868  0.2456
12214TIP3    H258134   3.267   5.866   1.538  0.9228  2.0006  1.1946
12215TIP3   OH258135   2.077   2.977   2.102 -0.3532  0.2697 -0.5215
12215TIP3    H158136   2.074   2.994   2.007  1.8589 -0.5289 -0.7971
12215TIP3    H258137   2.001   3.024   2.137 -2.2058 -0.7360 -2.8603
12216TIP3   OH258138   3.000   2.944  15.371  0.2271 -0.5915 -0.1593
12216TIP3    H158139   3.005   2.967  15.464 -0.1208 -0.5506 -0.1469
12216TIP3    H258140   3.030   2.854  15.366  1.9362 -0.0566 -0.2519
12217TIP3   OH258141   1.898   1.353  12.442 -0.2463 -0.6798  0.2712
12217TIP3    H158142   1.809   1.342  12.410 -0.8382  1.2263  1.0858
12217TIP3    H258143   1.906   1.291  12.514 -1.6087  0.4151  1.4260
12218TIP3   OH258144   2.761   1.894  15.681  0.1691  0.7385 -0.3947
12218TIP3    H158145   2.768   1.984  15.715  0.7601  0.5276  0.0373
12218TIP3    H258146   2.793   1.900  15.591 -2.3154  1.5010 -1.3186
12219TIP3   OH258147   3.471   4.164   3.305  0.0053  0.0981 -0.0936
12219TIP3    H158148   3.385   4.198   3.331  0.1868  0.9788 -0.5941
12219TIP3    H258149   3.498   4.220   3.232  0.8946 -0.3253 -0.1078
12220TIP3   OH258150   6.473   3.748   4.595 -0.2430  0.9778 -0.3345
12220TIP3    H158151   6.418   3.820   4.626  3.1996  2.7704  2.3120
12220TIP3    H258152   6.481   3.762   4.500 -2.1845  2.1397 -0.3621
12221TIP3   OH258153   5.036   1.879  12.656 -0.1780  0.7385 -0.0390
12221TIP3    H158154   5.076   1.963  12.681 -1.1167  1.7725 -1.8663
12221TIP3    H258155   5.067   1.863  12.567  0.9549 -1.5110  0.6834
12222TIP3   OH258156   3.779   5.005  13.445  0.0290 -0.6732 -0.1894
12222TIP3    H158157   3.782   4.918  13.406  1.0194 -0.4966 -0.5375
12222TIP3    H258158   3.787   4.990  13.539  0.5383 -0.9511 -0.2718
12223TIP3   OH258159   1.273   2.695   0.867  0.0321 -0.5785 -0.1390
12223TIP3    H158160   1.242   2.740   0.945 -0.2195 -0.4428 -0.3136
12223TIP3    H258161   1.196   2.649   0.834 -0.0745  0.0298 -0.7682
12224TIP3   OH258162   1.915   3.292   5.402 -0.1935  0.6319 -0.2025
12224TIP3    H158163   1.866   3.298   5.320 -1.9180 -0.0871  0.7185
12224TIP3    H258164   1.890   3.370   5.451 -0.9180 -0.0312  0.5151
12225TIP3   OH258165   5.885   4.887   0.931 -0.3002  0.3485  0.1854
12225TIP3    H158166   5.933   4.937   0.865  0.0330  0.4835  0.5242
12225TIP3    H258167   5.942   4.888   1.008 -1.0736  0.9526  0.7688
12226TIP3   OH258168   2.139   3.255   1.403  0.1050 -0.2078  0.0141
12226TIP3    H158169   2.160   3.276   1.494  0.1408 -1.0300  0.1969
12226TIP3    H258170   2.084   3.177   1.408  0.7376 -0.7141 -0.7153
12227TIP3   OH258171   2.255   1.114   2.828  0.1325  0.5131  0.3276
12227TIP3    H158172   2.337   1.161   2.814 -0.0047  1.1597  1.6255
12227TIP3    H258173   2.253   1.094   2.921 -1.0191  0.1796  0.2579
12228TIP3   OH258174   1.214   5.553  11.927  0.0536 -0.0072  0.6404
12228TIP3    H158175   1.304   5.531  11.950 -0.6193 -1.7847  1.7983
12228TIP3    H258176   1.211   5.649  11.931  1.5905  0.0381  1.7482
12229TIP3   OH258177   2.007   2.870  13.602  0.7764  0.4408 -0.5495
12229TIP3    H158178   2.097   2.902  13.593  1.1429 -0.2762  0.3115
12229TIP3    H258179   1.964   2.935  13.657  1.0072  0.3845 -0.2962
12230TIP3   OH258180   2.527   2.925   1.745 -0.2514 -0.4907 -0.0836
12230TIP3    H158181   2.589   2.996   1.761 -1.6573  0.4677  1.4023
12230TIP3    H258182   2.570   2.847   1.779  0.4449  0.0111  0.2081
12231TIP3   OH258183   6.489   1.114  16.524 -0.2791  0.0813 -0.2760
12231TIP3    H158184   6.546   1.186  16.500  1.6775 -1.9081 -1.9755
12231TIP3    H258185   6.414   1.121  16.465  1.3499 -0.9337 -2.6049
12232TIP3   OH258186   0.255   3.920  11.401 -0.0785 -0.7369 -0.1700
12232TIP3    H158187   0.216   3.906  11.314  1.2438  0.4778 -1.0086
12232TIP3    H258188   0.191   3.972  11.448 -1.2222 -2.1767 -0.0554
12233TIP3   OH258189   1.941   1.190  10.849 -0.9048 -0.2070  0.1224
12233TIP3    H158190   2.004   1.259  10.828 -0.9873 -0.0029  0.5390
12233TIP3    H258191   1.982   1.109  10.816 -0.4601 -0.0650  0.3240
12234TIP3   OH258192   2.332   0.448  11.075  0.0605 -0.6499 -0.5517
12234TIP3    H158193   2.383   0.514  11.026 -0.3133 -0.1120 -0.2224
12234TIP3    H258194   2.397   0.384  11.102  0.4573 -0.3379 -0.7442
12235TIP3   OH258195   2.771   2.496   0.255  0.0543  0.5277 -0.2338
12235TIP3    H158196   2.722   2.548   0.319  0.3649  0.4876  0.0424
12235TIP3    H258197   2.805   2.560   0.192 -0.0841  0.5907 -0.2429
12236TIP3   OH258198   4.989   5.539  13.096 -0.1318 -0.6522 -0.5077
12236TIP3    H158199   4.904   5.503  13.071  0.1924 -0.3094 -2.1794
12236TIP3    H258200   4.985   5.632  13.071  0.4370 -0.4257  0.1876
12237TIP3   OH258201   5.745   4.385  14.723 -0.4279  0.2945 -0.0348
12237TIP3    H158202   5.809   4.450  14.696 -0.4066 -0.2385 -1.3013
12237TIP3    H258203   5.694   4.366  14.644  0.1567 -1.9021  0.0533
12238TIP3   OH258204   0.666   4.734   0.387 -0.3087 -0.4914  0.4199
12238TIP3    H158205   0.690   4.775   0.304 -1.5016  1.7986  1.1324
12238TIP3    H258206   0.730   4.663   0.398  1.0294  0.3394 -1.5344
12239TIP3   OH258207   1.540   3.531  11.920  0.4137  0.5378  0.7591
12239TIP3    H158208   1.597   3.568  11.987  0.1066  0.5825  0.9978
12239TIP3    H258209   1.451   3.547  11.952  0.2730 -0.2983  0.8119
12240TIP3   OH258210   2.897   1.049  16.451  0.1720 -0.6307 -0.1421
12240TIP3    H158211   2.909   1.079  16.361 -1.4643 -0.6725 -0.4053
12240TIP3    H258212   2.957   1.103  16.502  0.4217  0.0681 -1.1341
12241TIP3   OH258213   6.662   4.424   2.877  0.7393  0.8630 -0.2359
12241TIP3    H158214   6.706   4.346   2.912  0.9663  0.5968 -1.0808
12241TIP3    H258215   6.707   4.442   2.795 -0.3481  0.9340 -0.8339
12242TIP3   OH258216   1.882   2.520   4.054 -0.4410 -0.0796 -0.0866
12242TIP3    H158217   1.976   2.515   4.038 -0.2602  0.0610  0.8339
12242TIP3    H258218   1.867   2.612   4.077 -0.8350 -0.0608 -0.4150
12243TIP3   OH258219   4.912   2.012  16.239 -0.7163 -0.3112  0.8465
12243TIP3    H158220   4.951   2.086  16.192 -0.1437 -0.9886  0.2127
12243TIP3    H258221   4.972   1.995  16.311 -1.2327  0.2896  1.4359
12244TIP3   OH258222   4.564   6.370   2.853 -0.9799  0.1555  0.2111
12244TIP3    H158223   4.607   6.442   2.899 -2.0013  1.2624 -0.5119
12244TIP3    H258224   4.523   6.319   2.922 -1.2676  0.9623  0.6472
12245TIP3   OH258225   1.100   6.438  15.288  0.5011 -0.5200 -0.1347
12245TIP3    H158226   1.101   6.533  15.283 -1.1668 -0.2978  2.0737
12245TIP3    H258227   1.150   6.417  15.368  0.3741 -1.4527 -0.2805
12246TIP3   OH258228   4.906   1.164  16.158  0.3507 -0.5567  0.2230
12246TIP3    H158229   4.984   1.219  16.165  0.4485 -0.6236 -0.2867
12246TIP3    H258230   4.849   1.194  16.229  1.7729 -2.0528  2.1364
12247TIP3   OH258231   1.665   5.919  15.708 -0.3219  0.1581  0.0545
12247TIP3    H158232   1.590   5.924  15.768  0.3843 -0.4775  1.0112
12247TIP3    H258233   1.727   5.982  15.743  0.5700 -1.0384  0.6942
12248TIP3   OH258234   4.498   3.816  11.713  0.2905  0.2137  0.2853
12248TIP3    H158235   4.593   3.803  11.705  0.9812  3.1613  2.0578
12248TIP3    H258236   4.474   3.771  11.794  0.3475  0.1264  0.2532
12249TIP3   OH258237   0.119   2.472   3.734  0.1900  0.0356 -0.5643
12249TIP3    H158238   0.212   2.452   3.740  0.3302  0.9986  1.1077
12249TIP3    H258239   0.092   2.438   3.649  1.9943 -0.5302 -0.9417
12250TIP3   OH258240   3.218   0.134  13.244 -0.1519 -0.1119  0.0747
12250TIP3    H158241   3.280   0.065  13.267 -0.8470 -0.3713  1.2743
12250TIP3    H258242   3.232   0.202  13.310 -0.7221  0.0922 -0.0040
12251TIP3   OH258243   0.051   4.349   4.333 -0.0081 -0.0015  0.4088
12251TIP3    H158244   0.063   4.401   4.253  0.8652 -1.6206 -0.5577
12251TIP3    H258245   0.133   4.302   4.343 -1.1002 -1.9509  0.6773
12252TIP3   OH258246   4.261   3.017   3.333  0.4123 -0.2193  0.3937
12252TIP3    H158247   4.348   3.046   3.361  0.6657 -1.1809  0.6294
12252TIP3    H258248   4.200   3.064   3.390  0.8034 -0.1173  0.7296
12253TIP3   OH258249   0.776   2.359  15.862 -0.3837 -0.1477 -0.3432
12253TIP3    H158250   0.808   2.296  15.797 -0.0385 -1.1989  0.8134
12253TIP3    H258251   0.844   2.361  15.929 -0.8127  0.7907  0.0757
12254TIP3   OH258252   6.453   6.143   5.939 -0.0204 -0.2730  0.4737
12254TIP3    H158253   6.433   6.114   6.027 -1.2414 -2.8383 -0.5491
12254TIP3    H258254   6.512   6.077   5.904  2.1282  1.7740 -0.0364
12255TIP3   OH258255   3.068   3.959  16.461 -0.6625  0.3140 -0.4783
12255TIP3    H158256   3.046   3.932  16.371 -0.1645  0.7717 -0.7404
12255TIP3    H258257   3.144   3.906  16.484 -0.2100  0.8783 -0.6752
12256TIP3   OH258258   1.395   1.287   3.514 -0.5793  0.3014  0.0681
12256TIP3    H158259   1.333   1.360   3.516 -1.6736 -0.5787 -0.4574
12256TIP3    H258260   1.348   1.214   3.554 -0.3961 -0.7375 -1.5019
12257TIP3   OH258261   3.471   6.642  12.230 -0.1189 -0.1226  0.2755
12257TIP3    H158262   3.498   6.550  12.234 -1.4273 -0.4906  2.3034
12257TIP3    H258263   3.517   6.677  12.154 -1.5628 -3.1049 -2.2065
12258TIP3   OH258264   4.320   5.582   0.007 -0.2548 -0.3513  0.3237
12258TIP3    H158265   4.251   5.562  -0.056 -0.4867 -1.2721  0.8526
12258TIP3    H258266   4.293   5.537   0.087  0.0896  0.7107  1.0559
12259TIP3   OH258267   3.924   3.578   2.631  0.2931  0.1247  0.3697
12259TIP3    H158268   3.892   3.556   2.543  0.6837 -0.2079  0.3103
12259TIP3    H258269   3.972   3.660   2.619  0.2735  0.1254  0.2925
12260TIP3   OH258270   4.571   3.242  13.013 -0.5201  0.5706  0.0192
12260TIP3    H158271   4.589   3.205  12.927 -0.8895  0.7278 -0.1286
12260TIP3    H258272   4.630   3.317  13.020  2.7039 -1.8499  1.6567
12261TIP3   OH258273   0.721   1.081   1.553  0.3742 -0.5211  0.1333
12261TIP3    H158274   0.692   1.047   1.468 -0.0546 -0.9964  0.4655
12261TIP3    H258275   0.661   1.153   1.572  0.0826 -0.8096  0.3161
12262TIP3   OH258276   2.087   3.601  11.665 -0.1708  0.2207  0.2715
12262TIP3    H158277   2.039   3.525  11.632 -0.1778  0.7446 -0.9786
12262TIP3    H258278   2.062   3.672  11.606  2.2082  0.4955 -0.5169
12263TIP3   OH258279   3.895   4.538  14.042 -0.1443 -0.0686  0.5562
12263TIP3    H158280   3.886   4.491  14.125 -1.4512  0.3762  0.6909
12263TIP3    H258281   3.924   4.626  14.067 -0.5732  0.0766  0.5555
12264TIP3   OH258282   4.228   4.071   2.922 -0.8894 -0.1304  0.0282
12264TIP3    H158283   4.322   4.062   2.905 -1.0379 -1.2667 -0.2239
12264TIP3    H258284   4.209   4.162   2.897 -0.1135 -0.2752 -1.2010
12265TIP3   OH258285   1.193   6.695   1.831 -0.3494 -0.1924  0.2652
12265TIP3    H158286   1.171   6.787   1.847  1.6079  0.5267 -0.8945
12265TIP3    H258287   1.242   6.695   1.749 -0.3597 -2.2956  0.1930
12266TIP3   OH258288   5.912   3.889   0.879  0.0164 -0.0498 -0.2528
12266TIP3    H158289   5.965   3.902   0.958  0.2148  0.2480 -0.4365
12266TIP3    H258290   5.829   3.933   0.899 -0.4031 -1.0449  0.2795
12267TIP3   OH258291   5.929   5.118   0.367  0.1357  1.1593 -0.0839
12267TIP3    H158292   5.935   5.096   0.460  0.9227 -0.8785 -0.5659
12267TIP3    H258293   5.864   5.188   0.363  0.8398  2.0271  2.0948
12268TIP3   OH258294   6.736   0.426   3.900  0.1169  0.2787 -0.1911
12268TIP3    H158295   6.824   0.402   3.929 -0.5320  0.2980  1.9670
12268TIP3    H258296   6.751   0.483   3.825  1.9940  1.2159  0.8158
12269TIP3   OH258297   2.175   4.793   1.337  0.3002 -0.4863  0.0297
12269TIP3    H158298   2.235   4.742   1.283  2.2110  0.3384  1.2850
12269TIP3    H258299   2.117   4.729   1.376 -0.5106 -1.1954 -2.1792
12270TIP3   OH258300   1.755   5.816   2.288 -0.5186 -0.0340  0.5773
12270TIP3    H158301   1.701   5.776   2.357 -2.3908  1.7271  0.2259
12270TIP3    H258302   1.845   5.793   2.312 -1.3025 -1.9793  1.9247
12271TIP3   OH258303   5.313   6.025  14.892 -0.4834 -0.2469  0.0073
12271TIP3    H158304   5.337   5.960  14.958  1.4246 -0.1783 -0.5751
12271TIP3    H258305   5.262   5.976  14.827  0.5681 -1.0988 -0.2062
12272TIP3   OH258306   3.911   0.253  16.778  0.4936 -0.0701 -0.2789
12272TIP3    H158307   3.833   0.300  16.807  0.2390  0.3234 -1.5739
12272TIP3    H258308   3.983   0.312  16.800  0.3245  0.1289 -0.2538
12273TIP3   OH258309   2.873   5.076   3.985 -0.7426  0.3177 -0.1435
12273TIP3    H158310   2.798   5.068   4.044  1.1162 -4.1968  2.1020
12273TIP3    H258311   2.939   5.121   4.036  0.1404 -1.6217  0.5068
12274TIP3   OH258312   5.436   2.088   2.199  0.4663 -0.3354  0.0360
12274TIP3    H158313   5.345   2.063   2.181  0.4383  0.3407 -0.8000
12274TIP3    H258314   5.465   2.025   2.266 -0.5377 -0.6984  0.1484
12275TIP3   OH258315   4.540   6.549  11.225  0.2851 -0.5200 -0.3556
12275TIP3    H158316   4.510   6.468  11.185 -0.6213  0.1114 -1.0277
12275TIP3    H258317   4.466   6.610  11.213  1.0006  0.4457 -0.0141
12276TIP3   OH258318   2.490   1.538  12.443  0.5313 -0.0296  0.6426
12276TIP3    H158319   2.569   1.499  12.482  0.9032  0.3464  0.2803
12276TIP3    H258320   2.484   1.498  12.356  0.6416  0.3548  0.4553
12277TIP3   OH258321   2.109   1.199  14.779 -0.3819 -0.6689 -0.1471
12277TIP3    H158322   2.084   1.171  14.868  3.6848 -0.1672  1.3470
12277TIP3    H258323   2.106   1.295  14.783  2.6086 -0.5174  0.5366
12278TIP3   OH258324   4.466   1.651  13.866 -0.0378  0.7919  0.3496
12278TIP3    H158325   4.431   1.680  13.949 -0.5801  1.0874  0.0224
12278TIP3    H258326   4.554   1.689  13.862  0.8504 -0.9660  1.7325
12279TIP3   OH258327   1.034   4.096  11.902 -0.1390  0.1380 -0.0587
12279TIP3    H158328   1.037   4.109  11.807  0.8327  0.5240  0.0135
12279TIP3    H258329   1.027   4.185  11.938 -1.9500 -0.0701  0.2057
12280TIP3   OH258330   4.378   2.662   5.266  0.2855  0.2208  0.0766
12280TIP3    H158331   4.461   2.617   5.284 -0.3609 -1.7166 -1.4894
12280TIP3    H258332   4.402   2.730   5.203  0.7734  0.0856  0.1091
12281TIP3   OH258333   4.295   4.830  13.944  0.1433  0.2764  0.7452
12281TIP3    H158334   4.383   4.807  13.915  0.0726  0.6923  0.1915
12281TIP3    H258335   4.299   4.825  14.040  0.4938 -0.6821  0.6968
12282TIP3   OH258336   6.006   3.705   5.208 -0.2966  0.2935  0.0050
12282TIP3    H158337   5.984   3.736   5.296 -1.1376 -0.0748 -0.0702
12282TIP3    H258338   6.006   3.784   5.154 -0.6937  0.3974  0.1548
12283TIP3   OH258339   4.551   3.498   5.662  0.0898 -0.0026  0.3884
12283TIP3    H158340   4.547   3.454   5.747  0.4851  0.3919  0.6180
12283TIP3    H258341   4.470   3.549   5.658 -0.6921 -1.2412 -0.1687
12284TIP3   OH258342   2.956   1.492  11.716 -0.1274  0.3992  0.5522
12284TIP3    H158343   2.992   1.580  11.705  3.6931 -1.1439 -1.0907
12284TIP3    H258344   2.974   1.469  11.807  1.0414  0.4953  0.3541
12285TIP3   OH258345   4.326   1.381  13.274  0.0480  0.4695  0.1864
12285TIP3    H158346   4.263   1.309  13.283 -0.6334  0.9250 -0.7449
12285TIP3    H258347   4.320   1.406  13.182  1.8534  0.3023 -0.0203
12286TIP3   OH258348   0.299   6.077  14.361  0.3507  0.1298 -0.0559
12286TIP3    H158349   0.343   6.161  14.348 -2.8606  2.0541  0.4709
12286TIP3    H258350   0.306   6.061  14.456 -0.3973  0.6676  0.0990
12287TIP3   OH258351   1.400   1.526  16.092 -0.0914  0.0565 -0.0456
12287TIP3    H158352   1.443   1.444  16.113  0.6220  0.0692 -1.3954
12287TIP3    H258353   1.372   1.517  16.001  1.7241  1.9924 -0.8849
12288TIP3   OH258354   3.608   0.840  15.462 -0.2712 -0.0526  0.1480
12288TIP3    H158355   3.663   0.763  15.473 -0.6504 -0.5911 -1.5140
12288TIP3    H258356   3.668   0.910  15.437 -0.0863 -0.1122  0.4232
12289TIP3   OH258357   5.471   2.231  11.220 -0.6598  0.4179 -0.7447
12289TIP3    H158358   5.521   2.150  11.208 -0.0911  0.3742  1.4446
12289TIP3    H258359   5.476   2.276  11.136  0.6222 -0.9379 -1.4274
12290TIP3   OH258360   2.511   1.544   6.431  0.2304  0.3705 -0.0865
12290TIP3    H158361   2.425   1.519   6.399  0.1431  0.1202  0.3352
12290TIP3    H258362   2.537   1.473   6.489  0.6939  0.4732 -0.1603
12291TIP3   OH258363   6.591   6.435  15.168 -0.3968 -0.2028  0.3063
12291TIP3    H158364   6.636   6.361  15.210  1.1381  0.8706  0.6359
12291TIP3    H258365   6.502   6.431  15.202  0.0298 -1.1057  1.3785
12292TIP3   OH258366   1.592   3.659  13.819  0.0889  0.2058  0.0907
12292TIP3    H158367   1.626   3.725  13.879  0.0390  0.0968  0.2401
12292TIP3    H258368   1.644   3.581  13.837 -1.1188 -0.3627  1.2674
12293TIP3   OH258369   4.858   2.835  16.776 -0.8692  0.3907  0.3029
12293TIP3    H158370   4.779   2.781  16.776 -0.8889  0.4142  0.7723
12293TIP3    H258371   4.897   2.820  16.690 -1.1707  0.0670  0.2176
12294TIP3   OH258372   5.948   4.378   5.293 -0.1629 -0.1245  0.2273
12294TIP3    H158373   6.038   4.374   5.260 -0.1392 -0.5748  0.3333
12294TIP3    H258374   5.899   4.321   5.234 -0.6605  1.1970 -0.6729
12295TIP3   OH258375   1.219   4.480   4.165  0.4369  0.0503 -0.8355
12295TIP3    H158376   1.165   4.525   4.229  2.1146 -1.3369  1.7211
12295TIP3    H258377   1.298   4.533   4.159  0.6581 -0.3068 -1.1025
12296TIP3   OH258378   5.823   4.105   4.746  0.0019 -0.2848  0.1582
12296TIP3    H158379   5.877   4.044   4.695  0.9244 -0.3049  1.1168
12296TIP3    H258380   5.784   4.051   4.814 -2.2821 -0.5209 -1.2152
12297TIP3   OH258381   2.122   1.009  10.717  0.3407  0.2433 -0.6788
12297TIP3    H158382   2.200   1.053  10.683  2.2850 -0.7459  2.2002
12297TIP3    H258383   2.129   0.919  10.686  0.6683  0.0112  0.0562
12298TIP3   OH258384   4.553   6.542   1.778  0.0534  0.0092  0.0068
12298TIP3    H158385   4.563   6.630   1.739  0.3836 -0.1292 -0.2270
12298TIP3    H258386   4.641   6.518   1.804  0.3280 -1.0958 -1.7737
12299TIP3   OH258387   1.752   5.784  14.586 -0.0698  0.0597  0.7372
12299TIP3    H158388   1.664   5.765  14.619 -0.1851  1.1243  1.0656
12299TIP3    H258389   1.738   5.825  14.501 -0.0527  2.5486  1.8428
12300TIP3   OH258390   3.719   2.788   1.901 -0.0192  0.1999 -0.0086
12300TIP3    H158391   3.671   2.820   1.825 -0.4414  0.6532  0.4386
12300TIP3    H258392   3.809   2.816   1.886  0.9509 -3.4922 -2.4978
12301TIP3   OH258393   1.658   5.007  16.635  0.4440 -0.0307 -0.1026
12301TIP3    H158394   1.650   4.949  16.711  0.7212  1.1959  0.9014
12301TIP3    H258395   1.751   5.001  16.611  0.4367 -0.1294 -0.1082
12302TIP3   OH258396   4.039   6.166  12.159  0.9150  0.2471 -0.5439
12302TIP3    H158397   4.131   6.195  12.153  0.8613  0.2733 -1.4354
12302TIP3    H258398   4.034   6.091  12.099  1.0391 -1.6539  1.6929
12303TIP3   OH258399   0.264   1.106   4.064  0.5384  0.6176 -0.2915
12303TIP3    H158400   0.267   1.019   4.104  0.6675 -0.7098 -2.9995
12303TIP3    H258401   0.355   1.137   4.067  0.1574  1.8378  2.8372
12304TIP3   OH258402   6.411   1.034  14.327 -0.4301 -0.2937  0.3756
12304TIP3    H158403   6.494   1.049  14.373  0.5146 -1.4543 -0.8663
12304TIP3    H258404   6.383   1.122  14.300  1.3184  0.0063 -0.6755
12305TIP3   OH258405   4.143   6.003   4.088  0.0198  0.2590  0.1257
12305TIP3    H158406   4.077   6.049   4.140  0.1375 -2.3631  2.8752
12305TIP3    H258407   4.224   6.014   4.137  0.6033 -0.5338 -0.6401
12306TIP3   OH258408   1.239   1.930  15.782  0.4732  0.6412 -0.2806
12306TIP3    H158409   1.301   1.903  15.714  1.1939 -1.4597  1.1047
12306TIP3    H258410   1.153   1.911  15.745  0.8442 -0.2679 -0.7102
12307TIP3   OH258411   4.628   0.335   2.784  0.2347 -0.1282  0.0630
12307TIP3    H158412   4.676   0.252   2.782  0.3272 -0.0875  0.6083
12307TIP3    H258413   4.695   0.402   2.770  0.5645  0.0200  2.1375
12308TIP3   OH258414   4.244   2.673   1.260  0.3504 -0.1753 -0.3658
12308TIP3    H158415   4.202   2.757   1.242  2.9442  1.2733 -0.1938
12308TIP3    H258416   4.225   2.620   1.182 -0.3752  0.9878 -1.0087
12309TIP3   OH258417   1.513   5.349   3.325 -0.2998  0.6285  0.0655
12309TIP3    H158418   1.518   5.444   3.330  0.9227  0.5108  2.3911
12309TIP3    H258419   1.439   5.325   3.381  0.0397  0.1705  0.3295
12310TIP3   OH258420   5.907   1.609   5.750 -0.7860  0.1651  0.4966
12310TIP3    H158421   5.899   1.545   5.679  1.6026 -0.2080  0.4823
12310TIP3    H258422   5.817   1.632   5.772 -1.6303 -1.1352 -1.3623
12311TIP3   OH258423   0.081   4.085  11.516  0.0108 -0.2859 -0.2719
12311TIP3    H158424   0.015   4.144  11.478  0.3281  0.1313 -0.1775
12311TIP3    H258425   0.107   4.127  11.598  0.3859 -0.4525 -0.3031
12312TIP3   OH258426   2.644   1.757   2.287  0.6716  0.1715  0.0808
12312TIP3    H158427   2.710   1.821   2.314  0.4080 -0.4194  2.3889
12312TIP3    H258428   2.617   1.785   2.200  0.9794  2.8455  0.7503
12313TIP3   OH258429   0.870   3.737   2.603  0.5562 -0.2865  0.0668
12313TIP3    H158430   0.846   3.815   2.552  1.7034  0.3252  0.4380
12313TIP3    H258431   0.878   3.769   2.693 -0.0367 -1.0747  0.4159
12314TIP3   OH258432   3.066   1.702  15.418  0.1111  0.5310 -0.4121
12314TIP3    H158433   2.980   1.666  15.440 -0.4046  0.9154 -1.7268
12314TIP3    H258434   3.128   1.640  15.457 -0.7368  0.2821  0.6110
12315TIP3   OH258435   4.786   3.129   5.668  0.0533  0.2601 -0.3710
12315TIP3    H158436   4.796   3.144   5.762  0.2888  0.1639 -0.3806
12315TIP3    H258437   4.804   3.036   5.657  1.0486  0.4747 -0.6480
12316TIP3   OH258438   5.502   2.608  13.627 -0.6082 -0.1954  0.2664
12316TIP3    H158439   5.578   2.596  13.569  0.3178 -1.5305  1.6788
12316TIP3    H258440   5.451   2.678  13.585  0.8186 -0.0248 -1.3107
12317TIP3   OH258441   3.057   2.123   2.935  0.5886  0.2298  0.3647
12317TIP3    H158442   3.147   2.155   2.945 -0.1066  2.4177  0.2682
12317TIP3    H258443   3.044   2.119   2.840  0.6820 -0.4161  0.3766
12318TIP3   OH258444   2.134   3.774   1.244  0.2314  0.0728  0.2551
12318TIP3    H158445   2.047   3.809   1.222 -0.5812 -1.7960  0.2216
12318TIP3    H258446   2.138   3.778   1.340 -0.9873 -2.0386  0.4730
12319TIP3   OH258447   3.619   4.171   0.957 -0.4717 -0.0899  0.3063
12319TIP3    H158448   3.560   4.100   0.982 -3.5287  1.6840 -1.2267
12319TIP3    H258449   3.643   4.151   0.866 -0.9523  0.5557  0.0311
12320TIP3   OH258450   5.543   6.185  12.529  0.3770  0.6583  0.3596
12320TIP3    H158451   5.574   6.275  12.523  1.8172  0.2123  0.8831
12320TIP3    H258452   5.488   6.174  12.451  1.9155  1.3495 -0.8829
12321TIP3   OH258453   1.411   2.158   3.198  0.0849  0.2314  0.6455
12321TIP3    H158454   1.451   2.084   3.152 -0.1887  0.0686  0.6634
12321TIP3    H258455   1.410   2.229   3.134 -1.9277 -0.5115 -0.2477
12322TIP3   OH258456   5.642   3.586   1.876  0.0594 -0.3198  0.0618
12322TIP3    H158457   5.642   3.519   1.808 -1.5010 -1.2208  0.9088
12322TIP3    H258458   5.572   3.647   1.850  1.8716  1.4240 -1.0510
12323TIP3   OH258459   3.702   1.915   3.624  0.3167 -0.3124 -0.1767
12323TIP3    H158460   3.766   1.905   3.554 -1.1188  1.1288 -1.8159
12323TIP3    H258461   3.647   1.988   3.595 -0.3312  0.3663  2.5002
12324TIP3   OH258462   4.011   1.821   2.517 -0.2656  0.6643 -0.0049
12324TIP3    H158463   4.088   1.800   2.464  0.1986 -0.9032  1.2181
12324TIP3    H258464   3.959   1.741   2.516 -1.3011  1.3247  0.1650
12325TIP3   OH258465   3.438   5.005  17.195 -0.4586  0.2602 -0.4413
12325TIP3    H158466   3.393   4.961  17.267 -0.8724 -0.2910 -1.0147
12325TIP3    H258467   3.367   5.039  17.140 -0.1622  0.0586 -0.9549
12326TIP3   OH258468   5.728   1.322   2.226  0.0641  0.2706  0.2897
12326TIP3    H158469   5.757   1.340   2.316 -2.3260  1.0913  0.9868
12326TIP3    H258470   5.724   1.408   2.185 -2.7335  0.4627  0.7538
12327TIP3   OH258471   0.476   0.903   0.816  0.1088  0.8718 -0.3822
12327TIP3    H158472   0.431   0.929   0.735 -0.9484 -0.3538 -0.2089
12327TIP3    H258473   0.409   0.860   0.868  1.0192  0.7821  0.7565
12328TIP3   OH258474   6.694   5.186  16.475 -0.7290 -0.1875 -0.3651
12328TIP3    H158475   6.621   5.231  16.434 -0.8297 -1.6685 -1.8971
12328TIP3    H258476   6.768   5.245  16.465 -1.3722  0.6795 -0.1225
12329TIP3   OH258477   0.391   2.860  14.670 -0.0264 -0.3460  0.0448
12329TIP3    H158478   0.385   2.941  14.619 -2.7205 -0.3301  0.2366
12329TIP3    H258479   0.334   2.799  14.624  2.0021 -2.2352 -0.1295
12330TIP3   OH258480   0.612   2.325  16.429 -0.2656  0.1929  0.2271
12330TIP3    H158481   0.646   2.354  16.513 -0.3955 -0.8524  0.6578
12330TIP3    H258482   0.621   2.230  16.431 -0.4501  0.1340 -0.8637
12331TIP3   OH258483   5.375   1.119   1.454 -0.8214  0.3456  0.4472
12331TIP3    H158484   5.290   1.077   1.466 -0.2779 -0.6929  0.8629
12331TIP3    H258485   5.399   1.097   1.363  0.2533 -1.8709  1.1827
12332TIP3   OH258486   5.210   3.505   3.213  0.1260 -0.4982  0.6949
12332TIP3    H158487   5.185   3.560   3.287 -0.9046 -0.7572  0.5658
12332TIP3    H258488   5.173   3.419   3.234  2.6078 -1.4818  1.4045
12333TIP3   OH258489   3.503   3.724  11.479  0.0772 -0.2885 -0.3520
12333TIP3    H158490   3.547   3.750  11.397 -1.0755  0.0532 -0.8800
12333TIP3    H258491   3.429   3.671  11.450  1.9103 -3.6652  0.6605
12334TIP3   OH258492   6.521   5.322  12.249  0.0173 -0.2595  0.6352
12334TIP3    H158493   6.591   5.288  12.193 -0.5614  1.1025 -1.0067
12334TIP3    H258494   6.461   5.248  12.260 -0.6966 -0.1675 -1.9943
12335TIP3   OH258495   2.444   2.042  11.554  0.0234  0.8184  0.3546
12335TIP3    H158496   2.396   1.994  11.486  0.4847  0.4420  0.2833
12335TIP3    H258497   2.444   1.983  11.629  1.8750  0.0180 -0.2038
12336TIP3   OH258498   2.482   0.972   0.731 -0.0527  0.6427  0.1189
12336TIP3    H158499   2.496   1.022   0.811 -1.2860  2.7414 -0.8801
12336TIP3    H258500   2.528   0.889   0.745  1.5198  1.7808  2.1461
12337TIP3   OH258501   1.478   5.947   3.629 -0.5524 -0.1856 -0.3641
12337TIP3    H158502   1.387   5.933   3.601 -0.8509 -2.3928  1.3685
12337TIP3    H258503   1.522   5.865   3.607  0.6738  0.3381  0.0816
12338TIP3   OH258504   3.364   2.581   5.247  0.3172  0.3006  0.3578
12338TIP3    H158505   3.459   2.570   5.249  0.4412  0.6768 -1.6430
12338TIP3    H258506   3.332   2.512   5.189 -0.5418  0.6378  0.4076
12339TIP3   OH258507   2.320   1.485  15.989  0.3942 -0.2952  0.5410
12339TIP3    H158508   2.369   1.557  16.028  0.7537  0.3274 -0.9789
12339TIP3    H258509   2.228   1.510  15.998  0.5536  0.9848 -1.0755
12340TIP3   OH258510   4.976   3.157   0.730  0.0434  0.3279  0.1370
12340TIP3    H158511   4.989   3.062   0.728 -0.1603  0.2197  1.8782
12340TIP3    H258512   4.887   3.170   0.698  0.2686 -0.0059 -0.6473
12341TIP3   OH258513   3.973   3.828  15.107 -0.0688  0.6336 -0.1860
12341TIP3    H158514   3.943   3.740  15.130  0.6830  0.3376 -0.3156
12341TIP3    H258515   3.896   3.884  15.120 -0.3172  0.1000  0.7154
12342TIP3   OH258516   3.911   6.014   4.267 -0.5464 -0.0133 -0.0820
12342TIP3    H158517   3.946   6.077   4.330 -1.8780 -0.2063  0.8952
12342TIP3    H258518   3.961   5.934   4.283  0.2985  0.4264 -0.4722
12343TIP3   OH258519   3.082   4.530   4.492 -0.4842  0.1549  0.7963
12343TIP3    H158520   3.079   4.601   4.557 -1.2294 -1.6074  2.7931
12343TIP3    H258521   3.018   4.467   4.522 -0.2717 -1.1345 -1.2639
12344TIP3   OH258522   2.781   6.520  10.656  0.5380 -0.0003 -0.0322
12344TIP3    H158523   2.725   6.542  10.730 -1.3226 -0.0689 -1.3710
12344TIP3    H258524   2.820   6.435  10.679 -0.1646 -0.1090  0.7760
12345TIP3   OH258525   0.893   1.621   2.401  0.2978  0.0784  0.6864
12345TIP3    H158526   0.838   1.545   2.381  0.2591  0.5184 -1.0827
12345TIP3    H258527   0.976   1.602   2.357 -0.0524  1.4707 -0.6625
12346TIP3   OH258528   3.553   0.389   4.748 -0.4044 -0.1907 -0.1363
12346TIP3    H158529   3.505   0.471   4.754 -1.2444 -0.5131 -1.9035
12346TIP3    H258530   3.539   0.347   4.834  1.4298  2.1716  1.4241
12347TIP3   OH258531   5.223   1.637  16.902  0.6231 -0.5619 -0.7042
12347TIP3    H158532   5.153   1.601  16.956 -0.6889  0.5416 -1.6205
12347TIP3    H258533   5.267   1.560  16.865 -1.3213 -1.2683 -1.6476
12348TIP3   OH258534   2.120   3.476   0.335 -0.2056 -0.3869 -0.0694
12348TIP3    H158535   2.065   3.507   0.406  1.1359 -0.3122  0.9942
12348TIP3    H258536   2.187   3.544   0.324  1.4927 -1.8254  0.8202
12349TIP3   OH258537   6.033   1.495   2.265  0.2832 -0.1969  0.2546
12349TIP3    H158538   5.993   1.408   2.272  0.3863 -0.1743  1.4182
12349TIP3    H258539   6.073   1.509   2.351 -0.0567  1.1506  0.2159
12350TIP3   OH258540   3.976   0.767  16.430  0.3097  0.1643 -0.3272
12350TIP3    H158541   3.923   0.783  16.352  1.2134  2.9820 -0.4654
12350TIP3    H258542   3.949   0.834  16.492  0.4959 -1.2475  1.3733
12351TIP3   OH258543   0.054   2.472   4.022 -0.1251  0.4939  0.1630
12351TIP3    H158544   0.134   2.503   4.064  0.1390 -0.3198  0.2764
12351TIP3    H258545   0.075   2.471   3.928  0.0523  0.1410  0.2044
12352TIP3   OH258546   0.018   6.256  16.373 -0.2658  0.2548  0.0484
12352TIP3    H158547  -0.077   6.269  16.378 -0.2085  0.7966 -0.2357
12352TIP3    H258548   0.036   6.188  16.438 -1.1831 -1.7975 -1.7061
12353TIP3   OH258549   0.874   4.156  16.614  0.3425 -0.2852 -0.5323
12353TIP3    H158550   0.861   4.233  16.669 -2.5906 -0.8120 -0.3183
12353TIP3    H258551   0.965   4.161  16.586  1.5080  0.8972  2.9843
12354TIP3   OH258552   2.285   5.660  15.614 -0.1193 -0.0623  0.1167
12354TIP3    H158553   2.294   5.744  15.569  1.8539 -0.4426 -0.2996
12354TIP3    H258554   2.360   5.657  15.674 -0.1903 -1.4972  0.1664
12355TIP3   OH258555   3.317   6.259  12.373  0.3292 -0.1344 -0.5190
12355TIP3    H158556   3.360   6.189  12.422 -0.0911 -0.6035 -0.8050
12355TIP3    H258557   3.382   6.329  12.370  0.6915 -0.4394 -0.0710
12356TIP3   OH258558   4.551   2.730  16.189  0.2076 -0.7039  0.0246
12356TIP3    H158559   4.591   2.648  16.215  1.7775 -0.1842 -0.6278
12356TIP3    H258560   4.558   2.731  16.093 -0.5149 -0.1672 -0.0365
12357TIP3   OH258561   0.599   0.959   2.445 -0.5129 -0.2276 -0.3327
12357TIP3    H158562   0.553   0.934   2.365  1.8541  0.9681 -2.2009
12357TIP3    H258563   0.556   1.039   2.474  0.5498  1.1528 -2.3239
12358TIP3   OH258564   5.256   2.257   4.401  0.0705 -0.0302  0.1481
12358TIP3    H158565   5.281   2.281   4.312 -1.1503  1.2840  0.1308
12358TIP3    H258566   5.289   2.328   4.456  2.0525 -1.4925  0.9870
12359TIP3   OH258567   2.464   4.718  14.330  0.1372  0.0781  0.8019
12359TIP3    H158568   2.502   4.737  14.416 -0.8187  2.0991  0.8478
12359TIP3    H258569   2.402   4.647  14.346 -0.5051  0.8666  1.9297
12360TIP3   OH258570   3.646   0.318   5.150 -0.0310  0.2638  0.0737
12360TIP3    H158571   3.575   0.297   5.089 -1.6712 -1.1356  2.2989
12360TIP3    H258572   3.726   0.297   5.102 -0.8947  3.1511 -3.0100
12361TIP3   OH258573   5.843   0.448   0.998  0.4558  0.4194  0.3988
12361TIP3    H158574   5.794   0.517   1.043 -1.7692 -0.0040 -1.2514
12361TIP3    H258575   5.805   0.366   1.030  1.0617  0.0265  0.1358
12362TIP3   OH258576   2.992   1.960   5.628  0.3250 -0.3844  0.1952
12362TIP3    H158577   3.071   2.009   5.606  0.3900 -0.4372  0.3083
12362TIP3    H258578   3.002   1.939   5.722  0.0601 -0.1735  0.2700
12363TIP3   OH258579   4.298   5.125  14.471 -0.4081  0.2299  0.2058
12363TIP3    H158580   4.270   5.110  14.562  1.0883  0.7750  0.7928
12363TIP3    H258581   4.382   5.169  14.480  0.3728 -0.8423 -1.4541
12364TIP3   OH258582   1.571   0.813  15.615  0.0251 -0.4716 -0.3165
12364TIP3    H158583   1.565   0.768  15.531 -1.9311 -0.8664 -0.0255
12364TIP3    H258584   1.543   0.747  15.679 -1.1816  0.5941  0.3109
12365TIP3   OH258585   0.823   2.256   3.548  0.4042 -0.2170 -0.3126
12365TIP3    H158586   0.898   2.203   3.521 -0.4194 -1.5285 -0.1169
12365TIP3    H258587   0.841   2.280   3.639  0.6435 -0.4213 -0.3066
12366TIP3   OH258588   3.425   0.589   4.367  0.4533 -0.3816  0.2796
12366TIP3    H158589   3.341   0.573   4.410  1.4774 -1.4557  1.9561
12366TIP3    H258590   3.405   0.584   4.273 -1.4203 -0.1955  0.6337
12367TIP3   OH258591   3.330   6.578   2.164  0.8003 -0.7908  0.3818
12367TIP3    H158592   3.259   6.636   2.190  0.6096 -0.0161 -1.6646
12367TIP3    H258593   3.390   6.635   2.115  0.8193 -2.2023 -1.3187
12368TIP3   OH258594   3.431   3.005   0.669  0.1045  0.0399 -0.2264
12368TIP3    H158595   3.409   2.953   0.746 -0.3631 -0.4959 -0.7131
12368TIP3    H258596   3.527   3.008   0.668  0.2340 -2.1753 -1.0543
12369TIP3   OH258597   2.708   6.603  14.628 -0.2023 -0.9302 -0.5741
12369TIP3    H158598   2.773   6.532  14.631 -0.6086 -1.3277 -0.9150
12369TIP3    H258599   2.760   6.683  14.626  0.2737 -1.2341 -0.5797
12370TIP3   OH258600   6.393   0.442  14.996 -0.1131  0.1412  0.2090
12370TIP3    H158601   6.379   0.423  14.903 -0.5043  1.6681 -0.0813
12370TIP3    H258602   6.307   0.471  15.027 -0.1813 -1.1594  1.2706
12371TIP3   OH258603   0.287   4.581  13.365  0.4333  0.1742 -0.0289
12371TIP3    H158604   0.194   4.569  13.345 -0.1957 -0.7677  3.0174
12371TIP3    H258605   0.290   4.659  13.419  1.2176 -0.4928  0.9276
12372TIP3   OH258606   1.898   6.607  12.049 -0.2115 -0.0529  0.1189
12372TIP3    H158607   1.914   6.689  12.002  0.2660  0.5545  1.2897
12372TIP3    H258608   1.985   6.568  12.061 -0.3498 -0.3138  0.2973
12373TIP3   OH258609   5.381   1.285   3.343 -0.7168 -0.1418  0.3734
12373TIP3    H158610   5.349   1.236   3.418 -2.5506  1.3516  0.6275
12373TIP3    H258611   5.312   1.277   3.277 -0.5262  1.0972 -0.0041
12374TIP3   OH258612   3.558   2.140   3.586 -0.1324  0.3613  0.4949
12374TIP3    H158613   3.470   2.121   3.554 -0.2166  0.9768  0.3416
12374TIP3    H258614   3.583   2.221   3.541  0.3618  0.3961  0.8202
12375TIP3   OH258615   3.655   3.268  12.102 -0.4904 -0.0652 -0.2005
12375TIP3    H158616   3.584   3.270  12.166 -2.6375  0.8241 -2.4775
12375TIP3    H258617   3.630   3.332  12.036  2.6846  0.5952 -0.9253
12376TIP3   OH258618   6.251   0.106  12.059 -0.3079  0.5026 -0.1707
12376TIP3    H158619   6.297   0.094  11.976  1.3902  0.4900  0.7427
12376TIP3    H258620   6.299   0.175  12.104 -1.8105  1.2152  0.4099
12377TIP3   OH258621   6.752   5.849  15.980 -0.2381 -0.1297 -0.1110
12377TIP3    H158622   6.738   5.799  15.899  2.4756  0.5645 -1.1232
12377TIP3    H258623   6.756   5.940  15.951 -1.3708  0.3548  1.1627
12378TIP3   OH258624   2.324   6.172   4.914  0.0141 -0.2260 -0.0640
12378TIP3    H158625   2.272   6.141   4.988 -2.2677 -1.1598 -1.9410
12378TIP3    H258626   2.284   6.255   4.889  1.8571  0.9637  0.7551
12379TIP3   OH258627   2.411   4.630  16.875  0.1761 -0.0656  0.3003
12379TIP3    H158628   2.331   4.623  16.927  0.6964  0.2556  1.1674
12379TIP3    H258629   2.408   4.719  16.838  0.9315  0.5791  1.7157
12380TIP3   OH258630   1.686   0.124  15.741  0.1745  0.0525  0.3730
12380TIP3    H158631   1.780   0.120  15.727  0.2182  0.7872  0.4161
12380TIP3    H258632   1.661   0.212  15.713 -0.7441 -0.6430 -1.1727
12381TIP3   OH258633   4.317   0.948   5.965  0.2693 -0.1996 -0.3578
12381TIP3    H158634   4.285   1.038   5.965  0.2388 -0.2037  0.6517
12381TIP3    H258635   4.240   0.895   5.945  0.5525  0.0531 -2.3999
12382TIP3   OH258636   3.267   3.953   6.345 -0.3201 -0.4555  0.0685
12382TIP3    H158637   3.341   3.917   6.394 -1.0584 -2.6242 -0.2620
12382TIP3    H258638   3.287   4.046   6.335  1.4064 -0.5972  1.6385
12383TIP3   OH258639   1.861   1.262   4.861 -0.0977  0.0944 -0.6670
12383TIP3    H158640   1.942   1.304   4.834 -1.0796  2.2231 -0.4902
12383TIP3    H258641   1.801   1.276   4.788 -0.1214 -2.1751 -1.1521
12384TIP3   OH258642   3.203   0.624  13.508 -0.7136 -0.0049 -0.1660
12384TIP3    H158643   3.133   0.625  13.574  0.1454 -0.3911  0.7833
12384TIP3    H258644   3.214   0.531  13.487 -0.1803  0.0106  0.0360
12385TIP3   OH258645   0.842   4.738  13.032 -0.0448 -0.1794 -0.1170
12385TIP3    H158646   0.844   4.734  13.128  1.4624  0.9232 -0.0678
12385TIP3    H258647   0.876   4.826  13.011 -1.6453  0.1216 -1.6331
12386TIP3   OH258648   2.228   3.950  13.498  0.0774  0.2966  0.3694
12386TIP3    H158649   2.137   3.946  13.527  0.3521 -1.4073  1.1187
12386TIP3    H258650   2.224   3.933  13.404 -0.4816  1.8786  0.0688
12387TIP3   OH258651   6.495   2.355  14.480 -0.0761  0.4535 -0.2930
12387TIP3    H158652   6.584   2.322  14.495  0.0911  0.6173 -0.9063
12387TIP3    H258653   6.500   2.448  14.506 -0.4893  0.0771  1.2175
12388TIP3   OH258654   0.562   0.755   6.159 -0.1870 -0.2823  0.1249
12388TIP3    H158655   0.614   0.752   6.240 -0.5067 -1.3777  0.3052
12388TIP3    H258656   0.472   0.743   6.188 -0.1950 -1.7937 -0.4774
12389TIP3   OH258657   6.657   2.735   3.471  0.1467 -0.0881 -0.5133
12389TIP3    H158658   6.743   2.746   3.510  0.5107 -1.8844 -0.7408
12389TIP3    H258659   6.601   2.705   3.543  0.3755 -1.5779 -0.9375
12390TIP3   OH258660   4.663   5.440   3.090  0.1184  0.2948  0.3194
12390TIP3    H158661   4.660   5.471   3.180  0.5232 -0.5938  0.6473
12390TIP3    H258662   4.742   5.479   3.053  0.5876 -0.2641  0.7090
12391TIP3   OH258663   2.731   4.412   4.938  0.5995 -0.1908  0.3516
12391TIP3    H158664   2.695   4.404   4.850 -0.6197 -1.2081  0.9087
12391TIP3    H258665   2.672   4.474   4.982  1.2542  0.3827  0.4417
12392TIP3   OH258666   0.572   3.837  16.474 -0.0102 -0.4148 -0.0290
12392TIP3    H158667   0.635   3.889  16.423  0.6692 -1.2112 -0.0281
12392TIP3    H258668   0.487   3.876  16.455  0.5159  0.9633  0.2987
12393TIP3   OH258669   6.116   6.764  11.339  0.3108  0.2241  0.6267
12393TIP3    H158670   6.076   6.714  11.411 -0.2742  0.6601  0.6155
12393TIP3    H258671   6.115   6.703  11.265 -0.9906  0.4303  0.4408
12394TIP3   OH258672   2.125   5.611   6.297  0.5117  0.1912 -0.2100
12394TIP3    H158673   2.062   5.662   6.246  1.0254  1.2405  0.1641
12394TIP3    H258674   2.082   5.595   6.380 -0.1088 -1.0308 -0.7530
12395TIP3   OH258675   4.351   6.573   4.717 -0.1918 -0.1053  0.2185
12395TIP3    H158676   4.370   6.667   4.727 -0.4936  0.0807 -0.8710
12395TIP3    H258677   4.408   6.530   4.781  1.6027  0.6591 -0.8284
12396TIP3   OH258678   5.419   6.732   2.360 -0.0979 -0.3878 -0.0041
12396TIP3    H158679   5.413   6.646   2.402 -0.7481 -0.8131 -0.9418
12396TIP3    H258680   5.437   6.713   2.269  0.0598  0.4879 -0.1602
12397TIP3   OH258681   0.511   1.952  11.091  0.1702 -0.2599  0.9116
12397TIP3    H158682   0.540   2.039  11.116  0.7856 -0.7116  1.8135
12397TIP3    H258683   0.482   1.961  11.000 -1.4631  1.2598  1.5279
12398TIP3   OH258684   3.767   6.766   2.525 -0.0692 -0.0295  0.0977
12398TIP3    H158685   3.855   6.751   2.561 -0.4424  0.8598  1.4290
12398TIP3    H258686   3.773   6.853   2.485  0.1318 -0.7039 -1.4089
12399TIP3   OH258687   3.526   6.601  11.853 -0.4290  0.0959  0.1723
12399TIP3    H158688   3.460   6.639  11.911 -1.0542  0.3937 -0.7110
12399TIP3    H258689   3.580   6.546  11.910 -0.4594  1.1013  1.1971
12400TIP3   OH258690   4.443   0.485  16.328 -0.4026  0.2941  0.0208
12400TIP3    H158691   4.403   0.559  16.373  0.8990  1.0306  0.0013
12400TIP3    H258692   4.523   0.520  16.288 -1.4219 -0.3202 -2.8238
12401TIP3   OH258693   5.374   4.274   1.152 -0.7248 -0.3268  0.2115
12401TIP3    H158694   5.316   4.350   1.146  0.1797  0.3761  0.0861
12401TIP3    H258695   5.334   4.209   1.093  0.9571  1.7621 -3.6219
12402TIP3   OH258696   2.579   0.080   1.512  0.6509  0.3547 -0.0954
12402TIP3    H158697   2.619   0.004   1.470 -0.1143  0.4302 -0.9994
12402TIP3    H258698   2.513   0.044   1.571 -0.1272  0.3252 -0.9700
12403TIP3   OH258699   2.601   5.033  12.365  0.2334  0.2430  0.2511
12403TIP3    H158700   2.646   4.977  12.429  0.9589  0.2081 -0.2714
12403TIP3    H258701   2.667   5.050  12.298 -1.3434 -2.3754 -2.2152
12404TIP3   OH258702   6.092   1.846  11.426 -0.1464 -0.0701  0.3637
12404TIP3    H158703   6.027   1.878  11.364 -0.7217  0.8445  1.4131
12404TIP3    H258704   6.091   1.910  11.497  0.0689 -1.4012  1.6096
12405TIP3   OH258705   3.858   2.192   1.765 -0.1096 -0.6417 -0.0802
12405TIP3    H158706   3.794   2.216   1.831  0.8042 -2.4857  1.5887
12405TIP3    H258707   3.933   2.159   1.815  1.0834 -1.0433 -2.0109
12406TIP3   OH258708   4.376   0.923  12.052 -0.2947 -0.1495 -0.4128
12406TIP3    H158709   4.323   0.911  12.131  1.0848 -1.5584  0.3730
12406TIP3    H258710   4.344   0.857  11.991 -1.3910  0.9692 -1.0975
12407TIP3   OH258711   3.677   4.652   4.107  0.2308 -0.3545 -0.6124
12407TIP3    H158712   3.736   4.600   4.053 -0.6112 -2.2230  0.1794
12407TIP3    H258713   3.590   4.635   4.070 -0.1744 -0.3366  0.3029
12408TIP3   OH258714   5.145   5.224   3.097  0.4838 -0.2158 -0.6430
12408TIP3    H158715   5.125   5.165   3.024  0.6036  0.0036 -0.8537
12408TIP3    H258716   5.159   5.165   3.172  4.1337 -0.7843 -1.5526
12409TIP3   OH258717   1.195   4.964  15.690  0.2936  0.3531 -0.1689
12409TIP3    H158718   1.136   5.039  15.679 -0.2549 -0.1270 -0.5264
12409TIP3    H258719   1.219   4.939  15.601  0.7514  0.3153 -0.0378
12410TIP3   OH258720   5.471   4.424   1.811 -0.2651 -0.7473 -0.1604
12410TIP3    H158721   5.387   4.419   1.857  0.1685  1.0566  0.9393
12410TIP3    H258722   5.450   4.409   1.719 -1.6553 -1.1697  0.2062
12411TIP3   OH258723   3.407   5.155   4.520 -0.5355 -0.1805 -0.4707
12411TIP3    H158724   3.382   5.235   4.567  2.3034  1.2153 -1.0849
12411TIP3    H258725   3.477   5.116   4.573  0.7100 -0.1412 -1.9851
12412TIP3   OH258726   4.435   2.575  12.664 -0.2109 -0.0112 -0.1056
12412TIP3    H158727   4.391   2.655  12.695 -0.5298 -0.3108  0.2240
12412TIP3    H258728   4.525   2.585  12.694 -0.0823  0.5346 -0.6472
12413TIP3   OH258729   5.705   2.501  15.781 -0.0045 -0.1784  0.7100
12413TIP3    H158730   5.799   2.483  15.785  0.1374  0.2420 -0.2955
12413TIP3    H258731   5.691   2.574  15.841  0.7516  1.3626 -0.8885
12414TIP3   OH258732   3.430   4.541   5.287  0.2080  0.1242  0.2592
12414TIP3    H158733   3.407   4.481   5.359 -0.0650  0.0308  0.0956
12414TIP3    H258734   3.451   4.483   5.214  0.3935  0.2217  0.2346
12415TIP3   OH258735   6.006   6.088  12.931 -0.2860  0.5226 -0.6658
12415TIP3    H158736   6.009   6.008  12.878 -0.2876 -0.0287  0.1382
12415TIP3    H258737   5.913   6.112  12.933 -0.1437  1.2217 -1.8749
12416TIP3   OH258738   6.412   6.024   4.628  0.2980 -0.5360  0.8538
12416TIP3    H158739   6.486   5.972   4.661  0.9798 -0.0833  0.0880
12416TIP3    H258740   6.424   6.110   4.668  0.1584 -0.4755  0.7644
12417TIP3   OH258741   3.231   4.729  15.167 -0.1370 -0.0847 -0.2636
12417TIP3    H158742   3.159   4.792  15.163  1.1945  1.5527  0.3143
12417TIP3    H258743   3.309   4.782  15.186  0.7223 -2.1113  2.5872
12418TIP3   OH258744   1.904   3.102  12.448  0.6276  0.0392 -0.9681
12418TIP3    H158745   1.886   3.077  12.357 -1.7715 -2.0453 -0.0368
12418TIP3    H258746   1.999   3.096  12.456  0.7268 -1.8174 -2.8086
12419TIP3   OH258747   5.687   0.780   2.398  0.2814  0.0390 -0.1946
12419TIP3    H158748   5.657   0.731   2.322  1.0375 -0.5720 -0.1151
12419TIP3    H258749   5.608   0.816   2.437 -0.1596 -0.0866 -0.9661
12420TIP3   OH258750   3.223   4.589  14.110 -0.0507  0.6111  0.1244
12420TIP3    H158751   3.239   4.496  14.124 -1.0994  0.3746 -0.2081
12420TIP3    H258752   3.257   4.607  14.022  0.4325  0.6226  0.3093
12421TIP3   OH258753   0.806   3.189  10.511 -0.2029 -0.3510 -0.5320
12421TIP3    H158754   0.754   3.245  10.569  1.7977 -0.4095  1.4679
12421TIP3    H258755   0.830   3.114  10.566  2.3412 -0.0842 -1.1873
12422TIP3   OH258756   4.763   4.364   2.260 -0.3224 -0.0105 -0.6444
12422TIP3    H158757   4.852   4.383   2.290 -1.2393  0.9549  1.6754
12422TIP3    H258758   4.757   4.268   2.264  0.3382 -0.0319  0.0129
12423TIP3   OH258759   4.070   5.041  17.005  0.0741 -0.6398  0.3329
12423TIP3    H158760   4.136   5.049  16.936 -0.2857  0.9885  0.1467
12423TIP3    H258761   4.070   5.126  17.049 -1.5427 -0.7612  0.6326
12424TIP3   OH258762   4.426   3.533  13.605  0.7276  0.5744  0.3082
12424TIP3    H158763   4.399   3.567  13.690  2.7131  2.9851  0.0590
12424TIP3    H258764   4.479   3.456  13.625 -1.3176 -0.7380  1.0255
12425TIP3   OH258765   5.263   2.904   5.872  0.0295  0.0104 -0.3898
12425TIP3    H158766   5.317   2.852   5.813 -0.0155 -0.7726  0.2373
12425TIP3    H258767   5.191   2.846   5.896 -0.6818  0.7847 -0.6227
12426TIP3   OH258768   6.602   4.766   4.838 -0.2539  0.1819 -0.2761
12426TIP3    H158769   6.588   4.858   4.860  0.8961  0.5114 -0.8759
12426TIP3    H258770   6.685   4.764   4.792 -0.4565 -1.1120 -0.6362
12427TIP3   OH258771   5.483   3.336   2.536  1.1288  0.2475  0.1581
12427TIP3    H158772   5.494   3.297   2.623  0.9699  1.8238  0.9283
12427TIP3    H258773   5.565   3.317   2.491  1.6720  0.3775  1.0649
12428TIP3   OH258774   4.460   1.677  11.474 -0.4317 -0.0028  0.4382
12428TIP3    H158775   4.389   1.622  11.505 -0.2168 -0.3759  0.2700
12428TIP3    H258776   4.460   1.665  11.379 -2.0416  2.2559  0.0817
12429TIP3   OH258777   3.705   4.752   3.773 -0.3355  0.3527  0.1638
12429TIP3    H158778   3.708   4.805   3.852  0.3667  2.7950 -1.3737
12429TIP3    H258779   3.639   4.795   3.718 -0.7116 -1.1928 -0.6456
12430TIP3   OH258780   3.240   6.476  16.461 -0.0642  0.0601  0.5766
12430TIP3    H158781   3.176   6.425  16.511  1.5439 -1.6559  1.0077
12430TIP3    H258782   3.191   6.510  16.387 -1.7031 -0.3211  1.4325
12431TIP3   OH258783   1.605   2.300  15.809 -0.3796 -0.0279  0.1025
12431TIP3    H158784   1.655   2.343  15.740  0.4695  0.6133  1.0854
12431TIP3    H258785   1.639   2.210  15.811 -0.7527 -0.1907 -0.6244
12432TIP3   OH258786   0.340   5.540   2.124  0.0622  0.8574 -0.0345
12432TIP3    H158787   0.306   5.484   2.054  0.3722 -1.6436  1.7092
12432TIP3    H258788   0.273   5.535   2.193  0.1433  2.6200  0.2080
12433TIP3   OH258789   2.255   3.016   0.761  0.0748  0.1211  0.3069
12433TIP3    H158790   2.336   2.966   0.769  0.1901  0.2842  0.1733
12433TIP3    H258791   2.201   2.987   0.835  0.0650 -0.3341  0.1188
12434TIP3   OH258792   0.099   2.595  17.104  0.1005 -0.1214  0.2127
12434TIP3    H158793   0.024   2.634  17.148  0.2056  0.9891 -0.5521
12434TIP3    H258794   0.157   2.568  17.175 -0.9950 -0.9896  0.8140
12435TIP3   OH258795   3.010   5.994   4.907 -0.6550  0.2304 -0.3605
12435TIP3    H158796   3.040   6.029   4.823 -1.4238  0.9201 -0.3607
12435TIP3    H258797   3.010   6.069   4.966  0.0555 -0.2838  0.3263
12436TIP3   OH258798   0.197   5.747  15.764 -0.0242  0.5767  0.0431
12436TIP3    H158799   0.166   5.668  15.809  1.7683  0.8979  1.9566
12436TIP3    H258800   0.118   5.783  15.723 -0.9222 -2.1114 -0.8222
12437TIP3   OH258801   2.184   5.239  10.327 -0.3714  0.2182  0.0746
12437TIP3    H158802   2.139   5.155  10.315  0.5216 -0.2390 -0.2152
12437TIP3    H258803   2.127   5.303  10.286 -0.6882 -0.3691 -0.4245
12438TIP3   OH258804   4.670   0.479  14.579  0.2875 -0.3305 -0.5687
12438TIP3    H158805   4.608   0.417  14.615  0.1784 -1.3938 -2.4601
12438TIP3    H258806   4.755   0.435  14.586  0.2744 -0.5173 -1.4952
12439TIP3   OH258807   0.666   6.114   1.848  1.1171 -0.0519  0.1850
12439TIP3    H158808   0.580   6.111   1.807  1.3534  0.7772 -0.4009
12439TIP3    H258809   0.728   6.117   1.775  1.6787 -1.2080  0.5947
12440TIP3   OH258810   5.900   5.405  17.091 -0.1158  0.2750 -0.4649
12440TIP3    H158811   5.992   5.385  17.106 -0.2655 -0.3712 -0.3890
12440TIP3    H258812   5.858   5.320  17.082 -0.6334  0.5761 -0.9507
12441TIP3   OH258813   5.174   6.192   0.079  0.5168 -0.4642  0.3692
12441TIP3    H158814   5.246   6.148   0.034 -0.0027  0.0387 -0.9966
12441TIP3    H258815   5.214   6.271   0.116  0.9747 -0.9469  0.9391
12442TIP3   OH258816   2.212   6.536  14.254  0.4841  0.5995  0.4024
12442TIP3    H158817   2.195   6.621  14.295  1.4544  0.6741  0.6582
12442TIP3    H258818   2.307   6.524  14.261  0.4109 -0.3029 -0.0328
12443TIP3   OH258819   1.799   5.608  13.362 -0.1388  0.3479  0.5394
12443TIP3    H158820   1.859   5.645  13.427  0.9645  0.3083 -0.4246
12443TIP3    H258821   1.721   5.584  13.413  0.7371  0.1928  1.8787
12444TIP3   OH258822   5.324   5.116  11.618  0.3096 -0.1639 -0.7207
12444TIP3    H158823   5.288   5.134  11.705 -1.9819  1.8442 -1.9476
12444TIP3    H258824   5.271   5.044  11.585  0.6847 -0.4351 -0.7319
12445TIP3   OH258825   3.581   2.278   3.824 -0.2481  0.0640 -0.2089
12445TIP3    H158826   3.557   2.229   3.903  2.4018 -1.0600  0.0411
12445TIP3    H258827   3.558   2.220   3.751  0.6381 -0.5381 -0.0308
12446TIP3   OH258828   3.280   6.623  12.507 -0.0602  0.0232  0.1722
12446TIP3    H158829   3.251   6.701  12.553  1.1133  1.0359 -0.7487
12446TIP3    H258830   3.207   6.602  12.449 -0.4702  0.3053  0.5788
12447TIP3   OH258831   2.436   5.686   1.962  0.1543  0.0033  0.4222
12447TIP3    H158832   2.526   5.673   1.933  0.3529  1.5326  0.2477
12447TIP3    H258833   2.394   5.601   1.951  1.4542 -0.6119  0.0702
12448TIP3   OH258834   1.531   3.372   4.643 -0.5111  0.1961 -0.5011
12448TIP3    H158835   1.481   3.367   4.562 -0.5173  1.8586 -0.6300
12448TIP3    H258836   1.474   3.332   4.709 -1.1859  0.3095 -1.0038
12449TIP3   OH258837   3.137   6.514  14.579  0.2528 -0.5292 -0.4396
12449TIP3    H158838   3.204   6.567  14.536  0.1080 -1.3267 -1.7112
12449TIP3    H258839   3.057   6.532  14.529 -0.5381  0.4738  1.0992
12450TIP3   OH258840   6.648   3.396   4.654 -0.1274  0.3930  0.3547
12450TIP3    H158841   6.559   3.419   4.628 -0.2502  1.0058  1.2535
12450TIP3    H258842   6.640   3.366   4.745  0.7824  2.1699  1.0780
12451TIP3   OH258843   4.742   5.470   2.146 -0.0251 -0.3607 -0.4274
12451TIP3    H158844   4.685   5.465   2.069 -0.1832 -0.4894 -0.3028
12451TIP3    H258845   4.685   5.502   2.216  0.4131  0.9931 -0.6544
12452TIP3   OH258846   4.545   1.946   1.643 -0.3591  0.1074  0.3935
12452TIP3    H158847   4.569   1.970   1.554  0.7314  0.9972  0.8999
12452TIP3    H258848   4.568   1.853   1.650 -1.7552 -0.3408 -0.6559
12453TIP3   OH258849   2.856   1.290  12.669  0.1568  0.2573  0.7864
12453TIP3    H158850   2.858   1.196  12.652 -0.5803 -0.1691  2.7288
12453TIP3    H258851   2.811   1.328  12.593  2.1215 -0.6698 -0.9234
12454TIP3   OH258852   5.658   4.593   5.881  0.4478 -0.0961 -0.6283
12454TIP3    H158853   5.585   4.620   5.826  0.2975 -0.7815 -0.7776
12454TIP3    H258854   5.734   4.593   5.822  0.6296  0.8847 -0.4074
12455TIP3   OH258855   2.823   1.811  11.872  0.3361 -0.2348  0.0671
12455TIP3    H158856   2.804   1.796  11.779  1.9034 -1.1295 -0.1317
12455TIP3    H258857   2.772   1.744  11.918  0.5557 -0.6033 -0.2285
12456TIP3   OH258858   0.368   5.497  15.758 -0.3523  0.2519  0.1550
12456TIP3    H158859   0.457   5.488  15.725  0.5897 -1.7776  2.8857
12456TIP3    H258860   0.313   5.458  15.690  1.0629 -0.3129 -0.6925
12457TIP3   OH258861   2.810   1.934   2.882  0.7748 -0.0452 -0.9357
12457TIP3    H158862   2.870   1.879   2.831  0.0339 -2.1307  0.3010
12457TIP3    H258863   2.866   2.001   2.920  1.5781  0.6868 -3.2320
12458TIP3   OH258864   2.241   4.177  13.783 -0.2614 -0.3355 -0.6578
12458TIP3    H158865   2.149   4.150  13.791 -0.6217  0.5495 -1.6151
12458TIP3    H258866   2.274   4.126  13.708  0.7065 -2.3272  1.0064
12459TIP3   OH258867   6.739   2.457   0.500 -0.2642  0.0311  0.1335
12459TIP3    H158868   6.829   2.429   0.483  0.1554  0.4751  1.5133
12459TIP3    H258869   6.703   2.389   0.557 -0.6128  0.1587  0.0689
12460TIP3   OH258870   2.745   1.441   4.952  0.0610 -0.0754  0.2422
12460TIP3    H158871   2.664   1.433   4.901  0.4893 -1.9918 -0.2179
12460TIP3    H258872   2.795   1.510   4.907 -0.8464  0.3781 -0.1037
12461TIP3   OH258873   2.587   3.831   3.389 -0.4825 -0.0216 -0.4386
12461TIP3    H158874   2.605   3.819   3.482 -1.4946 -1.8678 -0.4236
12461TIP3    H258875   2.672   3.818   3.347 -0.1836 -0.1055  0.1723
12462TIP3   OH258876   0.019   4.305  17.162 -0.2074  0.3086 -0.1186
12462TIP3    H158877   0.069   4.380  17.192 -0.6297  0.4732  0.1900
12462TIP3    H258878   0.073   4.229  17.183  0.5521  0.5656 -1.1096
12463TIP3   OH258879   0.369   6.098  16.222 -0.3676  0.0817  0.5856
12463TIP3    H158880   0.329   6.027  16.272 -0.4488  0.0667  0.4994
12463TIP3    H258881   0.295   6.149  16.190 -0.5900 -2.0121 -2.7275
12464TIP3   OH258882   1.925   1.221  13.919 -0.3699  0.3135  0.0792
12464TIP3    H158883   2.006   1.197  13.875 -0.8421 -0.0155 -0.6264
12464TIP3    H258884   1.884   1.285  13.861 -0.1854  1.1895  0.8783
12465TIP3   OH258885   3.418   6.726   0.609 -0.1480  0.3874 -0.3260
12465TIP3    H158886   3.360   6.657   0.577 -0.5044 -0.6468  2.3281
12465TIP3    H258887   3.501   6.710   0.564 -1.4255  1.0497 -3.1240
12466TIP3   OH258888   5.386   3.697   4.727  0.1495  0.0446  0.0704
12466TIP3    H158889   5.456   3.757   4.702  0.1206 -0.4557 -1.2569
12466TIP3    H258890   5.322   3.703   4.656 -0.1885 -1.0346  0.2731
12467TIP3   OH258891   5.771   1.782  12.167  0.2766 -0.3100  0.4631
12467TIP3    H158892   5.751   1.743  12.082  1.2668 -2.2163  1.0495
12467TIP3    H258893   5.687   1.813  12.199 -0.3381 -0.7957 -0.6186
12468TIP3   OH258894   4.437   3.001  14.720  0.1583  0.3894 -0.1714
12468TIP3    H158895   4.412   2.916  14.756  1.4186 -0.2171 -0.6713
12468TIP3    H258896   4.429   3.062  14.793  0.8387 -0.4665  0.6356
12469TIP3   OH258897   2.164   1.303   5.165 -0.0627 -0.2913  0.1237
12469TIP3    H158898   2.169   1.248   5.243 -0.5301 -1.3529 -0.5803
12469TIP3    H258899   2.188   1.246   5.093  0.6082  0.7473 -0.4986
12470TIP3   OH258900   1.236   3.146   0.835 -0.4052 -0.0121  0.3015
12470TIP3    H158901   1.277   3.083   0.776  2.2606  2.0225 -0.2500
12470TIP3    H258902   1.307   3.207   0.857 -2.0886  1.1224  3.1188
12471TIP3   OH258903   0.493   3.351   5.716  0.6251 -0.2574 -1.2262
12471TIP3    H158904   0.501   3.308   5.801 -0.9768 -1.2219 -1.5058
12471TIP3    H258905   0.566   3.412   5.712  0.3931  0.2561  1.0959
12472TIP3   OH258906   4.500   4.704  17.038  0.7764  0.1194  0.5075
12472TIP3    H158907   4.564   4.710  17.109  0.8589  1.5869  0.3397
12472TIP3    H258908   4.425   4.659  17.077  0.3536  1.8905  1.9082
12473TIP3   OH258909   4.780   4.627  10.762  0.0635  0.5127  0.1999
12473TIP3    H158910   4.836   4.671  10.698 -0.9539  2.9963  0.9031
12473TIP3    H258911   4.732   4.562  10.711  2.7532 -0.9992 -0.5939
12474TIP3   OH258912   1.020   4.177  13.999  0.3002 -0.7956 -0.2518
12474TIP3    H158913   1.035   4.181  14.093  0.2297 -1.4190 -0.2105
12474TIP3    H258914   1.087   4.235  13.962  0.0866 -0.2563  0.2010
12475TIP3   OH258915   3.703   1.921  11.781 -0.3231  0.2107  0.2995
12475TIP3    H158916   3.636   1.974  11.739 -2.0717 -1.7002  0.5165
12475TIP3    H258917   3.681   1.923  11.875  0.5055  0.3582  0.4964
12476TIP3   OH258918   2.844   1.470   3.136 -0.1827  0.7154  0.0533
12476TIP3    H158919   2.871   1.408   3.203 -1.1863 -0.8019 -0.8911
12476TIP3    H258920   2.884   1.553   3.163 -0.0576  0.0287  2.1711
12477TIP3   OH258921   0.481   2.008   5.222 -0.3928 -0.1993 -0.1003
12477TIP3    H158922   0.394   2.048   5.218  0.1762  1.1603  0.4022
12477TIP3    H258923   0.523   2.031   5.139  0.0744  0.6176  0.3479
12478TIP3   OH258924   3.811   0.337  15.009  0.0741  0.3996 -0.2889
12478TIP3    H158925   3.765   0.397  15.067 -1.8895 -1.4804  0.2568
12478TIP3    H258926   3.754   0.328  14.933  0.2426 -0.8163 -0.2985
12479TIP3   OH258927   1.477   2.359  13.105  0.9558  0.4095  0.0841
12479TIP3    H158928   1.383   2.373  13.117  0.3482 -3.2814  0.9237
12479TIP3    H258929   1.518   2.398  13.183 -0.2384 -0.4959  1.2003
12480TIP3   OH258930   1.520   4.322   0.552 -0.2893  0.2401 -0.1384
12480TIP3    H158931   1.543   4.311   0.644 -1.1841  0.2765  0.0928
12480TIP3    H258932   1.539   4.237   0.512 -0.0590  0.1755  0.1033
12481TIP3   OH258933   2.060   4.197   0.677 -0.0464 -0.3313  0.4202
12481TIP3    H158934   2.115   4.199   0.755 -1.4063 -0.2501  1.4249
12481TIP3    H258935   2.118   4.170   0.607  1.1596 -0.6737  1.5139
12482TIP3   OH258936   5.692   2.675  12.185  0.6065  0.1393  0.2940
12482TIP3    H158937   5.623   2.700  12.124  1.0620 -0.0444 -0.3069
12482TIP3    H258938   5.648   2.620  12.250 -0.2330  1.8185  1.1835
12483TIP3   OH258939   2.946   2.433   5.292  0.2712 -0.3117 -0.3372
12483TIP3    H158940   2.856   2.416   5.320  0.4659 -2.5588 -0.8743
12483TIP3    H258941   2.999   2.417   5.370  0.2751  0.3147 -0.2063
12484TIP3   OH258942   6.562   6.027  14.174 -0.6364 -0.1498  0.0585
12484TIP3    H158943   6.651   6.045  14.143 -0.2235  0.9020  1.6982
12484TIP3    H258944   6.506   6.076  14.113 -0.0449 -0.2007 -0.5431
12485TIP3   OH258945   3.886   5.828   5.497  0.0165  0.5651 -0.3616
12485TIP3    H158946   3.862   5.884   5.423  0.4546  0.5751 -0.5041
12485TIP3    H258947   3.847   5.871   5.574 -0.3239  0.6286 -0.5690
12486TIP3   OH258948   3.548   2.539   3.231  0.0334 -0.7860  0.8296
12486TIP3    H158949   3.562   2.633   3.234 -0.3053 -0.6653 -0.5931
12486TIP3    H258950   3.453   2.528   3.239 -0.1491 -0.8432 -0.8703
12487TIP3   OH258951   5.837   3.728   2.358 -0.2781 -0.5409  0.0239
12487TIP3    H158952   5.794   3.736   2.273 -1.0612 -1.5312  0.3140
12487TIP3    H258953   5.921   3.687   2.338 -0.0808  0.0501 -0.3726
12488TIP3   OH258954   2.677   2.904  15.344 -0.4622 -0.0318  0.5836
12488TIP3    H158955   2.663   2.878  15.435 -3.7247  1.5221  0.6622
12488TIP3    H258956   2.695   2.998  15.348 -3.6317  0.7169 -0.4255
12489TIP3   OH258957   1.495   6.278   6.334 -0.4430  0.0021 -0.2554
12489TIP3    H158958   1.441   6.356   6.347 -1.0914 -0.5551  0.4518
12489TIP3    H258959   1.441   6.206   6.365 -0.1558 -0.8384 -1.6218
12490TIP3   OH258960   4.672   2.575  12.925 -0.0758 -0.1531 -0.5510
12490TIP3    H158961   4.635   2.517  12.992 -0.6073  0.3418 -0.4008
12490TIP3    H258962   4.685   2.519  12.849  2.3595 -1.1902  0.5138
12491TIP3   OH258963   5.898   3.440  15.570  0.0089 -0.0187 -0.0982
12491TIP3    H158964   5.893   3.535  15.585 -0.9040 -0.1912  0.8648
12491TIP3    H258965   5.809   3.409  15.589  0.8023 -1.3391  1.7419
12492TIP3   OH258966   0.488   2.764  12.372 -0.1349  0.5265 -0.3801
12492TIP3    H158967   0.568   2.745  12.324  0.0177  0.2694 -0.0284
12492TIP3    H258968   0.517   2.804  12.453 -0.3355  0.0560 -0.0705
12493TIP3   OH258969   3.318   0.301   3.619  0.1815  0.0258 -0.0959
12493TIP3    H158970   3.344   0.209   3.620 -1.9472 -0.6422  0.0842
12493TIP3    H258971   3.250   0.306   3.552  0.2500  1.4551 -0.0804
12494TIP3   OH258972   0.075   6.756  16.380  0.6225 -0.1825 -0.5800
12494TIP3    H158973   0.090   6.678  16.434  0.4011  0.0044 -0.2493
12494TIP3    H258974  -0.014   6.745  16.347  0.2728  0.3635  0.1789
12495TIP3   OH258975   1.844   6.754   2.047 -0.7019  0.4853  0.5149
12495TIP3    H158976   1.835   6.802   1.965 -0.6371 -0.7306 -0.2370
12495TIP3    H258977   1.894   6.676   2.023  0.4767  0.7547  1.9910
12496TIP3   OH258978   6.377   1.843   2.862 -0.1375  0.0433  0.6644
12496TIP3    H158979   6.463   1.871   2.894  0.0345 -0.1288  0.3572
12496TIP3    H258980   6.333   1.810   2.940  1.0548 -2.3300  0.4177
12497TIP3   OH258981   2.466   4.484   1.518 -0.4862 -0.8585 -0.3764
12497TIP3    H158982   2.493   4.404   1.563 -1.6099 -1.2774 -0.4348
12497TIP3    H258983   2.528   4.550   1.549  1.3195 -2.0044 -1.3330
12498TIP3   OH258984   1.741   6.328   2.053  0.2098 -0.7770 -0.2860
12498TIP3    H158985   1.766   6.236   2.059  1.4715 -0.5844 -1.8812
12498TIP3    H258986   1.645   6.326   2.051  0.1793 -1.9524  0.7163
12499TIP3   OH258987   5.080   5.947  12.361 -0.2406 -0.0968 -0.1601
12499TIP3    H158988   5.033   5.986  12.435  0.9852  0.3338  0.4181
12499TIP3    H258989   5.014   5.941  12.292 -1.8400 -1.9307  1.4171
12500TIP3   OH258990   5.119   2.827   4.535  0.9031  0.0879 -0.3599
12500TIP3    H158991   5.043   2.829   4.594  0.9548 -1.9596 -0.1338
12500TIP3    H258992   5.126   2.916   4.501 -1.0750  0.5343  0.2737
12501TIP3   OH258993   3.440   2.205   5.848  0.3858 -0.0070  0.8274
12501TIP3    H158994   3.499   2.163   5.911 -0.0617  0.1390  1.3538
12501TIP3    H258995   3.356   2.161   5.862  0.5419 -0.7559 -0.4601
12502TIP3   OH258996   1.956   4.642  14.164 -0.3775  0.3003 -0.0086
12502TIP3    H158997   1.951   4.626  14.070  0.6325  1.6531 -0.3404
12502TIP3    H258998   2.037   4.693  14.175 -2.0080  2.8838  1.1448
12503TIP3   OH258999   2.715   6.338   2.229  0.1373 -0.3644 -0.1300
12503TIP3    H159000   2.793   6.284   2.214  0.3063  0.3075 -1.9954
12503TIP3    H259001   2.750   6.425   2.248 -0.1617 -0.4431  0.8323
12504TIP3   OH259002   6.503   0.129  12.818  0.0653 -0.2484  0.2336
12504TIP3    H159003   6.468   0.106  12.904 -0.7643  1.1675  0.3193
12504TIP3    H259004   6.464   0.066  12.758 -1.0587  0.0441  0.6220
12505TIP3   OH259005   5.349   1.059  12.748  0.2896 -0.6112 -0.1123
12505TIP3    H159006   5.415   1.123  12.721  0.1291  0.0529  0.9981
12505TIP3    H259007   5.266   1.095  12.715  0.5825 -2.2330 -2.9012
12506TIP3   OH259008   1.465   2.459  15.599 -0.8011 -0.4420 -0.6192
12506TIP3    H159009   1.448   2.375  15.642 -3.2017  0.2695 -0.0542
12506TIP3    H259010   1.379   2.500  15.592  0.4155  2.3717 -0.0983
12507TIP3   OH259011   2.232   1.000   3.076  0.0683 -0.0748 -0.3186
12507TIP3    H159012   2.269   0.960   3.155  0.5835  0.5730 -0.2180
12507TIP3    H259013   2.169   1.064   3.109 -0.6160 -0.6662 -0.4716
12508TIP3   OH259014   4.667   1.572  13.532  0.8353 -0.2995  0.2981
12508TIP3    H159015   4.697   1.591  13.443  0.4553 -0.8705  0.0379
12508TIP3    H259016   4.731   1.509  13.565  1.4736  0.5729  0.7575
12509TIP3   OH259017   4.779   3.718   5.164  0.7163  0.1324 -0.1367
12509TIP3    H159018   4.765   3.715   5.259  1.1678  1.1751 -0.0349
12509TIP3    H259019   4.873   3.727   5.154  0.5132  2.1641 -0.6157
12510TIP3   OH259020   5.951   3.974   1.432 -0.3333  0.5155  0.4254
12510TIP3    H159021   6.018   3.911   1.460  1.5001  1.6126 -1.2085
12510TIP3    H259022   5.870   3.940   1.469  0.3067 -3.4672 -1.2728
12511TIP3   OH259023   1.519   5.628   3.007 -0.3606  0.5545 -0.8180
12511TIP3    H159024   1.433   5.668   3.023 -0.6389  0.4171 -1.8620
12511TIP3    H259025   1.572   5.700   2.972 -0.2688  0.4706 -0.8503
12512TIP3   OH259026   1.795   4.651   4.034  0.0016  0.3590  0.0608
12512TIP3    H159027   1.862   4.585   4.014  0.1448  0.3598  0.5386
12512TIP3    H259028   1.723   4.602   4.072 -0.4902  0.2886 -0.9287
12513TIP3   OH259029   4.787   2.329   4.785  0.0610  0.1073 -0.0648
12513TIP3    H159030   4.798   2.307   4.692 -0.6594  1.6386 -0.5450
12513TIP3    H259031   4.780   2.244   4.829  1.7696 -0.6977 -1.2067
12514TIP3   OH259032   0.841   3.535  16.625 -0.3924  0.0137 -0.0315
12514TIP3    H159033   0.761   3.486  16.645  0.6424 -2.0515 -0.6244
12514TIP3    H259034   0.850   3.528  16.530  0.4886  0.1905  0.0317
12515TIP3   OH259035   3.903   0.339  14.244 -0.1139 -0.0229  0.0258
12515TIP3    H159036   3.880   0.426  14.212 -0.2806  0.2372  0.8160
12515TIP3    H259037   3.849   0.279  14.193 -0.9579  0.4340  0.3584
12516TIP3   OH259038   0.963   4.769   1.321  0.2330 -0.3743  0.0103
12516TIP3    H159039   1.048   4.727   1.330  1.4574  1.3431 -2.3568
12516TIP3    H259040   0.974   4.855   1.361 -0.5291 -0.3137  0.0991
12517TIP3   OH259041   1.981   4.443  14.386 -0.1612 -0.0519  0.3714
12517TIP3    H159042   1.942   4.512  14.332 -0.3075 -0.5302 -0.1423
12517TIP3    H259043   1.920   4.370  14.381  1.2125 -1.1663 -1.2182
12518TIP3   OH259044   6.285   3.011  11.061 -0.1795  0.4163  0.5862
12518TIP3    H159045   6.243   2.929  11.037 -1.3197  0.7085  1.4929
12518TIP3    H259046   6.291   3.060  10.979 -1.1912  0.1757  0.3581
12519TIP3   OH259047   0.351   3.589   5.602 -0.2172 -0.2645  0.0072
12519TIP3    H159048   0.305   3.505   5.599 -0.4612 -0.1124 -0.6568
12519TIP3    H259049   0.437   3.568   5.638 -0.5635 -0.6646  0.6179
12520TIP3   OH259050   0.315   5.053  16.786 -0.3859 -0.3818 -0.1390
12520TIP3    H159051   0.343   5.129  16.837 -0.3577 -0.7646  0.4292
12520TIP3    H259052   0.395   5.001  16.777 -0.2600 -0.0466 -1.0721
12521TIP3   OH259053   3.306   3.235   0.403  0.2039  0.7871 -0.0093
12521TIP3    H159054   3.217   3.265   0.422 -0.1052 -0.0877 -0.0642
12521TIP3    H259055   3.297   3.141   0.388  0.7998  1.0133 -2.0943
12522TIP3   OH259056   6.436   6.790  13.046  0.1131  0.1220 -0.0215
12522TIP3    H159057   6.431   6.700  13.014 -0.3788  0.9803 -2.5362
12522TIP3    H259058   6.345   6.816  13.060  0.2478  0.2735  0.6005
12523TIP3   OH259059   2.314   5.363   2.253  0.9811  0.8978  0.8117
12523TIP3    H159060   2.303   5.382   2.160 -1.1214  1.3781  1.1218
12523TIP3    H259061   2.374   5.289   2.256  1.7422  1.3973 -0.8667
12524TIP3   OH259062   1.246   2.752   2.505  0.0531  0.1817  0.5817
12524TIP3    H159063   1.284   2.834   2.537 -0.5140 -0.1909  2.3260
12524TIP3    H259064   1.158   2.749   2.544 -1.5520  0.6078 -2.6436
12525TIP3   OH259065   2.451   3.643  12.701 -0.3812 -0.3100 -0.7268
12525TIP3    H159066   2.400   3.713  12.742  1.9560  0.6065  0.8065
12525TIP3    H259067   2.434   3.566  12.756 -0.0291  0.0372 -0.1141
12526TIP3   OH259068   3.976   2.248   0.014 -0.6053 -0.4023 -0.3554
12526TIP3    H159069   4.051   2.206  -0.028  0.6163  1.0196  0.3145
12526TIP3    H259070   3.993   2.342   0.005 -1.1500 -0.0429  1.7579
12527TIP3   OH259071   5.638   0.187   0.879  0.2402 -0.4159  0.4245
12527TIP3    H159072   5.648   0.235   0.797  1.5649  1.0119  1.3984
12527TIP3    H259073   5.544   0.195   0.899 -0.4863 -2.2295 -1.7473
12528TIP3   OH259074   0.432   5.457  12.858 -0.2949  0.6013 -0.1061
12528TIP3    H159075   0.473   5.428  12.940  1.5579 -0.0740 -1.2189
12528TIP3    H259076   0.339   5.460  12.878 -0.1274 -1.6826  1.4264
12529TIP3   OH259077   3.793   1.162   3.771 -0.2020 -0.3637 -0.4439
12529TIP3    H159078   3.875   1.211   3.779  0.4453 -1.4146 -0.4748
12529TIP3    H259079   3.739   1.193   3.844  1.2955 -1.6317  1.2783
12530TIP3   OH259080   3.759   3.559  16.890  0.3259  0.9118 -0.0852
12530TIP3    H159081   3.676   3.607  16.884  0.0553  0.2972 -1.4857
12530TIP3    H259082   3.734   3.467  16.888  1.0890  0.7042 -1.6901
12531TIP3   OH259083   5.219   5.420  11.236 -0.2936 -0.0488 -0.5838
12531TIP3    H159084   5.154   5.454  11.298 -1.4128 -2.0978 -0.5558
12531TIP3    H259085   5.168   5.400  11.157  0.9374  1.5316 -1.8549
12532TIP3   OH259086   4.568   1.633  15.669  0.6595 -0.0007  0.3478
12532TIP3    H159087   4.556   1.634  15.764 -1.0282  0.4877  0.1752
12532TIP3    H259088   4.479   1.637  15.634  1.2383 -0.5206 -1.2628
12533TIP3   OH259089   6.745   4.788  15.497 -0.1545 -0.4026  0.3099
12533TIP3    H159090   6.688   4.863  15.478  0.6021 -0.0896 -0.8633
12533TIP3    H259091   6.711   4.717  15.442  0.6578 -0.1647 -0.5312
12534TIP3   OH259092   1.948   3.193  11.213  0.1729  0.5962  0.4200
12534TIP3    H159093   1.876   3.251  11.238 -0.1091  0.5534 -0.2693
12534TIP3    H259094   1.934   3.177  11.119  0.4845 -0.2477  0.5115
12535TIP3   OH259095   4.169   1.601   4.382  0.2981 -0.2332 -0.4334
12535TIP3    H159096   4.100   1.539   4.359 -1.5203  1.4221  0.2875
12535TIP3    H259097   4.168   1.666   4.311  2.0326 -0.8505 -1.0749
12536TIP3   OH259098   5.490   4.363  12.647 -0.2835  0.3655  0.0961
12536TIP3    H159099   5.444   4.285  12.617  0.3896 -0.0608  0.1348
12536TIP3    H259100   5.583   4.337  12.647 -0.3083 -0.5098  4.8652
12537TIP3   OH259101   1.751   5.061  13.947  0.0264 -0.5214 -0.1341
12537TIP3    H159102   1.731   4.969  13.966  0.8456  0.0010  4.6411
12537TIP3    H259103   1.666   5.099  13.923 -1.3546 -1.7441  2.3228
12538TIP3   OH259104   0.636   3.922   1.505  0.1173 -0.0572 -0.2445
12538TIP3    H159105   0.707   3.891   1.561 -0.7844 -0.2173  0.8525
12538TIP3    H259106   0.567   3.856   1.515 -1.0050  1.1677  0.4254
12539TIP3   OH259107   4.282   4.221   5.576  0.4012 -0.1603 -0.1099
12539TIP3    H159108   4.193   4.215   5.543 -0.2716 -0.2162  1.6217
12539TIP3    H259109   4.315   4.131   5.573 -0.3596 -0.5103  1.1654
12540TIP3   OH259110   1.806   0.996   1.540  0.2686 -0.0721 -0.5410
12540TIP3    H159111   1.812   1.042   1.457 -0.9559 -0.3699 -0.8191
12540TIP3    H259112   1.826   0.904   1.519  0.0790 -0.1263 -0.4902
12541TIP3   OH259113   3.929   1.814  13.801  0.3949 -0.0199  0.2435
12541TIP3    H159114   3.841   1.814  13.766 -0.2699  0.6624  1.8032
12541TIP3    H259115   3.986   1.796  13.726 -0.9588  0.9191 -1.0524
12542TIP3   OH259116   5.568   6.061  16.560 -0.3457 -0.0936 -0.3813
12542TIP3    H159117   5.507   6.034  16.491  0.0078  0.1239 -0.7828
12542TIP3    H259118   5.514   6.065  16.639 -1.0127  0.7941 -0.8696
12543TIP3   OH259119   6.469   1.400  15.886 -0.0243  0.3551 -0.0300
12543TIP3    H159120   6.440   1.410  15.795 -1.4431  1.8944  0.5318
12543TIP3    H259121   6.497   1.309  15.893  1.8570  0.6498 -2.4664
12544TIP3   OH259122   5.596   2.976  15.127  0.2780 -0.4121 -0.0369
12544TIP3    H159123   5.614   3.019  15.211 -0.2584 -0.0531 -0.0983
12544TIP3    H259124   5.511   2.934  15.139 -0.2204  0.3725 -0.6656
12545TIP3   OH259125   0.601   2.856  15.573  0.5786 -0.9642 -0.0004
12545TIP3    H159126   0.608   2.771  15.617  2.7667 -1.5930 -1.4034
12545TIP3    H259127   0.673   2.908  15.609  0.6749 -0.5292 -0.7935
12546TIP3   OH259128   2.025   4.548  12.062  0.4888 -0.1967 -0.6388
12546TIP3    H159129   1.937   4.511  12.075  1.3930 -1.7739  1.5287
12546TIP3    H259130   2.020   4.634  12.103  0.3015 -0.8397  0.7298
12547TIP3   OH259131   3.545   4.331  11.861  0.1225 -0.5194  0.4413
12547TIP3    H159132   3.639   4.327  11.878 -0.0541 -1.0730  1.3864
12547TIP3    H259133   3.518   4.240  11.855 -0.2404 -0.3538 -0.5480
12548TIP3   OH259134   2.560   3.266  16.093  0.3847 -0.0890 -0.2792
12548TIP3    H159135   2.519   3.302  16.172  1.1940  0.5234 -0.1188
12548TIP3    H259136   2.560   3.172  16.107  0.4046  0.0045  0.4041
12549TIP3   OH259137   1.123   4.887  17.060  0.5728 -0.1638 -0.3988
12549TIP3    H159138   1.186   4.919  16.995 -0.3863 -1.0990 -1.8537
12549TIP3    H259139   1.173   4.882  17.141  2.2730 -0.4935 -1.4165
12550TIP3   OH259140   3.394   4.088  11.985  0.2915  0.2318 -0.3188
12550TIP3    H159141   3.359   4.148  12.050 -0.5744  1.1698 -1.5890
12550TIP3    H259142   3.433   4.017  12.035 -1.7166  0.1246  1.1972
12551TIP3   OH259143   5.836   0.730  14.313 -0.3305  0.1208 -0.2515
12551TIP3    H159144   5.840   0.792  14.240 -0.3014 -1.3183 -1.5389
12551TIP3    H259145   5.748   0.693  14.308 -0.0672 -0.5504 -0.0697
12552TIP3   OH259146   5.881   2.731  14.481  0.9754 -0.0219 -0.2552
12552TIP3    H159147   5.810   2.714  14.543 -0.0358  1.5898 -0.8896
12552TIP3    H259148   5.837   2.776  14.408  2.7002  1.3088 -0.5295
12553TIP3   OH259149   0.617   1.172   5.169  0.3208 -0.0881 -0.4082
12553TIP3    H159150   0.669   1.236   5.218  1.1708 -0.6650 -0.5358
12553TIP3    H259151   0.604   1.099   5.231 -0.7828  0.2568 -0.2056
12554TIP3   OH259152   0.247   2.944  11.165  0.2444  0.1412 -0.2353
12554TIP3    H159153   0.248   3.037  11.188  1.3637 -0.1019  0.7922
12554TIP3    H259154   0.293   2.901  11.237  1.8757 -0.9194 -1.8179
12555TIP3   OH259155   4.073   2.889   5.282 -0.0625  0.4675  0.0063
12555TIP3    H159156   4.000   2.939   5.320 -1.3637 -1.4824  0.2565
12555TIP3    H259157   4.078   2.811   5.337  1.9021  0.3073 -0.3554
12556TIP3   OH259158   4.931   3.489  12.740 -0.4565 -0.1712 -0.4710
12556TIP3    H159159   4.838   3.478  12.719 -1.8264  2.6413  2.9308
12556TIP3    H259160   4.949   3.581  12.720  1.4365 -0.5340 -0.5584
12557TIP3   OH259161   4.702   0.675  14.410  0.3681 -0.2703 -0.2248
12557TIP3    H159162   4.729   0.627  14.332  1.0936 -0.3386  0.0626
12557TIP3    H259163   4.679   0.607  14.473  0.5642 -0.2282 -0.1069
12558TIP3   OH259164   1.376   0.886   0.988 -0.0653 -0.1250  0.0099
12558TIP3    H159165   1.383   0.980   1.005 -1.2202  0.1113 -0.6988
12558TIP3    H259166   1.283   0.867   1.001 -0.2874 -0.6936 -2.0956
12559TIP3   OH259167   1.391   2.436   3.667  0.8728  0.5523  0.3321
12559TIP3    H159168   1.380   2.414   3.574  1.6171 -2.7382  0.8890
12559TIP3    H259169   1.306   2.419   3.706  0.8687  0.8468  0.4557
12560TIP3   OH259170   2.540   2.684  14.615 -0.0328  0.2510 -0.4999
12560TIP3    H159171   2.629   2.691  14.578 -0.4253 -0.9574 -1.7766
12560TIP3    H259172   2.554   2.678  14.709  1.0618  2.6748 -0.4254
12561TIP3   OH259173   4.734   5.176  17.078  0.0910 -0.4472  0.0513
12561TIP3    H159174   4.731   5.114  17.151  0.9121  0.2773  0.7331
12561TIP3    H259175   4.813   5.152  17.029  0.7749  0.4202  0.6842
12562TIP3   OH259176   0.114   4.585   5.047  0.0439 -0.0616 -0.2019
12562TIP3    H159177   0.115   4.576   4.952  0.5462  0.9120 -0.3005
12562TIP3    H259178   0.186   4.529   5.077 -0.7328 -1.1555 -0.2963
12563TIP3   OH259179   4.239   4.483  12.828 -0.0323  0.7603 -0.3745
12563TIP3    H159180   4.159   4.436  12.852  1.1887 -0.7024  1.1348
12563TIP3    H259181   4.211   4.572  12.810 -2.2857 -0.2085 -2.1014
12564TIP3   OH259182   3.962   4.016  17.080 -0.0975 -0.0032 -0.1745
12564TIP3    H159183   3.911   4.096  17.066  0.5326  0.3081 -0.7646
12564TIP3    H259184   4.015   4.008  17.001 -0.7891 -1.4941 -0.5309
12565TIP3   OH259185   1.374   4.132  13.223 -0.4691  0.6501  0.0719
12565TIP3    H159186   1.301   4.152  13.282 -0.4173 -2.1533  1.2457
12565TIP3    H259187   1.347   4.053  13.177  1.6026 -0.1639  0.1473
12566TIP3   OH259188   5.177   2.488   2.510 -0.1217  0.2709 -0.0310
12566TIP3    H159189   5.140   2.573   2.485  0.6645  0.8873  0.8219
12566TIP3    H259190   5.169   2.434   2.432  1.2829  1.7913 -1.2957
12567TIP3   OH259191   1.373   3.059  13.643  0.2108 -0.1391 -0.1126
12567TIP3    H159192   1.297   3.110  13.669  0.3646  0.3417 -0.5914
12567TIP3    H259193   1.388   2.999  13.716  0.5933  1.1160  0.8506
12568TIP3   OH259194   1.710   3.966   0.642 -0.1015  0.2723 -0.4373
12568TIP3    H159195   1.644   3.939   0.706  0.1918 -0.3856 -0.4149
12568TIP3    H259196   1.659   4.007   0.571 -0.4704  0.4704 -0.0613
12569TIP3   OH259197   5.912   5.059   5.078 -0.2085 -0.7559  0.0794
12569TIP3    H159198   5.950   5.029   4.994  3.1553  1.8012  0.4676
12569TIP3    H259199   5.918   4.982   5.135 -1.2234 -2.1387 -1.5773
12570TIP3   OH259200   6.517   5.141  12.929  0.2749 -0.4047 -0.2834
12570TIP3    H159201   6.452   5.096  12.876 -1.4883  1.2707  0.3560
12570TIP3    H259202   6.578   5.179  12.865  0.8666 -2.2329 -0.8739
12571TIP3   OH259203   3.340   6.187   4.165 -0.1517  0.1512 -0.0446
12571TIP3    H159204   3.288   6.232   4.232 -0.9629  2.7041 -2.2070
12571TIP3    H259205   3.429   6.220   4.178 -0.0985 -0.1512  0.3824
12572TIP3   OH259206   5.030   5.430   2.195  0.5159 -0.4217 -0.2916
12572TIP3    H159207   5.089   5.472   2.132 -0.2768 -1.1955 -1.6062
12572TIP3    H259208   4.943   5.465   2.173  0.2754 -0.3649  0.6900
12573TIP3   OH259209   5.647   3.345   1.171  0.8851 -0.3042 -0.0649
12573TIP3    H159210   5.703   3.366   1.096  1.6647  0.0237  0.5875
12573TIP3    H259211   5.609   3.260   1.150  0.7317 -0.0031 -1.0327
12574TIP3   OH259212   5.409   1.520  15.974  0.0484 -0.1516  0.2907
12574TIP3    H159213   5.372   1.477  15.897  0.1109  0.4359 -0.0674
12574TIP3    H259214   5.485   1.466  15.997  0.1736 -0.1949 -0.2086
12575TIP3   OH259215   6.537   2.145  10.767 -0.3058 -0.3675 -0.5166
12575TIP3    H159216   6.616   2.092  10.756 -0.4187 -0.6413 -0.0716
12575TIP3    H259217   6.465   2.085  10.745 -0.4233 -0.3466 -0.1963
12576TIP3   OH259218   0.659   4.941   2.179  0.0151  0.5365 -0.2559
12576TIP3    H159219   0.596   4.876   2.147  0.3073  0.0386  0.1540
12576TIP3    H259220   0.636   4.952   2.272  0.7872  0.0291  0.0086
12577TIP3   OH259221   1.565   2.443   2.848 -0.3805  0.2238 -0.3339
12577TIP3    H159222   1.514   2.408   2.775 -2.7379 -0.0243  1.3426
12577TIP3    H259223   1.565   2.538   2.834  0.2822  0.1013 -1.2844
12578TIP3   OH259224   3.584   0.013  10.932  0.2160  0.0188  0.0394
12578TIP3    H159225   3.505   0.066  10.931  0.8113  0.9904 -2.1149
12578TIP3    H259226   3.563  -0.063  10.878 -0.0986 -1.1618  1.7539
12579TIP3   OH259227   4.324   1.153  11.388  0.0155 -0.1106  0.1839
12579TIP3    H159228   4.315   1.144  11.293  0.7136  0.5606  0.0411
12579TIP3    H259229   4.251   1.103  11.424 -1.0678  0.7530 -0.7387
12580TIP3   OH259230   3.186   1.043  11.608  0.2574  0.0628 -0.3746
12580TIP3    H159231   3.245   1.067  11.678 -0.4343  1.2482 -0.1803
12580TIP3    H259232   3.149   1.126  11.577  0.0846 -0.4890 -1.7160
12581TIP3   OH259233   5.096   3.882   4.074 -0.0186  0.3634  0.1962
12581TIP3    H159234   5.009   3.916   4.056 -0.5684 -0.6512  0.8425
12581TIP3    H259235   5.148   3.959   4.095 -1.3868  0.7980  2.2695
12582TIP3   OH259236   5.127   5.400   0.815 -0.1327 -0.2115 -1.0741
12582TIP3    H159237   5.076   5.356   0.747 -1.1862 -0.4591 -0.1673
12582TIP3    H259238   5.071   5.472   0.843  0.0260 -0.4509 -0.0990
12583TIP3   OH259239   4.673   2.038  14.056  0.6688 -0.0395  0.6864
12583TIP3    H159240   4.624   1.974  14.108  1.0666 -0.0614  1.0303
12583TIP3    H259241   4.676   2.116  14.110  0.8314  0.0310  0.5755
12584TIP3   OH259242   3.830   2.098   3.993 -0.0043  0.7236  0.3346
12584TIP3    H159243   3.816   2.192   4.005 -1.2191  0.7039 -0.7169
12584TIP3    H259244   3.839   2.086   3.899 -0.0446 -0.2479  0.4383
12585TIP3   OH259245   1.406   2.298   4.116  0.0744  0.7991 -0.3689
12585TIP3    H159246   1.466   2.358   4.161 -0.1658  0.6072  0.2133
12585TIP3    H259247   1.398   2.223   4.175  0.2211  0.2773 -1.0038
12586TIP3   OH259248   5.844   6.158   1.999 -0.5505 -0.4005  0.1295
12586TIP3    H159249   5.895   6.212   1.938 -0.4077 -1.1436 -0.4213
12586TIP3    H259250   5.783   6.220   2.040 -1.3452 -0.0564 -1.4961
12587TIP3   OH259251   0.541   2.476  11.347  0.3902 -0.0691  0.3254
12587TIP3    H159252   0.511   2.502  11.260  2.2007  1.2704  0.0432
12587TIP3    H259253   0.605   2.542  11.371  0.1722 -0.5822  2.5713
12588TIP3   OH259254   5.566   1.411  17.257 -0.6873 -0.4055  0.0536
12588TIP3    H159255   5.471   1.407  17.272 -0.6806  1.1970  0.6734
12588TIP3    H259256   5.602   1.345  17.316 -1.4173 -1.1964 -0.3588
12589TIP3   OH259257   1.244   6.548  12.724 -0.0952  0.3191  0.0303
12589TIP3    H159258   1.326   6.539  12.676 -0.0115  0.6540  0.1096
12589TIP3    H259259   1.252   6.488  12.798 -0.9379 -1.5385 -1.3220
12590TIP3   OH259260   4.101   1.164   6.532  0.6500  0.4502  0.7536
12590TIP3    H159261   4.179   1.135   6.485  0.2591  0.0187  0.3629
12590TIP3    H259262   4.091   1.256   6.507  0.8264  0.4054  0.5190
12591TIP3   OH259263   2.110   6.779   2.810 -0.1696  0.2243 -0.1138
12591TIP3    H159264   2.199   6.746   2.820 -0.4012 -0.0585  1.1871
12591TIP3    H259265   2.092   6.773   2.716  0.4848 -1.5750 -0.1639
12592TIP3   OH259266   5.660   2.586   5.268 -0.0671  0.7533  0.1223
12592TIP3    H159267   5.674   2.578   5.174 -0.3958  0.1197  0.1232
12592TIP3    H259268   5.576   2.633   5.275 -1.4031 -1.4676  0.0521
12593TIP3   OH259269   4.736   3.012   1.511 -0.1515  0.2374 -0.1777
12593TIP3    H159270   4.750   2.967   1.595  0.5129 -0.4885 -0.6543
12593TIP3    H259271   4.793   3.089   1.516 -0.3142  0.3400  0.1425
12594TIP3   OH259272   6.081   1.347  12.373 -0.2917  0.6739  0.1194
12594TIP3    H159273   6.023   1.419  12.350 -1.9444 -0.8901 -0.7488
12594TIP3    H259274   6.026   1.269  12.373  1.5275 -0.6955  0.6077
12595TIP3   OH259275   2.842   6.371   1.466  0.5488  0.3292  0.4716
12595TIP3    H159276   2.792   6.358   1.547  3.6223 -3.1535  2.0597
12595TIP3    H259277   2.798   6.316   1.402 -0.6213  1.4256  0.2753
12596TIP3   OH259278   6.239   6.508  14.608 -0.3503  0.4126 -0.3548
12596TIP3    H159279   6.177   6.534  14.540 -1.5905  1.0544  0.9926
12596TIP3    H259280   6.291   6.586  14.625 -0.8987  0.6322  0.3332
12597TIP3   OH259281   1.714   3.139  11.022  0.1459  0.0344  0.0389
12597TIP3    H159282   1.763   3.101  10.949  1.2306  1.8731 -0.2497
12597TIP3    H259283   1.636   3.176  10.982 -0.5443 -1.1553  0.2198
12598TIP3   OH259284   5.465   2.628   2.269  0.0212 -0.5453  0.0915
12598TIP3    H159285   5.396   2.655   2.330 -0.2969 -4.1073  1.5347
12598TIP3    H259286   5.534   2.694   2.280 -1.3458  0.6586  1.9367
12599TIP3   OH259287   5.453   0.177  13.008  0.3584  0.4860 -0.1422
12599TIP3    H159288   5.410   0.095  13.034  0.7174  0.2537 -0.2655
12599TIP3    H259289   5.542   0.150  12.984 -0.3391  0.4386 -3.0219
12600TIP3   OH259290   5.200   3.744  13.526  0.2366  0.6141 -0.0453
12600TIP3    H159291   5.110   3.771  13.546  0.5737  2.5057 -0.8489
12600TIP3    H259292   5.227   3.802  13.455  1.6822 -0.7638 -0.6806
12601TIP3   OH259293   0.393   5.185   4.071  0.7897  0.2413  0.3208
12601TIP3    H159294   0.484   5.188   4.099  0.5841  0.5833  0.9591
12601TIP3    H259295   0.374   5.091   4.060  1.7473  0.2300 -1.6129
12602TIP3   OH259296   4.466   0.377   3.416  0.4043 -0.4733 -0.1217
12602TIP3    H159297   4.476   0.436   3.341  0.3799 -0.7889 -0.3731
12602TIP3    H259298   4.464   0.290   3.378 -0.2880 -0.5977  0.1853
12603TIP3   OH259299   2.587   6.592   0.649 -0.3384  0.0931 -0.7808
12603TIP3    H159300   2.642   6.579   0.726 -0.7101 -0.3460 -0.5862
12603TIP3    H259301   2.540   6.509   0.638 -0.1305  0.0779 -1.6081
12604TIP3   OH259302   6.703   5.794  11.970  0.2843 -0.2586 -0.1854
12604TIP3    H159303   6.668   5.878  11.941  2.6641  0.8943  0.0652
12604TIP3    H259304   6.683   5.791  12.063 -0.0940 -0.1260 -0.2606
12605TIP3   OH259305   4.610   0.995   4.161  0.4585 -0.3775 -0.2766
12605TIP3    H159306   4.699   1.024   4.181 -0.0941  0.5685  0.9496
12605TIP3    H259307   4.557   1.073   4.171 -0.9049 -1.4852  1.8343
12606TIP3   OH259308   0.007   5.693   6.448  0.2830 -0.1248 -0.0029
12606TIP3    H159309  -0.037   5.664   6.528  0.6810 -0.2979  0.1528
12606TIP3    H259310   0.099   5.701   6.472  0.0234  2.7840  0.3873
12607TIP3   OH259311   2.696   3.946  11.364 -0.3290  0.1621 -0.2665
12607TIP3    H159312   2.659   4.027  11.329 -1.2277  1.1351  2.6221
12607TIP3    H259313   2.750   3.912  11.293 -0.7320  2.7370 -1.9649
12608TIP3   OH259314   3.372   4.529  11.290  0.0007 -0.5719  0.0146
12608TIP3    H159315   3.318   4.464  11.245 -0.7553  0.0482  0.0032
12608TIP3    H259316   3.367   4.503  11.382 -0.7516 -0.2280  0.0805
12609TIP3   OH259317   1.627   5.787   2.536  1.1557 -0.9944  0.2419
12609TIP3    H159318   1.679   5.866   2.541  0.7938 -0.5125 -2.3228
12609TIP3    H259319   1.546   5.808   2.583  1.6078 -0.3141  0.7226
12610TIP3   OH259320   6.533   0.188   1.264 -0.4326 -0.3683 -0.0378
12610TIP3    H159321   6.495   0.155   1.183  0.1556 -1.3741  0.0909
12610TIP3    H259322   6.560   0.110   1.312  0.7075  0.2771  0.4044
12611TIP3   OH259323   3.056   2.515  16.767 -0.6049 -0.2245  0.5119
12611TIP3    H159324   3.047   2.471  16.682 -1.0305 -1.7004  1.2971
12611TIP3    H259325   2.990   2.584  16.765 -1.0945 -0.7032 -0.0688
12612TIP3   OH259326   0.964   3.541  14.144  0.0332  0.5037 -0.0213
12612TIP3    H159327   0.872   3.544  14.120 -0.0874  0.3032  0.4135
12612TIP3    H259328   1.007   3.598  14.080 -0.4897  1.1773  0.2101
12613TIP3   OH259329   0.728   4.501   5.022  0.0597  0.2111 -0.1331
12613TIP3    H159330   0.733   4.537   4.933  0.3515  0.6143  0.0423
12613TIP3    H259331   0.660   4.552   5.065  0.9381  1.0224  0.3228
12614TIP3   OH259332   6.371   0.856   4.372  0.5628  0.0511  0.7602
12614TIP3    H159333   6.424   0.786   4.334 -0.8022  0.0685 -1.3655
12614TIP3    H259334   6.298   0.812   4.415 -0.4294  0.0890 -0.7877
12615TIP3   OH259335   3.282   6.632  13.619  0.3903 -0.6683 -0.5073
12615TIP3    H159336   3.295   6.644  13.713  1.8545 -1.2619 -0.6068
12615TIP3    H259337   3.238   6.548  13.611  2.1953 -1.6679 -0.4181
12616TIP3   OH259338   0.043   3.002   3.156 -0.2070 -0.5018  0.5810
12616TIP3    H159339   0.014   2.911   3.155 -0.9941 -0.2892 -1.6909
12616TIP3    H259340   0.108   3.007   3.086  0.7077  0.4360  1.4729
12617TIP3   OH259341   3.828   1.713  14.597 -0.0031 -0.2557  0.1668
12617TIP3    H159342   3.803   1.664  14.518 -0.9847 -0.3735  0.5392
12617TIP3    H259343   3.899   1.770  14.568  0.5591 -1.2495 -0.4940
12618TIP3   OH259344   4.465   6.335   5.612 -0.7825  0.0095 -0.4565
12618TIP3    H159345   4.507   6.304   5.532 -0.6438  0.5379 -0.5917
12618TIP3    H259346   4.454   6.257   5.666  0.0950 -0.1781 -0.5457
12619TIP3   OH259347   3.389   1.994  14.704  0.4887 -0.0658 -0.2472
12619TIP3    H159348   3.435   2.023  14.783 -0.5975  0.4171  0.2363
12619TIP3    H259349   3.376   2.075  14.654 -0.3841 -0.0753 -0.0607
12620TIP3   OH259350   4.422   0.352  14.733  0.5227  0.5677  0.1430
12620TIP3    H159351   4.355   0.294  14.697 -0.3417 -0.6241  3.3563
12620TIP3    H259352   4.377   0.436  14.745  1.0501  1.2388 -2.1043
12621TIP3   OH259353   2.053   0.603   2.048  0.3798 -0.0584 -0.1916
12621TIP3    H159354   2.105   0.645   1.980 -0.4820 -0.4231 -1.1031
12621TIP3    H259355   1.974   0.657   2.057  0.6866  0.2476  0.8646
12622TIP3   OH259356   2.406   4.501   1.876  0.5815 -0.1233  0.3591
12622TIP3    H159357   2.418   4.454   1.958  0.0103  1.0267  1.1410
12622TIP3    H259358   2.411   4.593   1.901  0.2647  0.2461 -0.8810
12623TIP3   OH259359   0.280   5.571  13.560  0.4050  0.2147  0.1381
12623TIP3    H159360   0.280   5.479  13.583 -0.5405  0.7128  2.3629
12623TIP3    H259361   0.206   5.609  13.608  0.2362  1.9952 -1.3738
12624TIP3   OH259362   2.405   2.799  15.201 -0.6888  0.0665  0.8476
12624TIP3    H159363   2.481   2.781  15.256  0.1931 -0.6252 -0.5356
12624TIP3    H259364   2.399   2.723  15.143 -0.4382  1.5423 -1.2395
12625TIP3   OH259365   2.037   3.491  14.446 -0.5934 -0.1440 -0.1340
12625TIP3    H159366   2.115   3.501  14.500  0.6272 -1.6975 -1.4951
12625TIP3    H259367   2.046   3.404  14.406 -2.9933 -0.3474 -0.4164
12626TIP3   OH259368   2.437   4.499   3.814  0.2570 -0.8241 -0.5209
12626TIP3    H159369   2.424   4.593   3.828 -0.2157 -0.2703 -3.7586
12626TIP3    H259370   2.352   4.467   3.786  0.3298 -2.3521  0.8759
12627TIP3   OH259371   0.973   1.903  13.917 -0.4651 -0.3775 -0.3752
12627TIP3    H159372   1.020   1.819  13.913  1.8727  0.7877  0.7179
12627TIP3    H259373   0.906   1.896  13.849 -1.4808 -3.7529  0.7625
12628TIP3   OH259374   5.151   3.678  16.620  0.0679  0.1128  0.4270
12628TIP3    H159375   5.184   3.602  16.572 -0.9288  0.8456 -1.5348
12628TIP3    H259376   5.057   3.680  16.601 -0.0783  1.3370  1.1445
12629TIP3   OH259377   0.335   5.141  14.347  0.2901 -0.0022  0.0218
12629TIP3    H159378   0.414   5.194  14.353  2.1125 -2.5538  0.2480
12629TIP3    H259379   0.277   5.190  14.288  2.0428  1.8987 -0.2236
12630TIP3   OH259380   4.706   6.432   0.617 -0.2380 -0.0866  0.4378
12630TIP3    H159381   4.612   6.420   0.606 -0.5093  2.2035 -0.2553
12630TIP3    H259382   4.731   6.492   0.547  2.1589 -2.1465 -0.6228
12631TIP3   OH259383   2.718   6.277   6.084  0.5091 -0.3506 -0.1457
12631TIP3    H159384   2.626   6.258   6.104  0.6302 -0.7140  0.0921
12631TIP3    H259385   2.765   6.199   6.115  1.1872  0.8569  2.0807
12632TIP3   OH259386   1.888   0.425   4.060 -0.4906 -0.9202 -0.0440
12632TIP3    H159387   1.844   0.496   4.013  1.5099 -0.1199 -0.7982
12632TIP3    H259388   1.839   0.417   4.142 -1.9817 -0.0449 -0.8017
12633TIP3   OH259389   5.862   5.412   6.694 -0.2755 -0.0771 -0.1056
12633TIP3    H159390   5.808   5.340   6.726 -0.0707 -0.4114 -0.5037
12633TIP3    H259391   5.848   5.413   6.599  0.6743 -0.3924 -0.2653
12634TIP3   OH259392   0.983   2.993   4.134  0.3660 -0.0783  0.0053
12634TIP3    H159393   0.958   3.055   4.203  2.0153  0.8097 -0.1706
12634TIP3    H259394   1.078   2.986   4.141  0.3844 -1.2378 -1.1359
12635TIP3   OH259395   5.099   2.617   3.199 -0.5778  0.6786 -0.0623
12635TIP3    H159396   5.145   2.691   3.239  1.7039 -0.7941  0.2829
12635TIP3    H259397   5.011   2.619   3.236  0.0540  2.0671  1.4471
12636TIP3   OH259398   4.309   6.418  14.012 -0.0660  0.0429  0.5241
12636TIP3    H159399   4.364   6.496  14.004  0.6832 -0.5925 -0.9904
12636TIP3    H259400   4.220   6.451  14.002  0.3152  0.5834 -1.8111
12637TIP3   OH259401   4.167   0.373  11.643 -0.0795  0.0596  1.3355
12637TIP3    H159402   4.202   0.395  11.557 -1.1058 -1.5396  0.4760
12637TIP3    H259403   4.245   0.353  11.696  0.5070  0.3084  0.5875
12638TIP3   OH259404   6.723   4.959  11.526  0.4089  0.3018  0.7969
12638TIP3    H159405   6.777   4.905  11.583  1.7422  0.9589  0.2044
12638TIP3    H259406   6.759   4.946  11.438 -0.1920  0.9999  0.4313
12639TIP3   OH259407   1.387   1.104   1.978  0.4039  0.2061  0.4101
12639TIP3    H159408   1.367   1.040   2.047 -0.7464  0.9961  0.8469
12639TIP3    H259409   1.323   1.085   1.909 -0.3101  1.1991  0.7698
12640TIP3   OH259410   6.662   4.514  12.008 -0.1851  0.0459 -0.7057
12640TIP3    H159411   6.584   4.507  12.062  0.9446  0.9090  1.1480
12640TIP3    H259412   6.631   4.551  11.925 -1.6577  0.7869  0.1440
12641TIP3   OH259413   6.200   5.526  11.598 -0.5763  0.0802  0.1146
12641TIP3    H159414   6.136   5.565  11.538 -1.7021 -1.4725  0.2441
12641TIP3    H259415   6.147   5.487  11.668  0.4449 -1.7544 -0.0648
12642TIP3   OH259416   3.708   3.493  15.909  0.6397 -0.4837  0.7070
12642TIP3    H159417   3.714   3.427  15.840  1.0693 -1.9376  2.0839
12642TIP3    H259418   3.624   3.537  15.894 -0.1476 -2.0621  0.3643
12643TIP3   OH259419   0.043   4.558  15.668 -0.0883  0.0203  0.7073
12643TIP3    H159420   0.034   4.641  15.621  0.0430 -0.6350 -0.5292
12643TIP3    H259421   0.105   4.577  15.738  1.7675  0.4341 -0.9445
12644TIP3   OH259422   6.535   1.251  11.217 -0.6128  0.5011  0.1028
12644TIP3    H159423   6.594   1.247  11.142 -1.4166 -1.6357 -0.4957
12644TIP3    H259424   6.591   1.277  11.290  0.4609  1.2979 -0.9635
12645TIP3   OH259425   5.783   3.088  15.513 -0.0364  0.3168  0.2414
12645TIP3    H159426   5.869   3.083  15.553 -0.6217 -0.1585  1.4970
12645TIP3    H259427   5.759   2.997  15.495  0.3437  0.5294 -1.5431
12646TIP3   OH259428   2.679   5.415  17.144 -0.4453 -0.0784 -0.5123
12646TIP3    H159429   2.759   5.377  17.106 -1.4839  0.3787 -3.4607
12646TIP3    H259430   2.612   5.349  17.130 -0.7759 -0.1465  1.2344
12647TIP3   OH259431   3.289   2.856  12.701  0.2522  0.0719  0.1980
12647TIP3    H159432   3.375   2.863  12.659  0.0427 -0.9038 -0.4234
12647TIP3    H259433   3.238   2.927  12.662  0.0120 -0.8997 -1.3753
12648TIP3   OH259434   6.131   2.490  10.965  0.3724 -0.1786 -0.2473
12648TIP3    H159435   6.190   2.418  10.945  0.7565  0.0267  0.1308
12648TIP3    H259436   6.061   2.482  10.901  0.3601 -0.9453 -0.1458
12649TIP3   OH259437   3.448   0.990  14.871  0.2328 -0.1769  0.1307
12649TIP3    H159438   3.443   0.921  14.937  0.2999 -1.4651 -1.1544
12649TIP3    H259439   3.450   1.072  14.921  0.6691 -1.1184  1.7183
12650TIP3   OH259440   6.270   5.101  15.763 -0.4343  0.0856  0.1304
12650TIP3    H159441   6.185   5.060  15.783 -0.5716  0.5629  0.5541
12650TIP3    H259442   6.324   5.029  15.732 -0.7331 -0.3863  0.6680
12651TIP3   OH259443   3.407   3.217  14.182 -0.4182 -0.1158  0.2308
12651TIP3    H159444   3.401   3.166  14.263 -0.3380 -0.5331 -0.0207
12651TIP3    H259445   3.363   3.163  14.116  0.1597 -0.1152 -0.1614
12652TIP3   OH259446   4.793   1.304   5.684  0.2833  0.6814 -0.2531
12652TIP3    H159447   4.868   1.364   5.687  0.5398  0.3374  0.9429
12652TIP3    H259448   4.832   1.218   5.667  0.1178  0.5813 -0.1339
12653TIP3   OH259449   1.638   1.126  12.413 -0.2611  0.2080 -0.5044
12653TIP3    H159450   1.617   1.220  12.418  1.0311  0.4830 -0.0312
12653TIP3    H259451   1.553   1.083  12.425 -0.7363  1.2953  0.2439
12654TIP3   OH259452   0.709   5.039   4.990  0.1530 -0.0411  0.3307
12654TIP3    H159453   0.798   5.008   4.973  0.2814  0.6804 -0.3810
12654TIP3    H259454   0.699   5.035   5.085  0.8483 -0.3863  0.3891
12655TIP3   OH259455   0.360   3.221   2.948 -0.7045 -0.5602 -0.1600
12655TIP3    H159456   0.340   3.130   2.924 -2.0402  0.0018 -1.3600
12655TIP3    H259457   0.388   3.217   3.039 -0.4908 -2.2066 -0.2734
12656TIP3   OH259458   0.673   6.053   4.234  0.7409  0.1852  0.1208
12656TIP3    H159459   0.695   5.991   4.164  3.1191  0.3140  0.6614
12656TIP3    H259460   0.725   6.131   4.214  0.9881  0.4476  1.6665
12657TIP3   OH259461   1.899   3.699  11.841  0.2103  0.2236 -0.2888
12657TIP3    H159462   1.857   3.620  11.807 -0.7551  1.0256 -1.0250
12657TIP3    H259463   1.990   3.691  11.813  0.3798 -1.1108  0.5416
12658TIP3   OH259464   0.147   5.131   0.894 -0.3080  0.1252 -0.3355
12658TIP3    H159465   0.204   5.068   0.850  0.5656  0.8471 -0.2677
12658TIP3    H259466   0.116   5.085   0.972  0.9798  0.0440  0.1503
12659TIP3   OH259467   3.823   2.708  16.396  0.2029  0.4151 -0.3773
12659TIP3    H159468   3.877   2.713  16.317 -1.4476  1.2655 -1.4850
12659TIP3    H259469   3.752   2.649  16.373  0.0536  0.1426  0.7170
12660TIP3   OH259470   5.609   1.194  13.823 -0.5045 -0.4217 -0.4088
12660TIP3    H159471   5.701   1.213  13.838 -0.7187  0.4541 -0.1876
12660TIP3    H259472   5.592   1.114  13.874 -0.0052 -0.2896 -0.0337
12661TIP3   OH259473   6.624   6.029   6.604 -0.7389 -0.2190  0.0649
12661TIP3    H159474   6.601   6.002   6.515  1.2825  1.3835 -1.0467
12661TIP3    H259475   6.547   6.076   6.636 -1.0711  0.2796 -1.3638
12662TIP3   OH259476   1.966   6.665   4.197  0.5382  0.3745 -0.2669
12662TIP3    H159477   1.944   6.673   4.105 -0.0548 -2.5600 -0.4909
12662TIP3    H259478   2.058   6.637   4.198  0.8596  1.4207  0.0928
12663TIP3   OH259479   6.807   4.689   3.235 -0.0519  0.3389 -0.4328
12663TIP3    H159480   6.846   4.606   3.262  0.5058  0.3222 -1.2539
12663TIP3    H259481   6.804   4.741   3.315  0.9103  0.0386 -0.1853
12664TIP3   OH259482   6.266   5.199  12.266 -0.3661 -0.1877 -0.3457
12664TIP3    H159483   6.217   5.252  12.204 -0.4695  2.5125  1.8263
12664TIP3    H259484   6.208   5.126  12.287 -1.7193  0.6836 -0.9289
12665TIP3   OH259485   0.722   3.882  11.860  0.0132 -0.2169  0.6443
12665TIP3    H159486   0.737   3.961  11.911  1.9058 -0.5781  0.7249
12665TIP3    H259487   0.654   3.835  11.907  1.3916 -0.3288  2.6208
12666TIP3   OH259488   2.298   6.706   0.245  0.9658 -0.0445  0.2043
12666TIP3    H159489   2.343   6.708   0.161  0.4543 -0.5342 -0.0882
12666TIP3    H259490   2.209   6.735   0.225  0.8703 -0.0560  0.6021
12667TIP3   OH259491   2.180   4.097  12.791 -0.1575  0.4171 -0.2182
12667TIP3    H159492   2.236   4.020  12.782 -0.8765  0.1273 -3.2219
12667TIP3    H259493   2.231   4.169  12.754  0.1155  1.2476  1.6552
12668TIP3   OH259494   5.375   4.481   0.311  0.3625 -0.0340 -0.4632
12668TIP3    H159495   5.313   4.428   0.261 -0.0055 -0.2126  0.1799
12668TIP3    H259496   5.395   4.429   0.389  0.4896  0.4963 -0.1382
12669TIP3   OH259497   0.645   1.482   2.353 -0.5420 -0.0134 -0.3891
12669TIP3    H159498   0.586   1.510   2.423 -0.1876  0.1961 -0.1703
12669TIP3    H259499   0.595   1.495   2.273 -1.2364 -0.9939 -0.1302
12670TIP3   OH259500   4.483   1.846  11.134  0.1422 -0.3417  0.5064
12670TIP3    H159501   4.431   1.925  11.119  1.8254  0.3488 -2.4267
12670TIP3    H259502   4.532   1.833  11.053  1.4828 -3.2748  1.6232
12671TIP3   OH259503   4.682   0.762   0.084  0.2242 -0.1476 -0.1866
12671TIP3    H159504   4.712   0.673   0.065  1.4719  0.2487 -0.1207
12671TIP3    H259505   4.617   0.750   0.153  0.5074 -0.9923 -0.0484
12672TIP3   OH259506   4.213   2.534   5.827  0.2746  0.1118  1.0266
12672TIP3    H159507   4.140   2.534   5.889 -0.1172 -1.0740  0.6050
12672TIP3    H259508   4.176   2.497   5.747 -0.0295  4.2340 -0.9829
12673TIP3   OH259509   0.035   3.865  12.324 -0.2200 -0.3167 -0.1301
12673TIP3    H159510   0.017   3.887  12.232  0.2224 -1.4831 -0.5188
12673TIP3    H259511   0.120   3.906  12.341 -0.4232  0.1225 -0.1568
12674TIP3   OH259512   0.124   1.327  15.474 -0.2953  0.4166 -0.4678
12674TIP3    H159513   0.146   1.279  15.395 -0.4204 -0.2103 -0.1312
12674TIP3    H259514   0.202   1.379  15.494  0.5893 -1.1239  0.2297
12675TIP3   OH259515   3.807   3.814   3.491 -0.5768 -1.0737  0.4897
12675TIP3    H159516   3.760   3.781   3.567  0.2429 -1.4785  0.8297
12675TIP3    H259517   3.793   3.908   3.493 -1.3421 -1.1822  0.5983
12676TIP3   OH259518   4.626   6.575   0.081  0.2558  0.1931 -0.0813
12676TIP3    H159519   4.643   6.499   0.136 -2.5474 -0.0504  0.5994
12676TIP3    H259520   4.694   6.637   0.105  1.1136 -1.1713  1.2007
12677TIP3   OH259521   4.958   5.029   0.546  0.1819 -0.7732  0.1255
12677TIP3    H159522   4.920   4.943   0.529  0.4266 -0.7115 -0.8246
12677TIP3    H259523   4.916   5.059   0.627 -0.0794 -1.6791  0.3303
12678TIP3   OH259524   1.603   4.494  13.250 -0.6085 -0.2658  0.1635
12678TIP3    H159525   1.626   4.414  13.203  3.2813  1.0806 -0.5934
12678TIP3    H259526   1.612   4.471  13.343  0.1888 -0.8163 -0.0382
12679TIP3   OH259527   3.491   0.377   3.916  0.2395  0.1619  0.3177
12679TIP3    H159528   3.511   0.408   4.004  1.9630  1.5007 -0.4902
12679TIP3    H259529   3.420   0.433   3.885  0.3371  0.3661  0.4679
12680TIP3   OH259530   2.269   4.142   1.733 -0.0080 -0.5296  0.2361
12680TIP3    H159531   2.345   4.151   1.791 -1.6134 -0.1547  2.3804
12680TIP3    H259532   2.228   4.061   1.760 -2.0769  0.7963  1.2551
12681TIP3   OH259533   0.471   3.369   4.339  0.4896 -0.6452  0.3869
12681TIP3    H159534   0.380   3.392   4.357  0.3856  0.1174 -0.9311
12681TIP3    H259535   0.490   3.413   4.256  2.5074  0.4156  1.3451
12682TIP3   OH259536   1.829   4.615  15.723 -0.2550  0.4137  0.1157
12682TIP3    H159537   1.757   4.678  15.720 -0.3519  0.3213  0.5547
12682TIP3    H259538   1.855   4.605  15.631  0.5940  2.0529  0.1349
12683TIP3   OH259539   0.158   0.018   2.955  0.1300 -0.5153  0.4080
12683TIP3    H159540   0.149  -0.025   3.040 -1.3775 -0.5298  0.2691
12683TIP3    H259541   0.071   0.012   2.916 -0.0901  2.3853  0.2301
12684TIP3   OH259542   3.900   4.973  15.519  0.0981 -0.4349  0.3652
12684TIP3    H159543   3.902   5.017  15.604  2.2081 -0.2183  0.2528
12684TIP3    H259544   3.856   4.890  15.536 -2.7661  1.0563  0.8658
12685TIP3   OH259545   3.509   3.390  14.598  0.2729  0.3788 -0.3343
12685TIP3    H159546   3.558   3.454  14.649  0.3556  0.6531 -0.7533
12685TIP3    H259547   3.574   3.349  14.540  0.9373 -2.4558  2.1508
12686TIP3   OH259548   5.153   1.303  12.901  0.7251 -0.4719  0.7547
12686TIP3    H159549   5.213   1.327  12.971  1.3955  0.6134 -0.1628
12686TIP3    H259550   5.180   1.356  12.826  0.9076 -2.5725 -0.7703
12687TIP3   OH259551   1.151   5.221   4.855 -0.1642 -0.0747  0.9404
12687TIP3    H159552   1.069   5.262   4.881  1.0996  0.9992  3.6845
12687TIP3    H259553   1.171   5.258   4.769 -1.9771  0.4856  0.7329
12688TIP3   OH259554   4.248   2.378   4.818 -0.1701  0.0489 -0.0728
12688TIP3    H159555   4.205   2.460   4.794  1.1892  0.8810  0.2145
12688TIP3    H259556   4.305   2.358   4.744  0.6227  0.1840  0.4898
12689TIP3   OH259557   5.697   1.966  16.687 -0.0273 -0.1445  0.0695
12689TIP3    H159558   5.685   1.895  16.750 -0.1888 -0.3989 -0.2487
12689TIP3    H259559   5.691   2.046  16.740 -1.1740 -0.3159  0.2279
12690TIP3   OH259560   2.874   3.855   0.248  0.1818  0.0763  0.2953
12690TIP3    H159561   2.817   3.920   0.288  1.5477  1.0509  0.7179
12690TIP3    H259562   2.894   3.890   0.161 -0.1419 -0.4267  0.0160
12691TIP3   OH259563   4.535   5.925   1.168 -0.4485  0.7580 -0.5442
12691TIP3    H159564   4.446   5.943   1.138 -1.2182 -1.1768  0.3918
12691TIP3    H259565   4.552   5.835   1.141  0.8722  0.7817  0.1199
12692TIP3   OH259566   0.275   5.523   4.455  0.4627 -0.3330  0.0998
12692TIP3    H159567   0.351   5.560   4.500  1.8174 -1.0513 -1.5209
12692TIP3    H259568   0.311   5.459   4.394 -1.4502 -0.6728 -0.7584
12693TIP3   OH259569   4.258   5.728   1.948  0.4942 -0.0126  0.1444
12693TIP3    H159570   4.310   5.750   2.026  0.6853  0.5250 -0.1298
12693TIP3    H259571   4.188   5.794   1.946  0.0829 -0.4424  0.2409
12694TIP3   OH259572   4.374   4.004   3.821 -0.0713 -0.0924  0.6204
12694TIP3    H159573   4.279   4.018   3.813  0.0235  0.6589  0.7500
12694TIP3    H259574   4.397   4.046   3.904  0.5086  0.4521  0.1954
12695TIP3   OH259575   3.046   4.273  12.830  0.1170 -0.7447  0.1821
12695TIP3    H159576   3.028   4.330  12.904  0.0363 -0.6822  0.1151
12695TIP3    H259577   2.987   4.303  12.761  1.0189 -0.0371 -0.2985
12696TIP3   OH259578   5.854   0.347   5.223  0.6332 -0.4297  0.0657
12696TIP3    H159579   5.906   0.403   5.166  1.1512 -0.1695  0.7758
12696TIP3    H259580   5.825   0.406   5.294 -1.5794 -0.2825 -0.8821
12697TIP3   OH259581   2.207   2.741  16.995 -0.0961 -0.3330 -0.3902
12697TIP3    H159582   2.243   2.742  17.084  2.1421  2.6374 -1.1782
12697TIP3    H259583   2.212   2.649  16.968  2.4507 -0.7902  1.3552
12698TIP3   OH259584   4.729   3.189   0.654  1.1042  0.2965 -0.0915
12698TIP3    H159585   4.699   3.279   0.648 -1.0458 -0.3947 -0.6681
12698TIP3    H259586   4.763   3.169   0.567  0.4007  0.1764 -0.3422
12699TIP3   OH259587   2.511   1.513   2.067 -0.4203  0.1768 -0.0765
12699TIP3    H159588   2.582   1.520   2.130 -0.2591  1.7180 -0.3877
12699TIP3    H259589   2.550   1.470   1.991 -0.2544 -0.4117  0.3307
12700TIP3   OH259590   0.788   3.752   0.606 -0.6477  0.2626  0.9973
12700TIP3    H159591   0.770   3.674   0.659 -1.2255 -0.5434 -0.3478
12700TIP3    H259592   0.871   3.734   0.563 -0.6888  0.4825  0.8230
12701TIP3   OH259593   2.629   5.218   4.070 -0.4066 -0.5162  0.0517
12701TIP3    H159594   2.704   5.277   4.070  0.3160 -1.3744 -1.2511
12701TIP3    H259595   2.598   5.219   4.161 -0.4971  1.8972  0.0526
12702TIP3   OH259596   2.755   0.987  14.604  0.1511 -0.1804 -0.3974
12702TIP3    H159597   2.665   0.965  14.630 -1.3203  1.7793 -3.2495
12702TIP3    H259598   2.803   0.994  14.687 -3.0316  1.4722  1.5114
12703TIP3   OH259599   3.988   5.932  12.641  0.3078  0.0153 -0.1340
12703TIP3    H159600   3.947   5.972  12.564  2.6531 -0.0165 -1.4910
12703TIP3    H259601   3.966   5.839  12.635 -0.6580  0.2202  0.0330
12704TIP3   OH259602   6.216   4.109   5.207 -0.0197  0.4064  0.4066
12704TIP3    H159603   6.213   4.191   5.157  2.6640 -0.1953 -0.9290
12704TIP3    H259604   6.306   4.104   5.238 -0.1073 -2.0882  0.4091
12705TIP3   OH259605   1.208   5.098   5.214  0.1927  0.2163  0.3325
12705TIP3    H159606   1.193   5.028   5.151 -0.8339  0.0511  0.7369
12705TIP3    H259607   1.295   5.132   5.192 -0.5809  0.9194 -1.9177
12706TIP3   OH259608   4.805   3.024  10.999  0.1985  0.4076 -0.5705
12706TIP3    H159609   4.711   3.007  10.998  0.3619 -0.7961  0.7469
12706TIP3    H259610   4.845   2.939  10.983  1.0717  0.6679  0.1510
12707TIP3   OH259611   5.965   5.687   5.582  0.2568  0.5097 -0.5376
12707TIP3    H159612   5.913   5.702   5.503 -1.5180 -2.6861 -0.1465
12707TIP3    H259613   5.900   5.674   5.652  1.7040  4.9801  2.0862
12708TIP3   OH259614   2.334   5.261   0.965 -0.4032  0.7311 -0.2750
12708TIP3    H159615   2.275   5.302   1.029 -0.4556 -0.2154  0.3012
12708TIP3    H259616   2.277   5.211   0.908 -0.3234  1.3316 -0.8917
12709TIP3   OH259617   1.938   1.960   1.063 -0.4345 -0.1368  0.4806
12709TIP3    H159618   1.887   1.887   1.098 -1.1728  0.4824  0.7348
12709TIP3    H259619   2.024   1.923   1.045 -0.6270 -0.9313  1.1312
12710TIP3   OH259620   6.720   6.415  15.786 -0.3451  0.2377  1.2243
12710TIP3    H159621   6.760   6.333  15.815 -0.7758 -0.2947  0.3601
12710TIP3    H259622   6.741   6.478  15.855  1.6373 -0.1096  0.9761
12711TIP3   OH259623   1.170   1.611  11.626 -0.5302  0.2800 -0.8304
12711TIP3    H159624   1.227   1.611  11.703 -0.8112  1.9064 -0.5949
12711TIP3    H259625   1.161   1.518  11.603 -0.6553 -0.2720  1.2446
12712TIP3   OH259626   1.126   2.448   3.868  0.5559 -0.1263 -0.2886
12712TIP3    H159627   1.100   2.461   3.777  2.1702  1.3566 -0.5852
12712TIP3    H259628   1.065   2.502   3.918  0.4818  0.0927 -0.6117
12713TIP3   OH259629   6.602   2.438  12.179 -0.0533 -0.6314  0.0955
12713TIP3    H159630   6.662   2.460  12.108  0.2576 -0.6451  0.3522
12713TIP3    H259631   6.564   2.522  12.204 -2.6309 -0.9424 -2.2346
12714TIP3   OH259632   4.736   5.020  10.855  0.7643  0.3076 -0.1900
12714TIP3    H159633   4.827   5.014  10.884  0.9822  1.7908 -0.4691
12714TIP3    H259634   4.717   5.114  10.854 -1.6113 -0.0020  2.3691
12715TIP3   OH259635   4.723   4.629  12.772  0.1605 -0.0653  0.0922
12715TIP3    H159636   4.656   4.675  12.722 -0.2424 -0.7202  0.0123
12715TIP3    H259637   4.680   4.609  12.856  0.7615  0.8452  0.6338
12716TIP3   OH259638   4.001   6.305  14.869  0.9929 -0.0203  0.3407
12716TIP3    H159639   3.934   6.240  14.887  1.4724  0.1013  3.0249
12716TIP3    H259640   3.955   6.389  14.875  1.1172  0.0139  0.8644
12717TIP3   OH259641   5.097   4.364   2.139 -0.0041 -0.3408  0.2355
12717TIP3    H159642   5.107   4.336   2.230  1.0146 -0.8067 -0.0011
12717TIP3    H259643   5.115   4.458   2.140  2.2411 -0.7194  0.2175
12718TIP3   OH259644   2.307   6.053  16.862  0.1212  0.4881  0.5645
12718TIP3    H159645   2.279   5.962  16.865 -1.4528  0.8411 -1.5276
12718TIP3    H259646   2.229   6.103  16.884  0.1652  1.3672 -1.0872
12719TIP3   OH259647   3.975   0.399  15.349  0.6539  1.0419  0.1659
12719TIP3    H159648   4.011   0.457  15.282 -0.1050  3.6307  1.8311
12719TIP3    H259649   4.018   0.427  15.430  1.0860 -1.5493  0.9124
12720TIP3   OH259650   5.843   4.599   4.297  0.3130 -0.3075 -0.2817
12720TIP3    H159651   5.839   4.659   4.371  1.5522  0.0745 -0.4895
12720TIP3    H259652   5.927   4.553   4.308 -0.4657 -1.7917 -0.3021
12721TIP3   OH259653   5.733   4.503   2.966  0.5124 -0.3987  0.1216
12721TIP3    H159654   5.656   4.462   3.005 -0.4577  1.6407  0.4828
12721TIP3    H259655   5.712   4.508   2.873 -0.1576  0.7884  0.3095
12722TIP3   OH259656   6.503   3.083   2.242 -0.0607  0.3366  0.2959
12722TIP3    H159657   6.523   3.171   2.272  0.4944  0.2557  0.1815
12722TIP3    H259658   6.579   3.058   2.189 -0.4024 -0.0487 -0.0189
12723TIP3   OH259659   0.551   6.540  15.172 -0.3161 -0.1634  0.1779
12723TIP3    H159660   0.645   6.535  15.190 -0.1729 -0.4912 -0.6496
12723TIP3    H259661   0.545   6.546  15.077 -1.1358 -0.0690  0.2301
12724TIP3   OH259662   6.797   4.735  12.038  0.4784 -0.7511  0.3574
12724TIP3    H159663   6.765   4.645  12.041  1.0931 -0.9548  1.4458
12724TIP3    H259664   6.751   4.775  11.964 -2.5059 -0.9308  1.9628
12725TIP3   OH259665   4.742   4.974  16.151  0.0723  0.1272  0.4408
12725TIP3    H159666   4.698   4.961  16.066 -0.6994  0.2673  0.8075
12725TIP3    H259667   4.734   4.889  16.194 -1.0580  0.5183  1.0527
12726TIP3   OH259668   1.399   3.659   0.411  0.3436  0.3523  0.3047
12726TIP3    H159669   1.391   3.653   0.316 -1.2025  0.2909  0.4109
12726TIP3    H259670   1.426   3.572   0.439 -0.7118 -0.0777  0.0342
12727TIP3   OH259671   5.725   6.792   3.861  0.5055  0.2463  0.4268
12727TIP3    H159672   5.792   6.740   3.817 -0.2399 -0.7775  0.4771
12727TIP3    H259673   5.733   6.879   3.821  0.5395 -0.3787 -1.0094
12728TIP3   OH259674   2.874   5.053  14.451  0.3100 -0.4291 -0.2728
12728TIP3    H159675   2.869   5.070  14.545  1.6072 -0.4131 -0.1798
12728TIP3    H259676   2.913   4.966  14.445 -0.7804 -0.8915 -0.7966
12729TIP3   OH259677   4.293   1.643   5.274  0.1607 -0.4605  0.8121
12729TIP3    H159678   4.243   1.561   5.283 -2.4547  0.6266 -1.9105
12729TIP3    H259679   4.248   1.704   5.332 -2.2838  0.6378 -1.9592
12730TIP3   OH259680   5.023   5.074   2.564 -0.3546  0.3147 -0.1776
12730TIP3    H159681   4.987   5.022   2.493 -0.1437  0.1582 -0.1705
12730TIP3    H259682   4.974   5.046   2.642  1.1572 -1.3956  0.2178
12731TIP3   OH259683   0.120   4.258  12.821  0.0015 -0.0613  0.1108
12731TIP3    H159684   0.179   4.315  12.772  0.3282 -0.3365  0.1808
12731TIP3    H259685   0.178   4.197  12.867 -0.2232  0.8343  1.6673
12732TIP3   OH259686   5.418   4.381   2.275  0.3500  0.1394 -0.0928
12732TIP3    H159687   5.440   4.306   2.221 -0.7818 -1.6303  1.7314
12732TIP3    H259688   5.385   4.446   2.214 -0.6590 -1.6744 -1.5924
12733TIP3   OH259689   4.399   3.037  16.067  0.1839 -0.0448  0.8345
12733TIP3    H159690   4.339   3.040  15.992  1.1004 -0.6965  0.0468
12733TIP3    H259691   4.416   2.944  16.079 -0.0002  0.0555  1.9055
12734TIP3   OH259692   5.889   5.262  15.387  0.1543 -0.4801  0.2648
12734TIP3    H159693   5.850   5.245  15.473  0.3680 -1.8982  0.1145
12734TIP3    H259694   5.939   5.182  15.367  2.4753  0.9276  0.0868
12735TIP3   OH259695   0.995   3.595  16.320 -0.1982  0.1384  0.1717
12735TIP3    H159696   1.059   3.597  16.249 -0.1574 -1.4395  0.1402
12735TIP3    H259697   1.018   3.671  16.374  1.3823 -0.0964 -0.1102
12736TIP3   OH259698   1.556   6.360   1.570 -0.0038 -0.1115  0.4212
12736TIP3    H159699   1.478   6.322   1.610  0.1136 -0.3065  0.4629
12736TIP3    H259700   1.550   6.335   1.478  1.1807 -2.1089  0.8216
12737TIP3   OH259701   5.164   5.549  16.822 -0.2556 -0.1104 -0.1196
12737TIP3    H159702   5.190   5.598  16.744  0.8945  0.4410  0.5747
12737TIP3    H259703   5.156   5.615  16.890  0.4537 -0.7690  0.6276
12738TIP3   OH259704   3.526   3.370  11.856 -0.0666  0.1659 -0.2554
12738TIP3    H159705   3.487   3.291  11.818  2.3218 -0.7267 -1.0526
12738TIP3    H259706   3.555   3.420  11.780 -0.3829  1.1939  0.2918
12739TIP3   OH259707   6.265   0.100   3.970  0.5065  0.0554 -0.0318
12739TIP3    H159708   6.294   0.009   3.969 -0.5398 -0.2996  0.1270
12739TIP3    H259709   6.303   0.139   3.891 -1.5692 -1.3700 -1.8630
12740TIP3   OH259710   4.899   3.069  11.786  0.2327 -0.2874 -0.4539
12740TIP3    H159711   4.912   3.162  11.805 -0.4281 -0.3079  0.1125
12740TIP3    H259712   4.836   3.040  11.851  2.6972 -1.8796  1.4102
12741TIP3   OH259713   1.269   1.522   2.414 -0.2164 -0.1630 -0.1794
12741TIP3    H159714   1.185   1.486   2.385 -0.3257  0.1486 -0.2486
12741TIP3    H259715   1.246   1.590   2.476 -0.0910  1.1025 -1.4733
12742TIP3   OH259716   3.609   3.609   1.121 -0.4456  0.2158  0.8157
12742TIP3    H159717   3.687   3.581   1.169  0.0258  0.5656  0.2549
12742TIP3    H259718   3.642   3.650   1.041 -1.2354 -1.8917 -0.6899
12743TIP3   OH259719   5.034   6.709   0.311 -0.4859  0.1301 -0.1211
12743TIP3    H159720   5.004   6.621   0.335 -0.2654  0.6439  2.1934
12743TIP3    H259721   4.954   6.754   0.282 -1.1306  0.0351  1.4411
12744TIP3   OH259722   3.190   2.448   1.627 -0.0442  0.0995  0.0774
12744TIP3    H159723   3.272   2.399   1.630  0.3354  0.6314 -1.0219
12744TIP3    H259724   3.217   2.540   1.623 -0.6864  0.2718 -0.4582
12745TIP3   OH259725   2.411   2.205  15.078 -0.3082  0.4283 -0.5484
12745TIP3    H159726   2.458   2.277  15.034  2.0843 -0.3050  0.6646
12745TIP3    H259727   2.386   2.241  15.163  1.5587 -0.3210  0.3691
12746TIP3   OH259728   0.177   2.376  14.558 -0.0818  0.3397  0.1055
12746TIP3    H159729   0.083   2.394  14.561 -0.0100  0.5154  1.8886
12746TIP3    H259730   0.183   2.281  14.559 -0.2594  0.2112 -2.5891
12747TIP3   OH259731   6.699   1.269   1.471  0.2939 -0.1326  0.4124
12747TIP3    H159732   6.653   1.242   1.392  2.7548  0.9291 -1.5248
12747TIP3    H259733   6.727   1.186   1.512 -2.2011 -0.7414  1.0336
12748TIP3   OH259734   4.407   4.895  15.529  0.2579 -0.0708  0.9439
12748TIP3    H159735   4.384   4.803  15.523 -1.2249 -0.2579  5.6521
12748TIP3    H259736   4.327   4.942  15.507  0.6826  0.1216 -0.2872
12749TIP3   OH259737   4.101   1.659  13.648 -0.3569 -0.3871  0.3381
12749TIP3    H159738   4.105   1.612  13.564 -0.2916 -0.9285  0.6401
12749TIP3    H259739   4.114   1.591  13.714 -2.3006 -0.2917  0.8744
12750TIP3   OH259740   1.191   5.417   2.104  0.1059  0.6214  0.4185
12750TIP3    H159741   1.234   5.468   2.036  0.8606 -0.0013  0.4167
12750TIP3    H259742   1.179   5.330   2.065 -0.4057  0.5551  0.7111
12751TIP3   OH259743   1.996   1.676  17.249  0.3357 -0.1633 -0.1781
12751TIP3    H159744   1.953   1.596  17.277 -2.2479  0.6532 -1.4976
12751TIP3    H259745   2.039   1.653  17.167  0.8436 -0.5261  0.1857
12752TIP3   OH259746   2.197   2.136   0.239  0.3893 -0.2214  0.1982
12752TIP3    H159747   2.130   2.176   0.295 -0.2986  0.0947 -0.8046
12752TIP3    H259748   2.211   2.049   0.276 -2.6307 -1.4173 -1.0856
12753TIP3   OH259749   1.730   4.156   2.123  0.4541 -0.0691 -0.4231
12753TIP3    H159750   1.784   4.179   2.047 -0.3846  1.1615 -0.6668
12753TIP3    H259751   1.745   4.227   2.185  2.2130 -1.7338  1.2016
12754TIP3   OH259752   5.129   4.596  17.201 -0.4925  0.8232 -0.3690
12754TIP3    H159753   5.170   4.683  17.201 -0.5182  0.8351 -0.4122
12754TIP3    H259754   5.036   4.613  17.194 -0.5187  0.8017 -0.0718
12755TIP3   OH259755   3.135   4.171   0.456 -0.1472 -0.0301 -0.3311
12755TIP3    H159756   3.137   4.175   0.552 -3.4859 -0.6981 -0.0940
12755TIP3    H259757   3.167   4.083   0.436  2.9198  0.9289 -0.1143
12756TIP3   OH259758   0.406   3.083  16.786  0.1276 -0.0051  0.3343
12756TIP3    H159759   0.403   3.145  16.713 -1.0408 -0.7827 -0.3095
12756TIP3    H259760   0.469   3.121  16.847  3.0943 -0.5228 -2.1314
12757TIP3   OH259761   3.070   1.008  15.808  0.4878  0.4124 -0.5879
12757TIP3    H159762   3.141   1.070  15.793 -0.2117  1.3852  0.0021
12757TIP3    H259763   2.992   1.063  15.815 -0.0473 -0.4755  0.6770
12758TIP3   OH259764   4.770   2.270   1.337 -0.2850  0.2200  0.6171
12758TIP3    H159765   4.759   2.341   1.400  0.4694  0.7003  0.2207
12758TIP3    H259766   4.819   2.203   1.384  1.8869  1.3181  0.0465
12759TIP3   OH259767   4.892   3.763   2.927  0.0748 -0.4414 -0.0156
12759TIP3    H159768   4.846   3.752   3.010  1.1423  2.1930  1.0445
12759TIP3    H259769   4.964   3.701   2.930 -1.0451 -1.7913  0.0695
12760TIP3   OH259770   6.689   3.358  15.849 -0.3363  0.0298  0.1755
12760TIP3    H159771   6.686   3.320  15.760 -1.1373 -0.2177  0.2925
12760TIP3    H259772   6.657   3.287  15.905  2.0039 -0.5007  0.9420
12761TIP3   OH259773   6.555   6.239   2.371 -0.1688  0.6292 -0.5788
12761TIP3    H159774   6.486   6.297   2.403  1.8037  2.3863  0.7902
12761TIP3    H259775   6.523   6.151   2.391 -1.6762  1.4056  0.7038
12762TIP3   OH259776   6.081   3.571   2.435  0.0830  0.1823 -0.1036
12762TIP3    H159777   6.044   3.600   2.519  1.6031  0.6427  0.4403
12762TIP3    H259778   6.130   3.491   2.457 -0.4748 -0.3577 -0.7848
12763TIP3   OH259779   3.564   4.318   5.452 -0.2072 -0.2013 -0.4435
12763TIP3    H159780   3.471   4.296   5.450 -0.2507 -0.0154 -0.5281
12763TIP3    H259781   3.592   4.299   5.542 -0.8605  1.8696  0.2680
12764TIP3   OH259782   3.817   0.832  11.193  0.0692 -0.3168 -0.3461
12764TIP3    H159783   3.724   0.855  11.199  0.4391  1.5871 -1.1520
12764TIP3    H259784   3.829   0.763  11.258 -2.0542 -1.1585 -0.7632
12765TIP3   OH259785   5.118   4.132   2.019 -0.4528  0.7801  0.2585
12765TIP3    H159786   5.100   4.195   2.089  1.0351  0.9754  0.4920
12765TIP3    H259787   5.039   4.078   2.015 -0.3797  0.3949  2.4786
12766TIP3   OH259788   1.030   1.237   0.438 -0.0797 -0.2070 -0.2263
12766TIP3    H159789   0.961   1.251   0.374 -0.3950  2.5682  0.5597
12766TIP3    H259790   0.997   1.278   0.518  1.3794 -1.1965  0.9462
12767TIP3   OH259791   0.100   3.161  15.746 -0.0338  0.1429  0.0699
12767TIP3    H159792   0.168   3.197  15.689  0.7279  1.1134  1.5475
12767TIP3    H259793   0.038   3.119  15.685  2.8036 -2.5554 -1.2412
12768TIP3   OH259794   4.785   0.338  12.649 -0.1377 -0.3024 -0.8682
12768TIP3    H159795   4.717   0.348  12.716  1.4085  0.7406  0.6196
12768TIP3    H259796   4.759   0.399  12.580 -1.2122 -0.6455 -0.7984
12769TIP3   OH259797   4.420   6.104   3.476  0.0484 -0.0629 -0.3434
12769TIP3    H159798   4.403   6.032   3.537 -0.6838  0.0866 -0.3604
12769TIP3    H259799   4.371   6.081   3.397  0.7017 -0.0770 -0.7520
12770TIP3   OH259800   0.219   1.915  10.327 -0.9523 -0.1836 -0.0067
12770TIP3    H159801   0.134   1.892  10.290 -1.2956 -1.1460  1.3077
12770TIP3    H259802   0.199   1.966  10.405 -0.5133 -2.6807  1.8971
12771TIP3   OH259803   2.839   6.810  13.797  0.4957  0.5862  0.0639
12771TIP3    H159804   2.761   6.761  13.773 -0.8046  2.1497  0.8384
12771TIP3    H259805   2.894   6.809  13.719 -0.5010 -0.1728 -0.6524
12772TIP3   OH259806   0.389   5.658   2.500  0.0139  0.2158  0.6299
12772TIP3    H159807   0.304   5.625   2.473 -0.7115  0.3332  2.5775
12772TIP3    H259808   0.452   5.606   2.451 -1.1701 -0.5917 -0.0797
12773TIP3   OH259809   4.241   2.958   6.578 -0.6208 -0.1725  0.3900
12773TIP3    H159810   4.296   2.902   6.632  1.1839  0.8367 -0.3054
12773TIP3    H259811   4.156   2.914   6.575  0.2746 -2.0271  1.1301
12774TIP3   OH259812   3.867   3.131   2.863  0.1776 -0.3208 -0.1445
12774TIP3    H159813   3.911   3.216   2.861  1.0838 -0.7440  0.4909
12774TIP3    H259814   3.774   3.151   2.852  0.2894  0.8242  0.7342
12775TIP3   OH259815   5.773   6.230  16.183  0.1277 -0.1979 -0.0782
12775TIP3    H159816   5.852   6.243  16.132 -0.0950 -0.9161 -0.6146
12775TIP3    H259817   5.721   6.168  16.133 -0.2236 -0.7068  0.8782
12776TIP3   OH259818   1.925   6.180  12.530 -0.1378  0.0440 -0.0036
12776TIP3    H159819   1.889   6.094  12.554 -0.7227  0.6599  1.4312
12776TIP3    H259820   1.864   6.214  12.465  0.6740 -1.0467 -1.3897
12777TIP3   OH259821   3.449   4.484   0.739  0.4758 -0.2070 -0.4512
12777TIP3    H159822   3.504   4.498   0.816  0.6638  0.1027 -0.6411
12777TIP3    H259823   3.391   4.560   0.736  0.3122 -0.3322 -0.4868
12778TIP3   OH259824   5.250   5.993  11.592  0.4562 -0.5034 -0.2194
12778TIP3    H159825   5.220   6.063  11.650  0.1889 -0.2309 -0.6822
12778TIP3    H259826   5.198   6.004  11.512  2.1785  0.3493 -1.2886
12779TIP3   OH259827   4.627   2.573   4.543 -0.2393 -1.1122 -0.3159
12779TIP3    H159828   4.695   2.575   4.611  0.3626  0.5851 -0.9255
12779TIP3    H259829   4.668   2.615   4.467 -2.0120  0.0864 -0.6516
12780TIP3   OH259830   6.676   5.148   1.871 -0.0748 -0.0267 -0.1878
12780TIP3    H159831   6.725   5.216   1.917 -0.4475  0.2776 -0.2303
12780TIP3    H259832   6.641   5.092   1.941  2.0911 -1.5416 -0.1966
12781TIP3   OH259833   6.637   5.742   2.683 -0.2887  0.2139 -0.0369
12781TIP3    H159834   6.646   5.837   2.689  1.6399  0.0322  0.5317
12781TIP3    H259835   6.644   5.711   2.773 -1.4437 -0.4648 -0.1530
12782TIP3   OH259836   4.975   2.266   4.075 -0.1113  0.5706  0.9579
12782TIP3    H159837   5.025   2.186   4.057 -0.9909 -0.1895  1.7523
12782TIP3    H259838   5.041   2.329   4.104  0.9168  0.8760 -1.7760
12783TIP3   OH259839   2.798   5.260  10.690 -0.0017 -0.1514  0.2513
12783TIP3    H159840   2.801   5.200  10.615  0.7532 -0.5168  0.5601
12783TIP3    H259841   2.844   5.339  10.660 -0.0024 -0.1675  0.2080
12784TIP3   OH259842   5.050   1.769   3.328  0.2644  0.0188  0.6591
12784TIP3    H159843   5.086   1.849   3.366  1.4973  0.6655 -1.6580
12784TIP3    H259844   5.004   1.798   3.249 -0.7668 -1.3928  0.6930
12785TIP3   OH259845   2.343   6.809   1.305  0.0889 -0.0376  0.4941
12785TIP3    H159846   2.428   6.776   1.274  0.3504  0.3249  0.8156
12785TIP3    H259847   2.353   6.814   1.400 -0.8926 -1.6789  0.7225
12786TIP3   OH259848   0.268   3.695   4.201  0.3088  0.1511  0.1291
12786TIP3    H159849   0.202   3.677   4.268 -0.5830 -2.0003 -1.2226
12786TIP3    H259850   0.345   3.723   4.250 -1.5270  2.7625  1.7654
12787TIP3   OH259851   3.642   3.048  16.271 -0.0982  0.1396  0.2290
12787TIP3    H159852   3.637   3.143  16.260 -2.1327  0.1441  0.8509
12787TIP3    H259853   3.657   3.015  16.182  1.1549  1.0350  0.0745
12788TIP3   OH259854   1.682   4.315  13.885 -0.0358 -0.3299  0.0273
12788TIP3    H159855   1.644   4.271  13.809 -0.9888 -1.6317  1.2189
12788TIP3    H259856   1.646   4.269  13.960 -0.9744  2.3723  1.3630
12789TIP3   OH259857   1.991   6.514   4.605  0.3070 -0.5944  0.5058
12789TIP3    H159858   1.902   6.533   4.577  0.6148 -1.6045 -1.3119
12789TIP3    H259859   2.026   6.599   4.633 -0.4176  0.3130 -1.1818
12790TIP3   OH259860   5.247   0.014   3.215 -0.6393  0.6909  0.0008
12790TIP3    H159861   5.184  -0.002   3.145  0.0692 -1.0091 -0.3062
12790TIP3    H259862   5.254  -0.070   3.260  0.4136  1.2159  0.8628
12791TIP3   OH259863   3.356   1.564   0.646  0.4588 -0.3870 -0.0677
12791TIP3    H159864   3.367   1.574   0.741 -0.7189  3.2457 -0.1378
12791TIP3    H259865   3.428   1.616   0.609 -0.5070  0.2692 -1.0814
12792TIP3   OH259866   6.138   3.773   5.615 -0.1104 -0.6595 -0.0613
12792TIP3    H159867   6.225   3.780   5.655 -0.8198 -1.3381  1.6587
12792TIP3    H259868   6.143   3.831   5.539  1.1504  1.0740  1.2545
12793TIP3   OH259869   6.314   4.723  13.217  0.3790  0.4237  0.2345
12793TIP3    H159870   6.364   4.752  13.141 -0.6439  1.6707  0.0103
12793TIP3    H259871   6.368   4.654  13.256  1.7575  1.0075 -0.5803
12794TIP3   OH259872   6.339   4.002   2.301  0.5432 -0.5545  0.2962
12794TIP3    H159873   6.298   4.005   2.214  0.2692  0.1748  0.4400
12794TIP3    H259874   6.401   3.930   2.296  0.3074 -0.7190 -0.4095
12795TIP3   OH259875   5.468   5.783   4.687 -0.0794  0.1164 -0.1793
12795TIP3    H159876   5.474   5.752   4.778 -1.8168  0.8476  0.2417
12795TIP3    H259877   5.374   5.796   4.673  0.3029  1.8145 -1.4612
12796TIP3   OH259878   3.739   4.077   1.295  0.1395 -0.4444 -0.4837
12796TIP3    H159879   3.688   4.002   1.264 -1.3780 -1.5404  3.9134
12796TIP3    H259880   3.818   4.038   1.333  0.1597  0.3254  0.2976
12797TIP3   OH259881   3.825   0.983  12.198  0.1849 -0.0509 -0.3965
12797TIP3    H159882   3.846   0.929  12.122 -2.9568 -0.1454 -1.3068
12797TIP3    H259883   3.834   1.073  12.167  0.5700 -0.0739 -0.3566
12798TIP3   OH259884   3.062   3.991   6.512 -0.1954  0.4364 -0.5877
12798TIP3    H159885   3.136   3.952   6.466  0.1728  0.1580  0.2414
12798TIP3    H259886   3.083   4.085   6.516  0.4284  0.2703  0.2150
12799TIP3   OH259887   3.814   1.136   0.682 -0.0283  0.5293  0.2302
12799TIP3    H159888   3.850   1.057   0.643  0.0757  1.1205 -0.9275
12799TIP3    H259889   3.887   1.175   0.730  0.8544  1.5253 -1.7932
12800TIP3   OH259890   1.612   3.164   1.597 -0.0925  0.1570 -0.1035
12800TIP3    H159891   1.703   3.154   1.625  0.0478  3.6964  1.2375
12800TIP3    H259892   1.615   3.155   1.501  1.5383 -0.3932 -0.0299
12801TIP3   OH259893   6.309   0.479  12.914  0.0351  0.0386 -0.0327
12801TIP3    H159894   6.380   0.472  12.978 -0.7722  0.4975  0.9364
12801TIP3    H259895   6.241   0.530  12.959 -0.4824  0.5183 -1.3226
12802TIP3   OH259896   5.826   1.978   5.257 -0.6412  0.7964  0.5730
12802TIP3    H159897   5.823   1.912   5.187  0.6309  1.6861 -0.3643
12802TIP3    H259898   5.773   1.940   5.327 -0.3031 -1.0216 -0.0916
12803TIP3   OH259899   5.126   4.672  12.854 -0.2014  0.4742  0.1480
12803TIP3    H159900   5.082   4.757  12.852 -1.8485 -0.3332  0.3226
12803TIP3    H259901   5.173   4.667  12.770 -2.0072  0.6104 -0.9293
12804TIP3   OH259902   1.355   1.523   5.064 -0.6158  0.5210 -0.2289
12804TIP3    H159903   1.318   1.598   5.110  0.2226  0.0505  1.2979
12804TIP3    H259904   1.284   1.491   5.009 -2.1167  0.3822  1.6607
12805TIP3   OH259905   5.198   4.791   5.493  0.3996  0.0246  0.2180
12805TIP3    H159906   5.253   4.866   5.471  3.1722 -2.3241 -1.5159
12805TIP3    H259907   5.194   4.791   5.588  3.5001  0.3466  0.4365
12806TIP3   OH259908   2.495   6.264  16.063 -0.3078 -0.1189  0.0012
12806TIP3    H159909   2.507   6.172  16.085  2.8038  0.0434 -0.5153
12806TIP3    H259910   2.480   6.264  15.968  1.2887 -0.1027 -0.2935
12807TIP3   OH259911   4.899   6.373   0.087  0.3344 -0.0117 -0.4808
12807TIP3    H159912   4.828   6.412   0.036 -0.6748  0.0090  0.8936
12807TIP3    H259913   4.892   6.279   0.070 -1.3555 -0.2472  1.1979
12808TIP3   OH259914   3.943   1.972   3.211  0.0564 -0.2295  0.1959
12808TIP3    H159915   4.012   1.915   3.177 -1.3263 -1.2408 -1.0446
12808TIP3    H259916   3.862   1.921   3.199 -0.9912  1.1935  0.9481
12809TIP3   OH259917   3.507   5.176   0.189  0.3607 -0.3801 -0.3697
12809TIP3    H159918   3.508   5.124   0.108  1.4852 -0.4763 -0.3090
12809TIP3    H259919   3.480   5.263   0.162 -1.7078 -0.9852 -0.4577
12810TIP3   OH259920   5.061   6.542  13.889  0.4573 -0.4128  0.1804
12810TIP3    H159921   4.966   6.548  13.878  0.2814 -1.7075  0.7150
12810TIP3    H259922   5.098   6.594  13.818 -0.6495  0.0195 -0.0907
12811TIP3   OH259923   2.559   3.038  14.933 -0.2554 -0.0590  0.2422
12811TIP3    H159924   2.494   3.097  14.971  0.4348  0.3981  0.7352
12811TIP3    H259925   2.531   2.951  14.960 -0.9348  0.0944  0.0372
12812TIP3   OH259926   5.467   5.140   1.128 -0.1114  0.2008  0.2900
12812TIP3    H159927   5.416   5.212   1.164 -0.2730  0.7467 -0.9875
12812TIP3    H259928   5.456   5.147   1.033 -2.0195 -2.8726  0.1503
12813TIP3   OH259929   1.355   5.359  16.635 -0.0956 -0.1403  0.1747
12813TIP3    H159930   1.340   5.452  16.622 -1.2891 -0.4172 -0.5480
12813TIP3    H259931   1.310   5.316  16.562 -0.9626 -1.3622  1.3657
12814TIP3   OH259932   0.247   1.783   0.199 -0.2365 -0.1872 -0.7468
12814TIP3    H159933   0.256   1.871   0.162  0.9608  0.5659  1.2014
12814TIP3    H259934   0.274   1.725   0.129  0.6337  1.1035 -1.5244
12815TIP3   OH259935   6.422   1.133   5.933  0.1281 -0.4617  0.4240
12815TIP3    H159936   6.465   1.197   5.991 -1.1783  1.4608 -0.6026
12815TIP3    H259937   6.329   1.142   5.953 -0.4718  0.8402 -2.3775
12816TIP3   OH259938   4.653   5.016   3.505 -0.0022  0.7680 -0.2699
12816TIP3    H159939   4.712   4.998   3.432 -0.1329  0.6203 -0.3400
12816TIP3    H259940   4.699   5.080   3.559  0.1444  0.7863 -0.4199
12817TIP3   OH259941   2.063   6.053  12.802 -0.4737  0.0872  0.1517
12817TIP3    H159942   2.116   6.004  12.739 -2.0861  0.4674 -1.5820
12817TIP3    H259943   1.973   6.040  12.773 -1.2021  1.2242  1.7316
12818TIP3   OH259944   4.483   2.929  17.124  0.1870  0.3378 -0.5236
12818TIP3    H159945   4.410   2.934  17.185 -0.5938  3.2760 -1.5218
12818TIP3    H259946   4.554   2.890  17.174 -1.4383 -0.6289  1.1324
12819TIP3   OH259947   2.925   1.486  17.002  0.0330 -0.1521 -0.1604
12819TIP3    H159948   2.934   1.480  16.907  0.3607 -2.3259 -0.0484
12819TIP3    H259949   3.015   1.480  17.035 -0.1505 -0.3896  0.3048
12820TIP3   OH259950   0.660   6.106   2.848 -0.1736  0.1658  0.0177
12820TIP3    H159951   0.729   6.040   2.854 -1.2805 -1.1726 -1.2045
12820TIP3    H259952   0.624   6.095   2.760 -0.7917  2.0145  0.0097
12821TIP3   OH259953   6.087   4.528  16.256  0.2002  0.1934 -0.4412
12821TIP3    H159954   6.151   4.464  16.225  1.0556 -0.1708  1.8912
12821TIP3    H259955   6.135   4.611  16.257  0.8317 -0.1428  1.6532
12822TIP3   OH259956   0.180   6.387  16.679 -0.0113 -0.1515  1.0990
12822TIP3    H159957   0.168   6.292  16.681  0.2598 -0.1805  1.2801
12822TIP3    H259958   0.091   6.422  16.664 -0.1374 -0.4243  1.2101
12823TIP3   OH259959   1.303   4.738  14.492  0.1728 -0.1823 -0.1535
12823TIP3    H159960   1.241   4.804  14.462 -1.3382 -1.6072 -0.2749
12823TIP3    H259961   1.388   4.782  14.490 -0.9728  2.2718  1.3364
12824TIP3   OH259962   1.336   2.183  15.879 -0.1279  0.2042 -0.4202
12824TIP3    H159963   1.296   2.110  15.831  0.6649 -0.1093 -0.6184
12824TIP3    H259964   1.426   2.155  15.894  0.2262  1.2022 -0.6241
12825TIP3   OH259965   4.822   5.128  16.369  0.8804  0.1153 -0.1567
12825TIP3    H159966   4.769   5.201  16.402  0.8395 -0.0887  0.2298
12825TIP3    H259967   4.767   5.086  16.303  0.5290 -0.1378  0.2907
12826TIP3   OH259968   3.354   4.142   2.972 -0.7339  0.0270 -0.1008
12826TIP3    H159969   3.426   4.129   2.911 -0.0473 -1.1179  0.9119
12826TIP3    H259970   3.366   4.231   3.005 -1.6740  1.0310 -2.2901
12827TIP3   OH259971   1.964   3.591   5.198 -0.0943 -0.3174  0.0448
12827TIP3    H159972   1.982   3.623   5.287 -0.3375 -1.2684  0.4486
12827TIP3    H259973   1.889   3.533   5.208  0.7135 -1.5069 -0.5504
12828TIP3   OH259974   1.393   0.334  14.713 -0.1669 -0.1835  0.1511
12828TIP3    H159975   1.398   0.427  14.689  0.2931  0.1845  1.6129
12828TIP3    H259976   1.424   0.288  14.634  2.3644  1.0300  0.3182
12829TIP3   OH259977   3.981   0.933  13.972 -0.1922 -0.9133 -0.3889
12829TIP3    H159978   3.976   1.029  13.971 -0.7482 -0.9479 -1.3240
12829TIP3    H259979   4.070   0.915  14.003  0.2839 -0.0815 -1.2189
12830TIP3   OH259980   0.171   0.027  13.350 -0.4678  0.3051  0.0669
12830TIP3    H159981   0.225   0.044  13.273  0.5592 -2.3561  0.0982
12830TIP3    H259982   0.233   0.025  13.423 -0.7848 -1.2414  0.3246
12831TIP3   OH259983   1.428   2.570   2.204  0.2077 -0.1624  0.1664
12831TIP3    H159984   1.482   2.582   2.282 -2.7845 -1.7145  2.6926
12831TIP3    H259985   1.479   2.511   2.149  2.2782  0.7041  1.0239
12832TIP3   OH259986   0.123   1.255   2.407  0.4653 -0.1481 -0.2374
12832TIP3    H159987   0.216   1.263   2.429 -0.0233 -0.4277  2.2534
12832TIP3    H259988   0.119   1.180   2.347  2.0318  1.2177 -2.2000
12833TIP3   OH259989   3.705   6.329  15.108 -0.3391 -0.2949 -0.6221
12833TIP3    H159990   3.617   6.332  15.144 -0.4096  1.3819 -0.8401
12833TIP3    H259991   3.713   6.241  15.071 -2.8109  0.2296 -2.7094
12834TIP3   OH259992   5.002   2.117  12.399 -0.1708 -0.5547  0.2703
12834TIP3    H159993   4.973   2.123  12.490 -0.5871 -1.1244  0.1816
12834TIP3    H259994   4.953   2.187  12.355  0.6462  0.2688  0.6217
12835TIP3   OH259995   2.641   3.096  16.395  0.3020 -0.3834 -0.3871
12835TIP3    H159996   2.551   3.116  16.418  0.9452  0.5772  1.4801
12835TIP3    H259997   2.634   3.030  16.325 -1.8123 -1.0862  0.4089
12836TIP3   OH259998   5.914   1.694   3.633 -0.5907  0.3823  0.0308
12836TIP3    H159999   5.859   1.622   3.602  0.2853 -0.1594 -0.2810
12836TIP3    H260000   5.886   1.709   3.723  1.0471 -2.1823  1.0595
12837TIP3   OH260001   1.175   4.502  12.723  0.0103 -0.6139 -0.0219
12837TIP3    H160002   1.111   4.433  12.709 -1.1794 -0.2132  2.7934
12837TIP3    H260003   1.222   4.475  12.802  0.0462  1.3700  0.6887
12838TIP3   OH260004   3.262   6.675  13.312 -0.5162 -0.2151 -0.3159
12838TIP3    H160005   3.249   6.596  13.261  0.8844 -0.3488 -0.4987
12838TIP3    H260006   3.244   6.649  13.403  0.1296 -0.8014 -0.3522
12839TIP3   OH260007   6.055   5.642   1.969 -0.0474  0.5843 -0.3010
12839TIP3    H160008   6.077   5.656   1.877 -0.0179  1.9826 -0.0949
12839TIP3    H260009   5.959   5.638   1.970 -0.0615  0.9246 -0.3398
12840TIP3   OH260010   3.516   1.521   0.267 -0.7219  0.2415 -0.6502
12840TIP3    H160011   3.469   1.604   0.280 -0.3235  0.3629  0.0890
12840TIP3    H260012   3.590   1.544   0.211  0.9525  0.9934  1.7241
12841TIP3   OH260013   0.406   0.200   3.735 -0.4553  0.4716  0.1212
12841TIP3    H160014   0.471   0.144   3.775  0.4540  2.2524  1.2399
12841TIP3    H260015   0.410   0.282   3.784 -2.2963  1.2579 -0.9170
12842TIP3   OH260016   1.773   5.877  11.807 -0.5820 -0.0384  0.1031
12842TIP3    H160017   1.819   5.846  11.885  0.0481  1.0632  0.1977
12842TIP3    H260018   1.774   5.973  11.815  0.0884  0.1328 -1.5928
12843TIP3   OH260019   2.769   1.786   1.256 -0.3127 -0.0525 -0.2331
12843TIP3    H160020   2.825   1.845   1.207  0.0677  0.3233  0.6327
12843TIP3    H260021   2.773   1.818   1.347 -0.1384 -1.3610  0.2489
12844TIP3   OH260022   5.784   5.655  11.295  0.2429  0.8730  0.8452
12844TIP3    H160023   5.692   5.661  11.270  0.6006 -0.6785 -1.1862
12844TIP3    H260024   5.827   5.725  11.244  0.4703  0.0892 -0.0725
12845TIP3   OH260025   2.384   6.280  14.445  0.1835  0.0431  0.1362
12845TIP3    H160026   2.423   6.194  14.429 -1.1230 -0.4372 -0.5936
12845TIP3    H260027   2.313   6.263  14.507 -0.2893  0.5436 -0.2561
12846TIP3   OH260028   6.817   0.709  12.270  0.1234  0.0902  0.2025
12846TIP3    H160029   6.722   0.708  12.278  0.1180  0.0992  0.1403
12846TIP3    H260030   6.847   0.634  12.322  0.0561 -0.1700 -0.1273
12847TIP3   OH260031   6.208   2.484  11.595  0.6565 -0.0779 -0.0455
12847TIP3    H160032   6.239   2.564  11.637  0.5165 -0.3090  0.5143
12847TIP3    H260033   6.211   2.503  11.501 -0.7918  1.1293  0.1012
12848TIP3   OH260034   5.887   3.571  15.150  0.3970  0.2898 -0.6526
12848TIP3    H160035   5.809   3.568  15.205  0.0626 -0.2340 -1.1439
12848TIP3    H260036   5.872   3.643  15.089  1.4915  1.9808  0.9671
12849TIP3   OH260037   1.454   1.839  11.009 -0.7030 -0.0087  0.3396
12849TIP3    H160038   1.527   1.780  10.991 -1.0471 -0.6087  0.8804
12849TIP3    H260039   1.377   1.784  11.008 -0.9058  0.1727  2.0606
12850TIP3   OH260040   3.753   3.868   3.984  0.0724  0.2506 -0.5527
12850TIP3    H160041   3.743   3.959   4.013 -0.6927  0.1528 -0.4742
12850TIP3    H260042   3.727   3.869   3.892  0.2664  0.1469 -0.6097
12851TIP3   OH260043   0.536   0.116   2.732  0.2647  0.2318  0.3336
12851TIP3    H160044   0.527   0.072   2.647  0.7057  3.0127 -1.2685
12851TIP3    H260045   0.631   0.126   2.743  0.2234 -0.2459  1.2987
12852TIP3   OH260046   1.686   5.100  14.229 -0.1874 -0.2567  0.2638
12852TIP3    H160047   1.708   5.188  14.197 -1.1098 -0.0375  0.1887
12852TIP3    H260048   1.708   5.042  14.156  0.2245 -0.0568  0.2294
12853TIP3   OH260049   5.365   3.734  12.066  0.5649 -0.4172 -0.7070
12853TIP3    H160050   5.386   3.641  12.078 -0.5968 -0.7206 -0.9625
12853TIP3    H260051   5.337   3.740  11.974  0.8975  0.2409 -0.7667
12854TIP3   OH260052   5.581   0.767  15.770  0.6456 -0.0403 -0.3593
12854TIP3    H160053   5.573   0.678  15.737 -0.9265 -0.1962  0.3678
12854TIP3    H260054   5.496   0.807  15.753  0.6507  0.6685  1.1147
12855TIP3   OH260055   4.209   5.342  12.724  0.7915 -0.1433 -0.0383
12855TIP3    H160056   4.301   5.329  12.702  0.3937 -0.2792 -1.7679
12855TIP3    H260057   4.207   5.345  12.819  2.7574  1.1671  0.0160
12856TIP3   OH260058   4.499   6.111  12.341  0.3185  0.0312 -0.0371
12856TIP3    H160059   4.559   6.039  12.364  0.1031  0.1370  0.8882
12856TIP3    H260060   4.541   6.189  12.377  1.3126  0.6557 -2.3025
12857TIP3   OH260061   5.402   1.481   0.982  0.2738 -0.1705  0.8384
12857TIP3    H160062   5.423   1.451   0.893 -0.3019 -0.5176  0.8176
12857TIP3    H260063   5.307   1.488   0.983  0.1813 -1.2432  1.7677
12858TIP3   OH260064   3.590   5.101   1.202  0.3217 -0.2258  0.5149
12858TIP3    H160065   3.595   5.161   1.128 -0.8203  1.5371  1.7856
12858TIP3    H260066   3.679   5.065   1.210  0.9322  0.9682 -0.5570
12859TIP3   OH260067   2.068   4.980   3.967 -0.0308  0.2988  0.5441
12859TIP3    H160068   2.013   4.930   4.028  0.3444  0.0743  0.7033
12859TIP3    H260069   2.031   5.068   3.968 -0.3870  0.1476  0.6507
12860TIP3   OH260070   6.432   5.053  16.362  0.1873 -0.4756 -1.0035
12860TIP3    H160071   6.346   5.069  16.323 -0.2325 -1.5993 -0.5752
12860TIP3    H260072   6.480   5.134  16.347 -0.3690 -0.4124 -2.7625
12861TIP3   OH260073   4.828   4.624  13.900  0.0057 -0.6244 -0.5028
12861TIP3    H160074   4.856   4.623  13.992  1.2773  0.2284 -0.8584
12861TIP3    H260075   4.871   4.549  13.860 -0.1608 -0.7145 -0.5140
12862TIP3   OH260076   2.909   2.766   5.570 -0.1556 -0.0619  0.1696
12862TIP3    H160077   2.969   2.702   5.530 -0.7568 -0.7456  0.3352
12862TIP3    H260078   2.837   2.713   5.604  0.4889  0.4474  2.4847
12863TIP3   OH260079   2.085   5.976   3.203 -0.2926 -0.0968 -0.1183
12863TIP3    H160080   2.103   6.065   3.173  1.7212 -0.5725 -0.5051
12863TIP3    H260081   2.034   5.936   3.132  0.2989  0.2352 -0.7396
12864TIP3   OH260082   0.154   3.310   3.270  0.3579  0.3446 -0.0207
12864TIP3    H160083   0.216   3.304   3.342  0.8321  1.1887 -0.3423
12864TIP3    H260084   0.182   3.387   3.221 -1.1385  0.9242 -0.0032
12865TIP3   OH260085   3.495   0.706   6.205  0.5670  0.3213 -0.4350
12865TIP3    H160086   3.589   0.691   6.217  0.8785  1.9973 -0.6165
12865TIP3    H260087   3.459   0.702   6.293  0.6961 -0.8836 -0.4158
12866TIP3   OH260088   5.644   3.561  14.963 -0.3885  0.7558  0.3082
12866TIP3    H160089   5.625   3.628  14.898 -2.0647 -0.7062 -0.7888
12866TIP3    H260090   5.561   3.547  15.009 -0.3493 -1.1699 -0.1178
12867TIP3   OH260091   0.116   3.429  12.790 -0.0878  0.5733 -0.2905
12867TIP3    H160092   0.120   3.473  12.705  0.5945  3.0828  0.9638
12867TIP3    H260093   0.186   3.364  12.786 -0.6515  0.0075 -1.9393
12868TIP3   OH260094   3.623   3.032  11.868 -0.0088 -0.4434 -0.2671
12868TIP3    H160095   3.530   3.049  11.856  0.1878  1.0579  0.2022
12868TIP3    H260096   3.667   3.108  11.829  1.0378 -1.2272 -0.6668
12869TIP3   OH260097   1.836   5.736  15.925 -0.1404 -0.1703  0.4210
12869TIP3    H160098   1.783   5.816  15.917 -1.6845 -1.3543 -2.2405
12869TIP3    H260099   1.925   5.768  15.943 -1.2170  1.9759  2.4620
12870TIP3   OH260100   6.392   1.261  11.545  0.4487 -0.0049  0.2332
12870TIP3    H160101   6.362   1.335  11.599 -1.7346 -0.1298 -0.7370
12870TIP3    H260102   6.472   1.294  11.504 -0.5183  1.9066 -0.2611
12871TIP3   OH260103   3.283   2.366   3.989 -0.5508 -0.4081  0.6902
12871TIP3    H160104   3.354   2.303   3.976  0.9033  1.5020 -1.6224
12871TIP3    H260105   3.322   2.433   4.046 -1.4884 -0.6991  1.6996
12872TIP3   OH260106   4.724   4.541   1.194 -0.5160  0.0715  0.2511
12872TIP3    H160107   4.782   4.510   1.124 -1.0220  1.1368 -0.6722
12872TIP3    H260108   4.640   4.500   1.175 -0.4812 -0.1965  0.6598
12873TIP3   OH260109   3.165   5.417   3.239  0.0760 -0.5382 -0.5271
12873TIP3    H160110   3.073   5.407   3.262  0.3137 -0.1123  0.6768
12873TIP3    H260111   3.166   5.483   3.170 -0.3715  1.0500  0.9159
12874TIP3   OH260112   1.394   2.020   5.500 -0.2121 -0.1395  0.1817
12874TIP3    H160113   1.478   2.053   5.533  1.3361 -3.5666  0.1175
12874TIP3    H260114   1.384   2.061   5.414  0.5556  1.5266  0.8393
12875TIP3   OH260115   3.253   0.963   0.418 -1.0403  0.0897  0.5064
12875TIP3    H160116   3.315   1.036   0.423 -0.5579 -0.2188 -0.5769
12875TIP3    H260117   3.287   0.898   0.478 -1.8327  0.9939  1.9819
12876TIP3   OH260118   2.322   2.375  16.444  0.1479  0.8491  0.6945
12876TIP3    H160119   2.353   2.325  16.520  0.1156 -1.6635 -0.8430
12876TIP3    H260120   2.232   2.345  16.431  1.1375 -1.3979 -2.2133
12877TIP3   OH260121   5.773   2.493  13.473  0.0655 -0.2001 -0.3305
12877TIP3    H160122   5.785   2.474  13.380 -0.8162 -0.2135 -0.4534
12877TIP3    H260123   5.858   2.475  13.512 -0.1188 -2.2757 -0.7874
12878TIP3   OH260124   0.425   1.307  11.977  0.1411  0.3274 -0.3000
12878TIP3    H160125   0.429   1.248  11.902 -1.6565  0.4832 -0.5482
12878TIP3    H260126   0.350   1.277  12.028  0.7316  0.8469  0.9306
12879TIP3   OH260127   2.889   5.750   5.563 -0.2761  0.4399  0.2260
12879TIP3    H160128   2.841   5.684   5.513  2.0609 -1.6159  0.4997
12879TIP3    H260129   2.904   5.821   5.500 -2.6374  0.6958 -0.1386
12880TIP3   OH260130   5.050   6.241   1.468 -0.5346 -0.3365 -0.4326
12880TIP3    H160131   5.026   6.317   1.415 -1.0919 -1.0513 -1.2458
12880TIP3    H260132   5.015   6.260   1.555  0.5620  0.9479 -0.2432
12881TIP3   OH260133   0.214   5.477   3.049  0.4551  0.1217 -0.4037
12881TIP3    H160134   0.301   5.509   3.076 -0.4139  1.7536  0.6285
12881TIP3    H260135   0.217   5.383   3.067  1.5742  0.3677  0.8961
12882TIP3   OH260136   5.485   2.286  11.775 -0.0060  0.7859  0.0179
12882TIP3    H160137   5.561   2.278  11.833  0.9287  0.2145 -1.2366
12882TIP3    H260138   5.426   2.217  11.804 -1.0415  2.5173  2.3491
12883TIP3   OH260139   2.595   5.852   0.731  0.1963 -0.3042  0.4244
12883TIP3    H160140   2.640   5.932   0.757  0.0704 -0.0862 -0.0139
12883TIP3    H260141   2.531   5.836   0.801 -0.0011  0.1580  0.3520
12884TIP3   OH260142   2.927   4.779  14.525  0.5337  0.0807  0.4646
12884TIP3    H160143   2.952   4.728  14.602  0.0743 -0.5299  0.2168
12884TIP3    H260144   2.857   4.728  14.484  0.3544  0.7051 -0.0200
12885TIP3   OH260145   2.287   1.119  13.598  0.6203  0.0642  0.0723
12885TIP3    H160146   2.240   1.084  13.675  1.8287 -2.2279 -0.1284
12885TIP3    H260147   2.291   1.213  13.613  2.0840 -0.3879  3.6435
12886TIP3   OH260148   5.766   0.170  15.381  0.1911 -0.2724  0.2818
12886TIP3    H160149   5.784   0.263  15.369  0.0730  0.0320  2.1299
12886TIP3    H260150   5.698   0.151  15.317 -0.2898  1.0993  0.3391
12887TIP3   OH260151   2.084   1.005  11.764  0.5678 -0.1498  0.7504
12887TIP3    H160152   2.100   1.039  11.676  1.3497  0.5012  1.1340
12887TIP3    H260153   2.032   0.926  11.749 -0.0146  0.3914 -0.2420
12888TIP3   OH260154   0.598   5.547  12.182  0.2079  0.0876 -0.2104
12888TIP3    H160155   0.626   5.620  12.127  0.1867 -0.7483 -1.3720
12888TIP3    H260156   0.644   5.471  12.146  0.1710 -0.4908  0.9241
12889TIP3   OH260157   3.010   0.370  10.720  0.2120 -0.0965  0.1749
12889TIP3    H160158   2.996   0.319  10.640 -1.8501 -1.3365  1.2501
12889TIP3    H260159   2.995   0.461  10.692  0.2298 -0.4268 -0.9884
12890TIP3   OH260160   1.722   3.493   4.162  0.0364  0.1331 -0.4562
12890TIP3    H160161   1.649   3.465   4.107  2.1495 -3.5504 -1.7845
12890TIP3    H260162   1.766   3.561   4.111  0.3709 -1.2663 -2.1202
12891TIP3   OH260163   5.330   1.074   3.512  0.2320 -0.3409 -0.2096
12891TIP3    H160164   5.245   1.036   3.488  0.0479  0.1638 -0.3587
12891TIP3    H260165   5.352   1.032   3.595 -0.4729 -0.0048  0.1595
12892TIP3   OH260166   1.125   6.780   6.278  0.6612  0.0735 -0.0105
12892TIP3    H160167   1.206   6.757   6.233  1.4586 -0.9399  1.8376
12892TIP3    H260168   1.147   6.775   6.371 -1.6654 -0.7572  0.5534
12893TIP3   OH260169   4.683   6.512  13.443  0.0538 -0.1500  0.0041
12893TIP3    H160170   4.676   6.474  13.355  0.5219 -0.0641 -0.0786
12893TIP3    H260171   4.742   6.587  13.431 -1.3834  1.0263  0.0302
12894TIP3   OH260172   1.146   2.176   5.899  0.3548 -0.2152 -0.0963
12894TIP3    H160173   1.178   2.118   5.968  0.0738 -0.7832 -0.4362
12894TIP3    H260174   1.222   2.189   5.842  0.2641 -0.7128 -0.3311
12895TIP3   OH260175   2.533   6.681  14.869 -0.1914  0.8925 -0.6381
12895TIP3    H160176   2.577   6.610  14.822  0.4335  0.0706  1.0876
12895TIP3    H260177   2.588   6.758  14.853  1.8305 -0.0347  1.1825
12896TIP3   OH260178   4.767   2.256   3.772  0.3763  0.3545  0.1835
12896TIP3    H160179   4.812   2.174   3.790 -0.7440 -0.5139 -0.8392
12896TIP3    H260180   4.790   2.278   3.682 -1.3321 -0.2150 -0.4343
12897TIP3   OH260181   0.090   3.139   3.662  0.0638 -0.5678 -0.1018
12897TIP3    H160182   0.048   3.088   3.732 -1.0894  0.0512 -0.3173
12897TIP3    H260183   0.156   3.081   3.626 -0.0088 -1.2604  0.8413
12898TIP3   OH260184   5.637   2.323   4.366  0.4318  0.1019 -0.2520
12898TIP3    H160185   5.574   2.394   4.362  0.8253  0.6019  1.4924
12898TIP3    H260186   5.722   2.366   4.366  0.6767 -0.0634  3.3700
12899TIP3   OH260187   3.514   5.557  13.522  0.1036 -0.0859  0.4232
12899TIP3    H160188   3.556   5.537  13.438 -0.8064  0.5690 -0.2058
12899TIP3    H260189   3.505   5.652  13.522 -2.3392 -0.2661  0.0438
12900TIP3   OH260190   0.553   3.369  16.022 -0.2457  0.2069  0.5448
12900TIP3    H160191   0.620   3.391  16.088  1.9041 -1.1252 -1.0722
12900TIP3    H260192   0.485   3.324  16.072  0.2644  1.1384  2.1839
12901TIP3   OH260193   0.204   5.252   5.464 -0.5645 -0.2983 -0.0709
12901TIP3    H160194   0.151   5.327   5.435  3.1132  2.3203 -0.6684
12901TIP3    H260195   0.273   5.291   5.517  1.2575 -3.3841  0.0153
12902TIP3   OH260196   0.535   2.947  11.579  0.2510  0.3055 -0.1375
12902TIP3    H160197   0.609   3.003  11.601  0.4456 -0.3090  0.7911
12902TIP3    H260198   0.540   2.874  11.641  0.5734 -1.2677 -1.9116
12903TIP3   OH260199   4.654   2.048   5.716  0.0858 -0.3325 -0.1130
12903TIP3    H160200   4.729   2.081   5.766 -0.3872  2.6996 -1.2185
12903TIP3    H260201   4.687   2.038   5.627  0.0681 -2.6749  0.0572
12904TIP3   OH260202   1.085   5.736   1.321  0.2497  0.2691  0.4330
12904TIP3    H160203   1.158   5.754   1.262 -0.6571 -0.0312 -0.8051
12904TIP3    H260204   1.072   5.641   1.315 -1.1597  0.5092 -0.4647
12905TIP3   OH260205   3.812   2.269  12.575 -0.3604  0.2225  0.3086
12905TIP3    H160206   3.815   2.365  12.578 -0.2761  0.4942 -3.5879
12905TIP3    H260207   3.903   2.243  12.561 -0.6236 -0.2245 -0.6636
12906TIP3   OH260208   0.165   0.056  11.354 -0.0284  0.5846  0.1718
12906TIP3    H160209   0.213  -0.019  11.389 -1.6803 -0.3763  0.5271
12906TIP3    H260210   0.181   0.053  11.259 -1.1724 -1.1125 -0.0149
12907TIP3   OH260211   0.625   5.492   4.508 -0.0222 -0.3216  0.1094
12907TIP3    H160212   0.630   5.556   4.436  2.2664 -0.0502  0.4170
12907TIP3    H260213   0.610   5.408   4.464 -0.4381  0.0710 -0.5259
12908TIP3   OH260214   0.490   3.724  13.368  0.5779 -0.0999  0.5127
12908TIP3    H160215   0.458   3.810  13.339 -3.2677 -1.2822  0.5892
12908TIP3    H260216   0.444   3.709  13.450  0.5865 -2.5047  0.1336
12909TIP3   OH260217   3.899   2.568  13.111 -0.0879  0.4391  0.4714
12909TIP3    H160218   3.986   2.545  13.144  0.0716  1.6010  0.9012
12909TIP3    H260219   3.902   2.542  13.019  1.1376  1.4824  0.1709
12910TIP3   OH260220   3.767   2.057   2.877  0.1520 -0.5237 -0.4322
12910TIP3    H160221   3.687   2.046   2.825 -0.9851  0.4660  1.0268
12910TIP3    H260222   3.814   2.127   2.833 -0.2435 -0.4776 -0.7913
12911TIP3   OH260223   5.488   3.543  16.209  0.0957  0.0024  0.2462
12911TIP3    H160224   5.507   3.624  16.160  1.0585 -0.0717  0.4696
12911TIP3    H260225   5.550   3.479  16.174  0.5062 -0.1703  1.2587
12912TIP3   OH260226   5.429   3.984  13.352  0.3301  0.1013  0.1765
12912TIP3    H160227   5.501   4.001  13.290 -0.2608  0.3167 -0.4619
12912TIP3    H260228   5.362   3.940  13.299  0.5374 -1.3767  1.0748
12913TIP3   OH260229   2.039   1.716  13.778  0.1694  0.5560 -0.1688
12913TIP3    H160230   2.125   1.693  13.814  0.2810  1.7823  0.4169
12913TIP3    H260231   1.990   1.748  13.854 -1.4119 -1.7111 -0.1685
12914TIP3   OH260232   2.480   6.633   0.066  0.0744 -0.2538  0.1427
12914TIP3    H160233   2.502   6.586  -0.015  1.2477  2.3138 -1.1372
12914TIP3    H260234   2.564   6.647   0.109 -0.3921 -0.3322  1.1018
12915TIP3   OH260235   6.420   1.514   2.352  0.0484  0.3723 -0.6679
12915TIP3    H160236   6.490   1.528   2.416  0.4450  0.0989 -1.0333
12915TIP3    H260237   6.345   1.484   2.404  0.2499  0.5291 -0.2890
12916TIP3   OH260238   5.233   4.604   2.626  0.5424 -0.4424 -0.3721
12916TIP3    H160239   5.247   4.687   2.671  0.8642 -0.1389 -1.0131
12916TIP3    H260240   5.141   4.583   2.642  1.0223 -1.1800  1.7888
12917TIP3   OH260241   5.806   5.826  14.495 -0.0826  0.9013  0.7408
12917TIP3    H160242   5.728   5.791  14.452  0.4227  0.7419 -0.0494
12917TIP3    H260243   5.771   5.870  14.573 -1.0649  1.6146 -0.0669
12918TIP3   OH260244   3.251   5.819  10.648  0.0309  0.3933 -0.4348
12918TIP3    H160245   3.177   5.763  10.626  0.6064 -0.4887 -0.2193
12918TIP3    H260246   3.324   5.783  10.597  0.2673  1.3773 -0.8138
12919TIP3   OH260247   1.835   6.138   5.655 -0.1735 -0.0077 -0.0901
12919TIP3    H160248   1.896   6.066   5.671 -0.3861  0.0082  0.8592
12919TIP3    H260249   1.813   6.131   5.563 -1.2912 -2.0374  0.2826
12920TIP3   OH260250   0.733   5.510  14.684  0.1085  0.0233  0.1495
12920TIP3    H160251   0.706   5.598  14.656 -1.3456  0.2961  2.1824
12920TIP3    H260252   0.654   5.456  14.672  0.2160 -0.4068  1.2493
12921TIP3   OH260253   5.753   2.582   1.612  0.5496 -0.4108 -0.0265
12921TIP3    H160254   5.698   2.615   1.540 -1.0533 -0.8532  0.9498
12921TIP3    H260255   5.841   2.577   1.574 -0.0987  0.1320 -1.7083
12922TIP3   OH260256   5.781   3.021  15.869 -0.1149 -0.2097  0.3816
12922TIP3    H160257   5.823   2.960  15.808  1.4367 -0.0265  1.2232
12922TIP3    H260258   5.722   3.072  15.815  1.4807  0.1869 -1.0632
12923TIP3   OH260259   3.289   5.952  16.088  0.1508  0.6239 -0.4521
12923TIP3    H160260   3.371   5.998  16.072  1.0260 -0.2631  1.1999
12923TIP3    H260261   3.306   5.862  16.062 -0.0190  0.2689  0.6091
12924TIP3   OH260262   2.894   4.791  13.031  0.2127 -0.4240 -0.2448
12924TIP3    H160263   2.824   4.852  13.055  1.6092  1.2687 -0.2805
12924TIP3    H260264   2.871   4.761  12.943 -1.0472 -0.8030  0.1949
12925TIP3   OH260265   4.896   1.399   3.820 -0.6845 -0.3991 -1.3343
12925TIP3    H160266   4.818   1.364   3.864 -0.1422  0.0939  0.0706
12925TIP3    H260267   4.967   1.388   3.883  0.1686  0.1786 -2.1569
12926TIP3   OH260268   3.866   2.570   0.836 -0.1989 -0.8549  0.3161
12926TIP3    H160269   3.949   2.605   0.868  0.5880 -1.1816 -1.2583
12926TIP3    H260270   3.854   2.487   0.882  0.0443 -0.5318  0.9691
12927TIP3   OH260271   6.673   5.616   3.910  0.4875  0.6743  0.2504
12927TIP3    H160272   6.686   5.552   3.979 -1.4695  0.1299  0.1683
12927TIP3    H260273   6.587   5.654   3.928 -0.5235 -0.1564 -2.3691
12928TIP3   OH260274   4.966   5.472   4.672 -0.0450 -0.1082  0.7128
12928TIP3    H160275   5.024   5.398   4.657 -0.8455 -0.5912 -0.0872
12928TIP3    H260276   4.984   5.499   4.762 -0.3868 -1.8637  1.3540
12929TIP3   OH260277   6.028   3.529  15.814 -0.1955  0.1084 -0.2160
12929TIP3    H160278   5.938   3.518  15.843 -0.7149  0.4546 -1.6416
12929TIP3    H260279   6.021   3.566  15.726  1.3386  1.1488  0.0487
12930TIP3   OH260280   4.455   5.826  16.318  0.6176 -0.1792  0.1140
12930TIP3    H160281   4.547   5.855  16.322  0.9077 -1.0823  0.2230
12930TIP3    H260282   4.409   5.883  16.379  1.2256 -0.1313  0.5319
12931TIP3   OH260283   0.833   0.490   0.623 -0.1448 -0.3557  0.3244
12931TIP3    H160284   0.834   0.395   0.632  1.7186 -0.2940  1.4100
12931TIP3    H260285   0.841   0.523   0.713  1.0665  0.7624 -0.1494
12932TIP3   OH260286   6.207   6.296   5.898  0.6993  0.1006  0.0504
12932TIP3    H160287   6.280   6.234   5.892  0.2713 -0.2976 -3.1174
12932TIP3    H260288   6.248   6.382   5.897  1.2024 -0.0963  1.6559
12933TIP3   OH260289   4.346   0.223   3.177 -0.6845  0.5191  0.1282
12933TIP3    H160290   4.323   0.187   3.091 -1.8434  1.1050  0.1794
12933TIP3    H260291   4.352   0.146   3.234 -0.6714  0.1941 -0.3072
12934TIP3   OH260292   3.878   1.130  16.304  0.0803  0.6496 -0.0855
12934TIP3    H160293   3.912   1.077  16.376  0.2262 -0.6531 -1.0886
12934TIP3    H260294   3.783   1.127  16.314  0.1221  1.6894  0.8784
12935TIP3   OH260295   6.144   6.566   1.121  0.5941  0.0108  0.3529
12935TIP3    H160296   6.172   6.652   1.149 -0.0241  0.1414  0.5975
12935TIP3    H260297   6.053   6.578   1.094  0.5312 -0.5436  0.2990
12936TIP3   OH260298   4.074   2.927  10.223  0.1557 -0.2980 -0.1254
12936TIP3    H160299   4.106   2.985  10.292 -0.7873  0.3452 -0.2084
12936TIP3    H260300   4.144   2.863  10.211  1.8766  1.6553 -1.0358
12937TIP3   OH260301   2.776   6.654   3.558 -0.1945 -0.3905 -0.8257
12937TIP3    H160302   2.738   6.719   3.618 -0.0921  0.5704 -1.7641
12937TIP3    H260303   2.863   6.689   3.537  0.1463 -1.1967 -0.8072
12938TIP3   OH260304   1.477   2.541   5.764  0.2488 -0.3021  0.4225
12938TIP3    H160305   1.384   2.559   5.748 -0.0311 -2.0737 -0.1686
12938TIP3    H260306   1.511   2.622   5.800 -0.8249  1.4390 -2.1654
12939TIP3   OH260307   0.416   5.720  13.804  0.0032  0.2015 -0.1687
12939TIP3    H160308   0.352   5.662  13.764 -0.7355 -0.1974  1.5088
12939TIP3    H260309   0.498   5.702  13.758 -0.7001 -0.5284 -1.1694
12940TIP3   OH260310   0.986   0.019   3.495 -0.1346 -0.2091  0.0657
12940TIP3    H160311   1.006  -0.069   3.525 -1.2293 -0.5930 -0.2840
12940TIP3    H260312   0.955   0.008   3.405  0.2665  0.5932 -0.1755
12941TIP3   OH260313   2.908   1.588   4.779  0.1816 -0.1802 -0.1954
12941TIP3    H160314   2.968   1.638   4.725  0.0813  0.6453  0.4365
12941TIP3    H260315   2.836   1.565   4.721 -0.3010  1.3539 -0.2341
12942TIP3   OH260316   0.270   1.039   1.666 -0.3981  0.1571  0.3996
12942TIP3    H160317   0.357   1.002   1.653  0.0751  1.1230  0.7087
12942TIP3    H260318   0.211   0.964   1.664  0.1315 -0.3080 -2.3016
12943TIP3   OH260319   3.498   5.025  14.220  0.1470 -0.1927  0.2876
12943TIP3    H160320   3.408   4.998  14.199 -0.1301  0.7724  0.1823
12943TIP3    H260321   3.535   5.054  14.137 -0.1384  1.3312  0.6654
12944TIP3   OH260322   2.717   0.372   1.049  0.1434 -0.2114 -0.0699
12944TIP3    H160323   2.775   0.296   1.039 -1.0338 -1.0956 -0.4323
12944TIP3    H260324   2.670   0.356   1.131  2.2282  1.8188  1.6795
12945TIP3   OH260325   2.541   6.282   4.254  0.1378  0.8181 -0.0254
12945TIP3    H160326   2.528   6.374   4.279 -1.7328  0.2999  1.0710
12945TIP3    H260327   2.577   6.241   4.333 -2.2145 -0.0505  0.6504
12946TIP3   OH260328   2.030   5.940   5.687  0.7163  0.5081 -0.0126
12946TIP3    H160329   2.075   5.951   5.603 -0.4593  1.4827 -0.5532
12946TIP3    H260330   1.981   5.858   5.677  0.1256  0.9109 -0.5183
12947TIP3   OH260331   4.901   0.445  16.262  0.7242  0.1925  0.3649
12947TIP3    H160332   4.972   0.387  16.236  0.7894  0.4355  0.0006
12947TIP3    H260333   4.941   0.503  16.328  0.6548 -0.1791  0.7398
12948TIP3   OH260334   0.477   6.624  12.640  0.6052 -0.3848  1.0002
12948TIP3    H160335   0.388   6.616  12.675  0.9282 -0.1831  1.8853
12948TIP3    H260336   0.502   6.534  12.617 -0.3657 -0.2712 -0.6666
12949TIP3   OH260337   5.122   1.434   3.044  0.5174  0.2446 -0.0470
12949TIP3    H160338   5.102   1.447   2.951  0.9924 -0.2737 -0.2288
12949TIP3    H260339   5.218   1.424   3.046  0.6499  1.4524  0.6437
12950TIP3   OH260340   1.141   1.252  12.538 -0.0779  0.4126  0.5670
12950TIP3    H160341   1.092   1.313  12.593 -0.2195  1.5003 -0.6939
12950TIP3    H260342   1.231   1.256  12.572 -0.8511 -1.9888  3.2200
12951TIP3   OH260343   0.214   4.168  13.226  0.4438 -0.8079  0.1615
12951TIP3    H160344   0.256   4.189  13.310  1.7144  1.0609 -0.8542
12951TIP3    H260345   0.127   4.207  13.233  0.8154  0.0195  0.3656
12952TIP3   OH260346   3.617   1.898  12.283 -0.7251  0.2070  0.4394
12952TIP3    H160347   3.675   1.954  12.232  0.7991 -0.4432  1.3932
12952TIP3    H260348   3.614   1.939  12.369 -1.6684  0.2054  0.4176
12953TIP3   OH260349   0.517   2.130  14.396  0.1917  0.6077 -0.3125
12953TIP3    H160350   0.555   2.177  14.469 -1.2550  0.5792  0.4981
12953TIP3    H260351   0.575   2.055  14.383  1.0946  1.2247  0.0418
12954TIP3   OH260352   6.557   6.508   3.735 -0.5090 -1.0339  0.1870
12954TIP3    H160353   6.614   6.530   3.661  2.1131  1.4357  2.7250
12954TIP3    H260354   6.489   6.576   3.733 -0.5364 -1.0643  0.0132
12955TIP3   OH260355   2.121   0.526  15.325  0.6161 -1.1402  0.1784
12955TIP3    H160356   2.192   0.548  15.386 -0.6249 -1.9808  2.0422
12955TIP3    H260357   2.113   0.602  15.269  1.1235  0.1727  1.7939
12956TIP3   OH260358   0.436   2.390  11.710  0.1725  0.1007  0.2647
12956TIP3    H160359   0.379   2.399  11.634 -0.0069  0.6787  0.4526
12956TIP3    H260360   0.471   2.479  11.724  1.0288 -0.2218  0.2256
12957TIP3   OH260361   4.722   2.337   3.145  0.8882  0.8364 -0.7361
12957TIP3    H160362   4.651   2.374   3.092 -0.5267  1.7191  1.6116
12957TIP3    H260363   4.745   2.407   3.206  1.3043 -0.6451  0.8880
12958TIP3   OH260364   5.354   5.211   1.471 -0.2395 -0.3829  0.0431
12958TIP3    H160365   5.410   5.267   1.418 -0.4873 -0.4443 -0.2843
12958TIP3    H260366   5.400   5.127   1.474 -0.7493 -0.7097 -0.9837
12959TIP3   OH260367   3.546   0.905   1.844 -0.5338  0.1370  0.2747
12959TIP3    H160368   3.454   0.919   1.867 -0.2565  1.5715  0.6233
12959TIP3    H260369   3.557   0.952   1.761 -0.6133 -1.8554 -0.9128
12960TIP3   OH260370   1.830   3.068  13.694 -0.1532 -0.7037  0.3431
12960TIP3    H160371   1.746   3.062  13.739  0.7117  0.8243  2.3267
12960TIP3    H260372   1.872   3.145  13.731  2.4430 -1.8160 -0.0269
12961TIP3   OH260373   2.331   0.702   5.969 -0.3268 -0.4861 -0.0849
12961TIP3    H160374   2.302   0.723   5.880  0.6174 -0.0685 -0.3039
12961TIP3    H260375   2.250   0.702   6.020 -0.6784  1.3040 -0.5532
12962TIP3   OH260376   2.031   3.958   2.265  0.4292 -0.3460 -0.0263
12962TIP3    H160377   2.092   3.887   2.249 -0.6083 -1.1020 -0.8095
12962TIP3    H260378   2.034   4.011   2.185  0.9373  0.3059  0.4124
12963TIP3   OH260379   1.490   4.661   1.584  0.0335  0.5773  0.3513
12963TIP3    H160380   1.563   4.686   1.527  1.1369  0.0163  1.4689
12963TIP3    H260381   1.418   4.719   1.558  0.2167 -0.2341 -2.1739
12964TIP3   OH260382   4.843   6.612   4.039  0.2922  0.4648  0.8755
12964TIP3    H160383   4.867   6.703   4.018 -0.1875  0.0927 -1.6432
12964TIP3    H260384   4.926   6.571   4.062  0.5764  1.4212  1.6432
12965TIP3   OH260385   6.641   2.858  15.922  0.1109 -0.1690 -0.1886
12965TIP3    H160386   6.722   2.807  15.923  1.3710  1.6634 -1.4335
12965TIP3    H260387   6.670   2.949  15.930 -2.0801  0.4100  2.7246
12966TIP3   OH260388   6.300   1.852  16.611 -0.0054 -0.4816  0.4445
12966TIP3    H160389   6.286   1.913  16.538 -0.0148 -0.9068  0.0858
12966TIP3    H260390   6.356   1.783  16.575  1.7667  0.3746  1.4184
12967TIP3   OH260391   3.747   2.358  10.636  0.2075  0.0982 -0.1455
12967TIP3    H160392   3.708   2.297  10.574 -0.4975 -0.2644  0.6444
12967TIP3    H260393   3.707   2.442  10.615  0.9750  0.2621 -1.0534
12968TIP3   OH260394   5.715   2.697  15.960  0.1399 -0.6876 -0.0777
12968TIP3    H160395   5.666   2.762  16.010 -1.8865 -2.3831  0.2882
12968TIP3    H260396   5.795   2.682  16.011  0.0045  0.5326  0.5102
12969TIP3   OH260397   6.114   2.060  11.137 -1.0657 -0.5398  0.1827
12969TIP3    H160398   6.042   2.029  11.081 -0.2449  0.4040 -1.4715
12969TIP3    H260399   6.189   2.007  11.111 -0.4164  0.6406 -0.3908
12970TIP3   OH260400   2.404   5.257   5.446 -0.5213  0.3283 -0.1068
12970TIP3    H160401   2.456   5.252   5.366 -1.8070  2.4755 -1.1451
12970TIP3    H260402   2.344   5.183   5.440 -0.4294  0.3114 -0.9997
12971TIP3   OH260403   4.711   2.114   4.957  0.0137 -0.6761 -0.4260
12971TIP3    H160404   4.630   2.128   5.006  0.2135  1.1954 -0.5369
12971TIP3    H260405   4.780   2.125   5.022  0.2132 -0.8177 -0.6135
12972TIP3   OH260406   5.413   3.713   6.584 -0.7346 -0.7418  0.0828
12972TIP3    H160407   5.488   3.746   6.535 -0.8088  0.1232  0.5378
12972TIP3    H260408   5.352   3.787   6.587 -0.6881 -0.7317  1.5640
12973TIP3   OH260409   0.265   4.280  14.983  0.6355  0.1282 -0.2221
12973TIP3    H160410   0.184   4.262  14.936  0.6470 -0.4616 -0.0185
12973TIP3    H260411   0.334   4.240  14.929  0.7142  0.0044 -0.0315
12974TIP3   OH260412   6.034   5.382   6.229  0.1981 -0.5328 -0.3668
12974TIP3    H160413   5.985   5.389   6.311  0.3978 -0.4617 -0.2523
12974TIP3    H260414   6.091   5.307   6.242 -1.0278 -1.6251 -1.1104
12975TIP3   OH260415   1.173   2.240   3.657  0.5605 -0.4777  0.7054
12975TIP3    H160416   1.135   2.289   3.731 -0.2594  0.2919 -0.2020
12975TIP3    H260417   1.145   2.149   3.672 -1.0412 -0.0481  0.4627
12976TIP3   OH260418   4.834   3.149   0.113 -0.2112  0.4283  0.1837
12976TIP3    H160419   4.868   3.071   0.068 -0.7666  0.1955  0.1559
12976TIP3    H260420   4.824   3.214   0.044  2.0423  1.1811  0.4848
12977TIP3   OH260421   5.227   1.392  15.660  0.0297  0.1349  0.3303
12977TIP3    H160422   5.193   1.441  15.734  0.1183  2.0138 -0.8027
12977TIP3    H260423   5.209   1.300  15.681 -2.0196  0.7665  1.6000
12978TIP3   OH260424   6.649   0.538   2.515  0.6464  0.1074  0.2185
12978TIP3    H160425   6.691   0.556   2.599  0.3668  2.0570 -0.0183
12978TIP3    H260426   6.722   0.529   2.453  0.8609 -1.4998  0.6581
12979TIP3   OH260427   5.408   0.566   0.008 -0.0174  0.1366  0.2066
12979TIP3    H160428   5.343   0.516  -0.042 -0.2477  1.1816 -0.5710
12979TIP3    H260429   5.424   0.513   0.086  0.6137 -1.7267 -1.1101
12980TIP3   OH260430   2.716   3.176  15.293  0.3458 -0.1194 -0.6989
12980TIP3    H160431   2.657   3.203  15.222  2.7457 -1.0305 -3.2276
12980TIP3    H260432   2.782   3.245  15.296 -0.1356  0.3256  1.3198
12981TIP3   OH260433   0.802   3.017  12.406  0.0340 -0.5757  0.3865
12981TIP3    H160434   0.826   3.006  12.314  1.3537  1.9377  0.3235
12981TIP3    H260435   0.865   2.964  12.454  0.4891 -0.4909 -0.1083
12982TIP3   OH260436   4.593   3.208  16.131 -0.7094 -0.2377  0.0441
12982TIP3    H160437   4.649   3.134  16.108 -0.4360 -0.0778  0.1855
12982TIP3    H260438   4.504   3.176  16.119 -0.6068 -0.7545  0.6051
12983TIP3   OH260439   2.049   2.474   2.019  0.2374 -0.4938 -0.4265
12983TIP3    H160440   2.129   2.510   2.057 -0.6369  0.1796  0.8632
12983TIP3    H260441   2.011   2.547   1.971 -0.3005 -0.3731  0.1576
12984TIP3   OH260442   6.812   6.754  12.361  0.5581  0.2623  0.3421
12984TIP3    H160443   6.795   6.666  12.327  2.5687  0.0621 -0.2914
12984TIP3    H260444   6.794   6.748  12.455 -0.1195 -0.5809  0.1751
12985TIP3   OH260445   1.262   5.101  15.052  0.6391  0.2021 -0.2389
12985TIP3    H160446   1.170   5.090  15.076  0.1206  0.6508 -1.8833
12985TIP3    H260447   1.301   5.016  15.069  0.9040  0.9998  4.1905
12986TIP3   OH260448   4.672   0.264   6.010 -0.0276  0.2397  0.2237
12986TIP3    H160449   4.607   0.277   5.941  0.7580  0.8409 -0.4175
12986TIP3    H260450   4.665   0.342   6.064  0.0373  0.2238  0.2547
12987TIP3   OH260451   0.573   4.515  16.465 -0.2690 -0.5238  0.2153
12987TIP3    H160452   0.534   4.431  16.440 -2.4377  0.9786 -1.8276
12987TIP3    H260453   0.588   4.560  16.382  4.5577 -0.2752  0.9376
12988TIP3   OH260454   0.504   2.018   1.236 -0.3833 -0.0425 -0.5481
12988TIP3    H160455   0.413   2.018   1.269  0.5004 -1.3372  2.2401
12988TIP3    H260456   0.522   1.926   1.217  0.3205  0.2130 -1.1277
12989TIP3   OH260457   0.831   0.314  15.583 -0.2487  0.0153 -0.4575
12989TIP3    H160458   0.886   0.311  15.505  1.8001 -4.1520  0.8237
12989TIP3    H260459   0.883   0.361  15.648  1.1969 -2.2618  0.1758
12990TIP3   OH260460   5.878   1.147   6.640  0.2937  0.1717  0.8460
12990TIP3    H160461   5.823   1.145   6.562 -2.1032  1.8472  2.3628
12990TIP3    H260462   5.958   1.101   6.614 -1.2564 -1.2457 -1.8977
12991TIP3   OH260463   2.691   2.297   5.310 -0.2703 -0.5918  0.2739
12991TIP3    H160464   2.661   2.244   5.384 -0.4992 -0.3036  0.3919
12991TIP3    H260465   2.643   2.379   5.320  0.5800 -0.1133  0.4784
12992TIP3   OH260466   3.705   2.723   1.368 -0.4616  0.3794  0.5864
12992TIP3    H160467   3.680   2.806   1.328 -0.2245 -0.1343 -0.6888
12992TIP3    H260468   3.799   2.718   1.356 -0.7120 -0.9639 -1.2009
12993TIP3   OH260469   6.182   4.960  14.707 -0.2475 -0.3666  0.1973
12993TIP3    H160470   6.193   4.940  14.800 -0.5307  0.0688  0.3271
12993TIP3    H260471   6.091   4.991  14.700  0.0661  0.5213 -0.0613
12994TIP3   OH260472   3.484   1.818  12.830  0.3000  0.1416 -0.1865
12994TIP3    H160473   3.404   1.788  12.787 -0.4326 -1.0045  1.8445
12994TIP3    H260474   3.478   1.784  12.919  1.5227  2.7982  1.0227
12995TIP3   OH260475   0.108   0.650  15.381 -0.3597 -0.0760  0.5130
12995TIP3    H160476   0.091   0.715  15.313  0.3605  0.0993  0.4991
12995TIP3    H260477   0.201   0.658  15.400 -0.2610 -1.1125  0.5163
12996TIP3   OH260478   5.164   4.465   6.378  0.0967  0.2308  0.1797
12996TIP3    H160479   5.176   4.420   6.295  0.1171  0.2374  0.1791
12996TIP3    H260480   5.145   4.556   6.353 -1.7093 -0.1145  0.1166
12997TIP3   OH260481   1.359   5.737  13.021  0.1440  0.6509 -0.1106
12997TIP3    H160482   1.320   5.758  13.106 -0.1947 -0.0785 -0.0744
12997TIP3    H260483   1.284   5.713  12.966  0.4427  0.2503 -0.3494
12998TIP3   OH260484   4.661   6.582   1.321 -0.5225 -0.4497 -0.3495
12998TIP3    H160485   4.630   6.557   1.234  0.1276 -0.3188 -0.6278
12998TIP3    H260486   4.604   6.535   1.382  0.1584 -1.9717 -0.8472
12999TIP3   OH260487   0.025   1.375   0.036 -0.7198  0.2579 -0.1351
12999TIP3    H160488  -0.026   1.400   0.112  0.6582  0.7189  0.6735
12999TIP3    H260489  -0.016   1.421  -0.037 -2.2606 -0.4562  0.2533
13000TIP3   OH260490   5.967   0.826   5.928 -0.4754  0.3712  0.1630
13000TIP3    H160491   5.998   0.815   6.018 -1.2658  0.0540  0.4078
13000TIP3    H260492   5.876   0.856   5.937 -0.6082  0.2028 -0.5273
13001TIP3   OH260493   0.715   1.678   1.092 -0.5344  0.0290  0.7275
13001TIP3    H160494   0.737   1.605   1.149 -1.6338 -1.7418 -0.9698
13001TIP3    H260495   0.629   1.707   1.122 -1.0092 -0.7482  0.1450
13002TIP3   OH260496   3.803   1.531  16.072 -0.4912 -0.3637 -0.2515
13002TIP3    H160497   3.786   1.588  16.148 -0.0913  0.3509 -0.6925
13002TIP3    H260498   3.852   1.586  16.011 -1.9780 -0.4817 -1.6357
13003TIP3   OH260499   1.202   0.069   5.016 -0.2240  0.0420 -0.5895
13003TIP3    H160500   1.258   0.065   5.094 -1.9674  0.0313  0.7455
13003TIP3    H260501   1.221  -0.012   4.969 -0.2814 -0.7529  0.7003
13004TIP3   OH260502   3.549   4.864   6.367  0.0672 -0.0287 -0.1711
13004TIP3    H160503   3.602   4.854   6.289 -0.1039  1.3502 -0.4904
13004TIP3    H260504   3.466   4.820   6.346 -0.0229  0.4367 -0.8223
13005TIP3   OH260505   3.943   6.196   2.766  0.3753 -0.2885 -0.0566
13005TIP3    H160506   3.974   6.126   2.708  1.1854  0.5210 -0.6185
13005TIP3    H260507   4.020   6.220   2.817  0.1693  0.3886 -0.0612
13006TIP3   OH260508   1.978   6.003   4.435  0.0813  0.2187  0.1529
13006TIP3    H160509   1.916   5.932   4.415  0.9849 -1.1884  2.0326
13006TIP3    H260510   2.045   5.996   4.367  0.5220 -1.2175  0.6972
13007TIP3   OH260511   0.613   4.432   3.423  0.4205  0.4740 -0.4718
13007TIP3    H160512   0.592   4.342   3.447  0.3711  0.3361 -1.0132
13007TIP3    H260513   0.533   4.482   3.440  0.1884  0.2645 -0.9293
13008TIP3   OH260514   5.187   4.173  11.096  0.6531  0.1043 -0.4146
13008TIP3    H160515   5.271   4.154  11.056  0.7576 -1.6891  0.5487
13008TIP3    H260516   5.196   4.141  11.186 -1.0897 -0.2502 -0.3353
13009TIP3   OH260517   4.107   4.338   6.006 -0.4817 -0.0239 -0.2040
13009TIP3    H160518   4.017   4.311   6.023 -0.5482  1.2427  1.9094
13009TIP3    H260519   4.099   4.418   5.954 -0.7554  1.3933  1.8941
13010TIP3   OH260520   2.065   5.318  12.357  0.3268 -0.1369  0.0277
13010TIP3    H160521   2.133   5.370  12.399  2.3697 -2.3259 -0.3811
13010TIP3    H260522   2.010   5.287  12.430  0.2575  0.9223  0.4448
13011TIP3   OH260523   5.817   0.504  16.801  0.4033  0.3486 -0.4493
13011TIP3    H160524   5.800   0.482  16.893 -1.8926  0.1228 -0.8487
13011TIP3    H260525   5.803   0.422  16.754  1.5265  0.4742 -1.0169
13012TIP3   OH260526   3.347   3.947   0.233  0.0582 -0.9118  0.6797
13012TIP3    H160527   3.263   3.928   0.274 -0.1554 -1.4683  0.0033
13012TIP3    H260528   3.402   3.980   0.304 -1.3274  1.4239  0.7530
13013TIP3   OH260529   2.018   1.723   4.259  0.3808  0.3862 -0.2745
13013TIP3    H160530   1.936   1.737   4.212  0.7051  0.1516 -0.9239
13013TIP3    H260531   2.069   1.803   4.243 -0.4307  1.3783  1.6954
13014TIP3   OH260532   5.637   1.845  16.913  0.0504  0.0761 -0.0429
13014TIP3    H160533   5.578   1.787  16.962  1.0232 -1.8540 -1.0088
13014TIP3    H260534   5.596   1.931  16.917 -2.3425 -0.9939  0.0921
13015TIP3   OH260535   3.376   3.678   1.528 -0.3509 -0.0961  0.7431
13015TIP3    H160536   3.433   3.734   1.581  0.3158  1.6875 -1.7082
13015TIP3    H260537   3.287   3.701   1.557  0.0018 -0.6497  2.4201
13016TIP3   OH260538   4.863   3.044  15.955  0.2646 -0.2146  0.3418
13016TIP3    H160539   4.840   3.033  16.047 -0.4265  0.0513  0.2037
13016TIP3    H260540   4.929   3.113  15.954 -1.4642  1.5237  0.4290
13017TIP3   OH260541   1.205   3.526   4.936  0.3368 -0.3404  0.3984
13017TIP3    H160542   1.212   3.485   4.850 -0.3715  0.9424 -0.3036
13017TIP3    H260543   1.116   3.560   4.940  0.6563  0.4595  1.2318
13018TIP3   OH260544   6.189   0.410  16.650 -0.3857 -0.1471  0.4405
13018TIP3    H160545   6.193   0.503  16.671 -0.2657 -0.3469  1.3646
13018TIP3    H260546   6.141   0.405  16.568 -1.2124  0.6573  0.8648
13019TIP3   OH260547   0.774   6.073   1.285 -0.1572  0.3086 -0.1986
13019TIP3    H160548   0.819   6.091   1.202  0.4257  0.8293  0.2135
13019TIP3    H260549   0.834   6.015   1.332 -1.1240 -1.1561 -0.6944
13020TIP3   OH260550   0.912   0.972   2.606 -0.1197  0.1526  0.1329
13020TIP3    H160551   0.856   1.036   2.648  1.6176  0.6219  1.8924
13020TIP3    H260552   0.860   0.892   2.602 -0.8782  0.5272  1.8399
13021TIP3   OH260553   0.488   2.339   6.222 -0.0653  0.4466 -0.0533
13021TIP3    H160554   0.446   2.409   6.172 -1.1953  0.6932  1.1857
13021TIP3    H260555   0.464   2.259   6.174 -1.0480  0.6852  0.0235
13022TIP3   OH260556   6.500   4.214  13.414 -0.5599  0.4034  0.3211
13022TIP3    H160557   6.455   4.188  13.334  1.5354 -0.1872 -0.7380
13022TIP3    H260558   6.480   4.144  13.477 -0.7897 -0.0433 -0.2445
13023TIP3   OH260559   5.062   0.704   5.045 -0.2157  0.1213 -0.4671
13023TIP3    H160560   5.100   0.784   5.082 -0.5149  0.2845 -0.5088
13023TIP3    H260561   5.131   0.667   4.991 -0.3247  0.7504 -1.0463
13024TIP3   OH260562   1.157   6.503  12.013 -0.1366 -0.3413 -0.1966
13024TIP3    H160563   1.246   6.470  11.997 -0.6790 -1.5586 -0.8317
13024TIP3    H260564   1.122   6.446  12.081 -0.0432  0.8916  0.9305
13025TIP3   OH260565   3.365   6.394   1.616 -0.4359 -0.3458 -0.1533
13025TIP3    H160566   3.358   6.360   1.705  1.1042 -1.6827 -0.4957
13025TIP3    H260567   3.363   6.316   1.560  0.4647  0.3155 -1.1555
13026TIP3   OH260568   3.186   2.764  13.582  0.0548 -0.0620 -0.0014
13026TIP3    H160569   3.132   2.768  13.660 -1.4709 -1.6061 -0.9163
13026TIP3    H260570   3.193   2.671  13.561 -0.8404  0.3586 -2.5161
13027TIP3   OH260571   0.442   1.662  16.253  0.3853 -0.1346 -0.1149
13027TIP3    H160572   0.481   1.616  16.328  1.3334  0.7125 -0.0680
13027TIP3    H260573   0.421   1.749  16.287 -1.6583 -0.5771 -0.1208
13028TIP3   OH260574   2.916   1.380   1.043  0.1869 -0.7358  0.3623
13028TIP3    H160575   2.888   1.308   0.986 -1.1739 -0.5975  0.8052
13028TIP3    H260576   3.004   1.401   1.014 -0.5748 -0.4414 -1.9458
13029TIP3   OH260577   5.609   0.592  14.206  0.1009 -0.4407 -0.4009
13029TIP3    H160578   5.636   0.508  14.243 -1.2016  0.5897  3.2910
13029TIP3    H260579   5.551   0.569  14.133 -0.1222 -2.7589  0.4268
13030TIP3   OH260580   5.204   0.219  15.528  0.1311  0.4099 -0.9478
13030TIP3    H160581   5.180   0.312  15.529 -0.8086  0.1754 -0.1613
13030TIP3    H260582   5.155   0.180  15.601 -0.0078 -0.8205 -1.6583
13031TIP3   OH260583   1.389   5.178   0.223  0.1138 -0.1542  0.4193
13031TIP3    H160584   1.367   5.262   0.265 -3.4573 -1.2554  1.1455
13031TIP3    H260585   1.334   5.176   0.145  2.5593 -0.5409 -1.3861
13032TIP3   OH260586   4.087   4.083  16.862 -0.0941  0.0965  0.3390
13032TIP3    H160587   4.045   4.047  16.784  1.5654  0.5129 -0.8059
13032TIP3    H260588   4.162   4.026  16.877  1.3344  1.7376 -0.2269
13033TIP3   OH260589   5.628   3.044   5.609 -0.7892 -0.6721  0.1166
13033TIP3    H160590   5.632   3.096   5.690 -3.0631 -0.0033 -0.1382
13033TIP3    H260591   5.640   2.954   5.638 -1.1017 -0.3973  1.1542
13034TIP3   OH260592   1.062   1.301   6.292  0.2136 -0.3125  0.0992
13034TIP3    H160593   1.155   1.321   6.281  0.1791 -0.0688  0.2432
13034TIP3    H260594   1.041   1.333   6.380 -0.3119  0.8053 -0.4098
13035TIP3   OH260595   4.227   5.190   2.793 -0.1130  0.4440 -0.4055
13035TIP3    H160596   4.263   5.266   2.747  1.0966 -0.1711 -0.5216
13035TIP3    H260597   4.299   5.160   2.849 -1.2620  0.6429  1.2592
13036TIP3   OH260598   6.498   6.594  16.104 -0.1941  0.7975  0.2168
13036TIP3    H160599   6.448   6.669  16.134 -1.0069  0.5830 -0.5616
13036TIP3    H260600   6.459   6.572  16.019  0.9599  0.3844 -0.2255
13037TIP3   OH260601   6.298   1.380  16.581 -0.2136 -0.2258 -0.1167
13037TIP3    H160602   6.380   1.418  16.549 -0.8589  1.7647  0.4395
13037TIP3    H260603   6.277   1.312  16.518  1.3461 -0.1006 -0.8277
13038TIP3   OH260604   2.468   5.564  14.163 -0.0814  0.5989 -0.0487
13038TIP3    H160605   2.420   5.482  14.172  0.0495  0.5588  0.3080
13038TIP3    H260606   2.406   5.631  14.190 -1.4704  1.0435 -3.7188
13039TIP3   OH260607   5.568   0.738  14.940  0.3799 -0.1899  0.0154
13039TIP3    H160608   5.551   0.682  15.016 -1.7952  0.7029  0.2402
13039TIP3    H260609   5.628   0.686  14.886  0.0445 -1.8737  1.1784
13040TIP3   OH260610   3.241   3.725  16.919 -0.1098 -0.5854  0.5978
13040TIP3    H160611   3.170   3.737  16.856  0.4669  1.6203  0.2885
13040TIP3    H260612   3.206   3.664  16.983 -1.2350 -1.7897 -1.0681
13041TIP3   OH260613   4.973   4.703   1.740  0.1323  0.1073 -0.3521
13041TIP3    H160614   5.026   4.775   1.773  0.7615 -0.1971 -0.6743
13041TIP3    H260615   4.911   4.744   1.679 -0.4789  0.5567  0.5490
13042TIP3   OH260616   2.183   4.364  12.204  0.2153 -0.7614 -0.0415
13042TIP3    H160617   2.175   4.302  12.132  1.5566 -0.2383 -0.6714
13042TIP3    H260618   2.127   4.437  12.180 -0.9210 -1.4410  0.4326
13043TIP3   OH260619   5.853   4.420   4.592  0.1319 -0.0901  0.2199
13043TIP3    H160620   5.794   4.376   4.652 -0.0319 -0.5948 -0.2991
13043TIP3    H260621   5.847   4.513   4.615 -0.2692 -0.2272  0.6750
13044TIP3   OH260622   4.762   4.731   5.763  0.2341 -0.1686  0.1822
13044TIP3    H160623   4.721   4.782   5.832 -0.6643 -0.7924  0.1234
13044TIP3    H260624   4.856   4.744   5.776  0.0726 -0.0899  1.3789
13045TIP3   OH260625   3.290   2.988  14.810 -0.2758 -0.1027  0.1554
13045TIP3    H160626   3.197   2.984  14.830 -0.5137 -1.8215 -0.9992
13045TIP3    H260627   3.309   3.081  14.797 -2.5637  0.1143 -2.6515
13046TIP3   OH260628   3.226   1.398  13.356  0.1345 -0.4566 -0.2015
13046TIP3    H160629   3.282   1.455  13.302 -0.3055  0.7735  0.5915
13046TIP3    H260630   3.148   1.450  13.372  1.1902  0.2818  3.5736
13047TIP3   OH260631   2.064   3.412   2.484  0.0717 -0.6568  0.4956
13047TIP3    H160632   2.123   3.486   2.492 -1.0198  0.4311 -0.9221
13047TIP3    H260633   1.985   3.449   2.444  0.6005 -3.0352 -3.3196
13048TIP3   OH260634   0.621   6.709  13.034 -0.1821 -0.4418  0.7496
13048TIP3    H160635   0.648   6.659  12.957  1.9365 -0.4976  1.4665
13048TIP3    H260636   0.609   6.798  13.002  0.6382 -0.4728  0.3208
13049TIP3   OH260637   0.276   2.978   1.878 -0.2428 -0.1317 -0.6148
13049TIP3    H160638   0.337   3.038   1.920 -1.2434 -0.9188  2.1735
13049TIP3    H260639   0.233   3.031   1.811  0.4940  1.6227  0.2332
13050TIP3   OH260640   6.641   5.903   4.647  0.0447  0.4112  0.0762
13050TIP3    H160641   6.709   5.951   4.694 -0.6019  3.3427 -1.6675
13050TIP3    H260642   6.688   5.843   4.589  1.1065  1.3272 -0.0364
13051TIP3   OH260643   1.455   1.373  16.334 -0.3529  0.2319 -0.0992
13051TIP3    H160644   1.447   1.449  16.392 -0.5986  0.3923 -0.3407
13051TIP3    H260645   1.417   1.301  16.384  2.1547 -0.3193  1.1747
13052TIP3   OH260646   0.750   5.564  13.517 -0.2189  0.5996  0.6243
13052TIP3    H160647   0.692   5.521  13.455  2.4405 -2.4011 -0.0556
13052TIP3    H260648   0.745   5.657  13.495 -0.4148 -0.1903 -3.2485
13053TIP3   OH260649   2.256   6.708  14.940 -0.3544  0.4132 -0.1621
13053TIP3    H160650   2.251   6.769  15.013 -0.4721 -0.0250  0.2005
13053TIP3    H260651   2.347   6.713  14.911 -0.6602  1.7151 -0.9759
13054TIP3   OH260652   2.350   1.352  14.939 -0.1454 -0.0363 -0.0795
13054TIP3    H160653   2.398   1.400  15.006 -1.3552  0.0917  0.7455
13054TIP3    H260654   2.282   1.413  14.910 -1.6660 -1.1748  0.9309
13055TIP3   OH260655   2.375   5.040   0.429 -1.0329  0.0744  0.5070
13055TIP3    H160656   2.385   5.079   0.342  1.8707 -1.2111  0.1414
13055TIP3    H260657   2.355   4.948   0.412  1.4354 -0.6372  1.0470
13056TIP3   OH260658   4.392   0.215  13.129 -0.8371  0.1485  0.1259
13056TIP3    H160659   4.460   0.150  13.142 -0.5161  0.4663  0.0456
13056TIP3    H260660   4.408   0.251  13.042 -0.8061  0.5722  0.3038
13057TIP3   OH260661   3.521   4.689  12.154 -0.0929 -0.0605  0.4905
13057TIP3    H160662   3.486   4.632  12.086  0.3627 -0.5482  0.6545
13057TIP3    H260663   3.449   4.698  12.217 -0.1415 -0.5383  0.5106
13058TIP3   OH260664   5.927   0.543  12.819 -0.1957  0.5211 -0.1708
13058TIP3    H160665   5.890   0.574  12.736 -0.3880 -0.1939 -0.3557
13058TIP3    H260666   5.928   0.448  12.811 -0.1141  0.4506  0.6082
13059TIP3   OH260667   2.662   4.931  12.842  0.0061  0.2202 -0.1033
13059TIP3    H160668   2.723   4.906  12.772  0.4367  0.2931  0.2420
13059TIP3    H260669   2.641   4.848  12.885 -1.4974 -0.0575 -1.2873
13060TIP3   OH260670   3.795   1.766   1.541 -0.2306  0.0376 -0.1790
13060TIP3    H160671   3.729   1.752   1.609 -2.0029  1.3671 -1.5250
13060TIP3    H260672   3.806   1.861   1.537  1.4080 -0.1279 -0.3687
13061TIP3   OH260673   1.084   1.076  16.655  0.4694 -0.0077 -0.2249
13061TIP3    H160674   1.058   0.996  16.609 -5.4145  2.2299 -1.7634
13061TIP3    H260675   1.116   1.135  16.587 -1.2890  0.8828 -0.3527
13062TIP3   OH260676   1.089   6.008   5.542 -0.2570 -0.0757 -0.3950
13062TIP3    H160677   0.996   6.013   5.567 -0.1881  0.5235 -0.2686
13062TIP3    H260678   1.093   5.930   5.485 -0.5815 -0.8960  0.6663
13063TIP3   OH260679   2.193   6.524   0.684  0.3856 -0.0593  0.1052
13063TIP3    H160680   2.251   6.515   0.760 -0.1079  1.2790  0.6739
13063TIP3    H260681   2.177   6.618   0.678 -0.0565 -0.2148 -1.3177
13064TIP3   OH260682   3.097   4.080  13.684 -0.4039  0.3517  0.2143
13064TIP3    H160683   3.107   4.153  13.624  0.9218  0.1523  0.1657
13064TIP3    H260684   3.146   4.107  13.763 -2.3601  0.7481  1.3565
13065TIP3   OH260685   6.126   4.666   2.026  0.4760 -0.6840  0.4145
13065TIP3    H160686   6.094   4.588   1.981  0.7504  0.0605 -1.1748
13065TIP3    H260687   6.053   4.695   2.080 -1.0932  0.0908 -1.9344
13066TIP3   OH260688   2.827   4.810  10.871  0.2588 -0.0584  0.2673
13066TIP3    H160689   2.886   4.735  10.875  1.0935  0.5454 -0.3405
13066TIP3    H260690   2.750   4.778  10.824  1.7662  0.1607 -2.5550
13067TIP3   OH260691   5.045   0.072  14.536  0.3425  0.5198 -0.0929
13067TIP3    H160692   5.034  -0.023  14.539  1.8272  0.3421  0.4043
13067TIP3    H260693   5.029   0.101  14.626 -0.5587  0.8075 -0.3382
13068TIP3   OH260694   4.276   4.038   3.445 -0.4308  0.6046  0.2974
13068TIP3    H160695   4.312   3.974   3.384 -1.0984 -1.2421  1.7357
13068TIP3    H260696   4.344   4.106   3.451  1.0659 -0.7906 -0.0363
13069TIP3   OH260697   4.440   4.465  14.158 -0.4403  0.3811  0.0814
13069TIP3    H160698   4.450   4.461  14.063  1.1927  3.0101  0.0148
13069TIP3    H260699   4.525   4.497  14.190 -0.5549 -1.4579  2.5844
13070TIP3   OH260700   0.245   1.717   0.772 -0.0447 -0.0707 -0.0219
13070TIP3    H160701   0.158   1.681   0.789  0.6109 -1.6389  0.0918
13070TIP3    H260702   0.282   1.662   0.704  0.6183  0.9969 -0.5513
13071TIP3   OH260703   4.846   1.515   3.285 -0.0389 -0.1505 -0.4747
13071TIP3    H160704   4.884   1.453   3.347 -2.1776 -0.6385  0.4557
13071TIP3    H260705   4.888   1.598   3.306 -0.7078 -0.2865  1.7285
13072TIP3   OH260706   1.650   4.775   5.203 -0.1255 -0.1509  0.2580
13072TIP3    H160707   1.667   4.708   5.137  0.6731  0.3643 -0.0755
13072TIP3    H260708   1.731   4.780   5.254 -0.2657  0.3886  0.4362
13073TIP3   OH260709   1.369   6.287   2.942  0.2206  0.2145 -0.3400
13073TIP3    H160710   1.357   6.336   2.861 -2.7001  1.0574  0.4816
13073TIP3    H260711   1.335   6.344   3.011  1.3197 -1.0325  1.3404
13074TIP3   OH260712   0.501   6.714  15.436 -0.6890  0.0102 -0.3653
13074TIP3    H160713   0.481   6.678  15.523 -2.0063 -1.5866 -1.2560
13074TIP3    H260714   0.595   6.730  15.437 -0.8531  1.1767  1.7297
13075TIP3   OH260715   5.815   3.606  16.579 -0.1180 -0.1350 -0.5642
13075TIP3    H160716   5.855   3.586  16.663  0.5090  1.4896 -0.4410
13075TIP3    H260717   5.728   3.568  16.584  0.9705 -2.8349 -0.4316
13076TIP3   OH260718   6.176   1.159   2.811 -0.2502 -0.0390  0.6839
13076TIP3    H160719   6.257   1.164   2.862  0.2195 -2.5738  0.2733
13076TIP3    H260720   6.203   1.176   2.721 -0.6483  1.7207  0.8581
13077TIP3   OH260721   1.667   2.533   1.531  0.5707 -0.1970  0.1475
13077TIP3    H160722   1.746   2.488   1.502  0.6793  1.1981 -1.9128
13077TIP3    H260723   1.617   2.548   1.450 -0.3610  1.6099  1.0018
13078TIP3   OH260724   0.211   6.515  16.943 -0.7603  0.4113  0.1929
13078TIP3    H160725   0.203   6.596  16.893 -2.8057 -0.5885 -1.2714
13078TIP3    H260726   0.186   6.447  16.881  0.1476 -1.2781  1.5997
13079TIP3   OH260727   4.131   3.106  15.278  0.0830 -0.7202 -0.2932
13079TIP3    H160728   4.097   3.058  15.203 -1.1703 -1.7580  0.8961
13079TIP3    H260729   4.217   3.068  15.295  0.7203  0.0580 -1.6513
13080TIP3   OH260730   0.222   2.069   1.272  0.4383  0.4585 -0.0115
13080TIP3    H160731   0.137   2.079   1.313  0.2408 -0.2015 -0.2378
13080TIP3    H260732   0.209   2.098   1.181 -0.3138 -2.2065 -0.8670
13081TIP3   OH260733   5.314   0.742  16.023 -0.2302 -0.1004  0.2390
13081TIP3    H160734   5.339   0.674  15.961 -0.4415  1.3335 -1.5192
13081TIP3    H260735   5.236   0.782  15.985  0.7964  2.1597  0.3249
13082TIP3   OH260736   1.151   6.728  11.688  0.2249  0.0957  0.9330
13082TIP3    H160737   1.104   6.708  11.607 -1.0115  3.1510  0.7603
13082TIP3    H260738   1.242   6.703  11.669  0.1612  1.5180 -1.7726
13083TIP3   OH260739   2.707   3.820   2.308 -0.2357 -0.2365  0.4650
13083TIP3    H160740   2.678   3.729   2.310  1.5390 -0.8413  0.0712
13083TIP3    H260741   2.774   3.825   2.376 -0.7529  0.9526  0.9088
13084TIP3   OH260742   1.905   2.664   4.335  0.0144  0.2864 -0.0722
13084TIP3    H160743   1.906   2.717   4.255 -0.4922 -0.5182 -0.6297
13084TIP3    H260744   1.816   2.630   4.340 -0.5245  1.8150  1.8665
13085TIP3   OH260745   4.575   5.570   2.342 -0.1189 -0.2412 -1.1016
13085TIP3    H160746   4.524   5.650   2.330  2.0602  1.2914 -0.7639
13085TIP3    H260747   4.529   5.522   2.411  0.3388  2.4620  1.2915
13086TIP3   OH260748   0.944   4.643   3.193 -0.2981  0.3508 -0.0095
13086TIP3    H160749   1.001   4.580   3.149  0.0895 -0.2155  1.2302
13086TIP3    H260750   1.005   4.703   3.237 -0.6652  1.3405 -0.8234
13087TIP3   OH260751   6.032   0.565   4.657  0.4077 -0.3329 -0.1225
13087TIP3    H160752   6.126   0.580   4.643  0.3353 -0.2764 -0.5491
13087TIP3    H260753   6.000   0.531   4.574  0.2572 -1.4130  0.3663
13088TIP3   OH260754   2.753   6.643  14.247  1.1584 -0.2763  0.3578
13088TIP3    H160755   2.780   6.709  14.311 -0.4843 -0.7743  1.6717
13088TIP3    H260756   2.831   6.591  14.231  1.7511  0.2017  1.5836
13089TIP3   OH260757   1.250   5.716   2.927  0.5123  0.1311  0.3493
13089TIP3    H160758   1.182   5.747   2.868  0.1747  0.3131  0.8198
13089TIP3    H260759   1.332   5.733   2.881  0.2694  0.5432  0.0592
13090TIP3   OH260760   4.934   6.429  12.197 -0.2030 -1.0783  0.1099
13090TIP3    H160761   4.980   6.472  12.269  0.5443  0.5892 -1.2930
13090TIP3    H260762   4.968   6.339  12.197  1.8631 -0.3538  0.1546
13091TIP3   OH260763   4.928   5.482  14.515 -0.0462 -0.4280 -0.2861
13091TIP3    H160764   4.854   5.434  14.478 -0.3678 -1.5866  1.7087
13091TIP3    H260765   4.902   5.573  14.512 -0.0089 -0.4436 -2.9010
13092TIP3   OH260766   0.231   3.496   5.311  0.0645  0.4696  0.0681
13092TIP3    H160767   0.244   3.438   5.386  1.0519  0.5447 -0.0342
13092TIP3    H260768   0.316   3.497   5.266 -0.0701  1.6235 -0.1959
13093TIP3   OH260769   1.456   6.024   5.973  0.1165  0.0285  0.0241
13093TIP3    H160770   1.514   6.063   5.908 -0.9874  2.7247  0.4998
13093TIP3    H260771   1.438   5.936   5.940  2.2200  0.1184 -1.5395
13094TIP3   OH260772   3.644   1.754   1.775 -0.6780  0.0425 -0.2832
13094TIP3    H160773   3.639   1.668   1.816 -0.8584 -1.5853 -3.4299
13094TIP3    H260774   3.565   1.761   1.722 -0.2659  1.7842 -0.7449
13095TIP3   OH260775   1.784   0.086   1.109 -0.5883  0.3707  0.2627
13095TIP3    H160776   1.825   0.171   1.125  0.0800  0.4754 -1.7294
13095TIP3    H260777   1.857   0.025   1.105 -0.9062  0.0061 -0.0467
13096TIP3   OH260778   3.775   2.187  12.895  0.4732  0.2143  0.4140
13096TIP3    H160779   3.785   2.092  12.888  1.2778  0.3943 -1.7422
13096TIP3    H260780   3.779   2.218  12.804 -1.8963  2.1323  0.8489
13097TIP3   OH260781   5.986   2.759   0.429  0.2950  0.3858 -0.5023
13097TIP3    H160782   6.012   2.667   0.431 -0.5651  0.1423  0.6884
13097TIP3    H260783   5.900   2.759   0.387  0.3335  0.6483 -0.5810
13098TIP3   OH260784   4.026   6.340  11.236  0.0950  0.9830  0.5379
13098TIP3    H160785   4.069   6.417  11.273  0.1577  1.0522  0.3225
13098TIP3    H260786   3.985   6.372  11.155  1.5049  0.4455 -0.4297
13099TIP3   OH260787   6.720   6.737  11.994 -0.2388 -0.3648 -0.4543
13099TIP3    H160788   6.700   6.830  12.003  0.1429 -0.4496  2.2205
13099TIP3    H260789   6.812   6.730  12.021 -0.6582 -1.6420  0.7737
13100TIP3   OH260790   5.633   0.733   1.619 -0.1651 -0.2095 -0.2107
13100TIP3    H160791   5.691   0.716   1.545  0.4661 -0.5899  0.3568
13100TIP3    H260792   5.639   0.828   1.632 -0.2776 -0.1401 -0.6372
13101TIP3   OH260793   2.899   1.803   1.785  0.7149  0.1291 -0.0774
13101TIP3    H160794   2.944   1.800   1.870  1.3369  0.9279 -0.3683
13101TIP3    H260795   2.850   1.885   1.786  1.1964  0.4368 -0.7156
13102TIP3   OH260796   1.319   5.161   3.715 -0.2956  0.0113  0.3840
13102TIP3    H160797   1.325   5.247   3.674  0.9351 -0.8516 -1.4022
13102TIP3    H260798   1.354   5.174   3.804  0.2638  1.2701  0.0011
13103TIP3   OH260799   2.884   6.359   3.437  0.0627 -0.0764  0.5836
13103TIP3    H160800   2.942   6.333   3.508  0.2572 -0.5650  0.2564
13103TIP3    H260801   2.802   6.381   3.480 -0.1842 -1.4595  0.8785
13104TIP3   OH260802   3.265   4.285   0.735  0.1034 -0.0373  0.0003
13104TIP3    H160803   3.330   4.354   0.723 -1.1798  1.6617  2.0085
13104TIP3    H260804   3.258   4.275   0.830  0.0318 -2.8096 -0.2145
13105TIP3   OH260805   2.710   3.213  11.498 -0.9857  0.6037  0.0462
13105TIP3    H160806   2.744   3.301  11.510  0.1838  0.2298 -0.3508
13105TIP3    H260807   2.668   3.214  11.412  0.0267  0.5090 -0.4775
13106TIP3   OH260808   0.477   4.404   4.872 -0.6199 -0.4271  0.1217
13106TIP3    H160809   0.487   4.455   4.953 -1.4582  2.9550 -1.7035
13106TIP3    H260810   0.402   4.347   4.890 -0.1862 -0.4710  2.0315
13107TIP3   OH260811   3.049   0.429   1.261 -0.2085  0.8945  0.1678
13107TIP3    H160812   3.060   0.420   1.355 -0.2890  0.7140  0.1604
13107TIP3    H260813   3.048   0.339   1.228 -1.1779  0.9261  0.1066
13108TIP3   OH260814   2.373   3.802  10.826  0.7628  0.0461 -0.0791
13108TIP3    H160815   2.345   3.728  10.772  1.8365 -0.0094 -0.5796
13108TIP3    H260816   2.393   3.871  10.762  0.5971  0.4828  0.3349
13109TIP3   OH260817   5.762   5.335   0.358  0.9946  0.4427  0.1432
13109TIP3    H160818   5.739   5.427   0.346  0.2607  0.1572 -0.6837
13109TIP3    H260819   5.689   5.286   0.319  0.2300 -0.5201  2.5571
13110TIP3   OH260820   1.458   5.489  13.756  0.2142  0.1984 -0.0685
13110TIP3    H160821   1.517   5.518  13.686 -0.7057  1.7041 -0.2692
13110TIP3    H260822   1.417   5.410  13.722  0.7963  0.1386 -0.6511
13111TIP3   OH260823   4.263   4.171   5.081 -1.1339  0.3920 -0.1133
13111TIP3    H160824   4.191   4.221   5.118 -1.0858 -1.3311  2.6011
13111TIP3    H260825   4.263   4.089   5.131  1.0855 -0.7360 -1.8000
13112TIP3   OH260826   4.155   0.502  16.155  0.1370  0.4529  0.4885
13112TIP3    H160827   4.159   0.585  16.202 -0.0242  0.8812 -0.2494
13112TIP3    H260828   4.088   0.451  16.201 -1.0256  1.3969 -0.1125
13113TIP3   OH260829   0.682   1.616   4.825  0.1545 -0.0648  0.6854
13113TIP3    H160830   0.739   1.555   4.778  2.3180  1.7275  0.8340
13113TIP3    H260831   0.639   1.563   4.892  0.6629 -1.7214 -0.2628
13114TIP3   OH260832   4.785   1.128  12.091  0.0578 -0.2053 -0.1258
13114TIP3    H160833   4.773   1.034  12.077  0.6137 -0.6328  1.9261
13114TIP3    H260834   4.731   1.148  12.169 -0.2074  1.2231 -0.6385
13115TIP3   OH260835   3.852   5.336  14.260 -0.3648  0.3265 -0.1373
13115TIP3    H160836   3.789   5.346  14.189 -1.1302  0.3627  0.5345
13115TIP3    H260837   3.849   5.243  14.282 -0.5908  0.4292  0.2677
13116TIP3   OH260838   3.236   2.971  12.266 -0.2856 -0.0499 -0.0193
13116TIP3    H160839   3.249   3.035  12.196 -0.9108 -0.2842 -0.3576
13116TIP3    H260840   3.197   3.021  12.337  0.7820  0.2891  0.3549
13117TIP3   OH260841   0.948   5.945  14.285  0.2546  0.0183  0.1946
13117TIP3    H160842   0.916   5.904  14.204  2.0230 -1.1170  0.0152
13117TIP3    H260843   0.975   6.033  14.258 -2.4509  0.9931  0.3376
13118TIP3   OH260844   4.075   0.206   4.997  0.3817 -0.2323  0.2352
13118TIP3    H160845   4.114   0.273   5.054  0.9965 -0.4553  0.0786
13118TIP3    H260846   4.126   0.127   5.014  0.7929 -0.2188 -0.8801
13119TIP3   OH260847   0.266   6.023  15.888  0.4736  0.1646 -0.2757
13119TIP3    H160848   0.327   6.041  15.959  0.2901 -1.4641  0.3275
13119TIP3    H260849   0.320   6.024  15.809  1.1215 -0.3947  0.1571
13120TIP3   OH260850   4.831   6.789   1.286  0.3348  0.2450  0.0706
13120TIP3    H160851   4.772   6.715   1.298  0.0860  0.2839 -0.8563
13120TIP3    H260852   4.788   6.861   1.332  0.2824 -0.0341  0.4632
13121TIP3   OH260853   4.438   2.740   0.686  0.2616 -0.3481  0.5194
13121TIP3    H160854   4.474   2.758   0.598  1.0957 -1.9219  0.4938
13121TIP3    H260855   4.343   2.738   0.673  0.3650 -0.4061 -0.3313
13122TIP3   OH260856   1.116   6.589   2.790 -0.2151  0.4205  0.1785
13122TIP3    H160857   1.059   6.589   2.713 -0.5149 -1.6131  0.3323
13122TIP3    H260858   1.186   6.527   2.769 -1.6955 -2.2605  2.3820
13123TIP3   OH260859   4.410   0.374  13.862  0.1149 -0.4023 -0.2063
13123TIP3    H160860   4.348   0.325  13.916 -1.1838  1.8306  0.4439
13123TIP3    H260861   4.362   0.395  13.783 -0.1055  1.5594  0.4044
13124TIP3   OH260862   1.296   1.789  13.120 -0.2513  0.1293  0.1122
13124TIP3    H160863   1.372   1.806  13.064  0.4467 -1.3499  0.5465
13124TIP3    H260864   1.327   1.723  13.183 -1.8523 -0.4167  0.3856
13125TIP3   OH260865   1.805   3.093   1.139  0.4309 -0.1354 -0.7824
13125TIP3    H160866   1.766   3.097   1.051  0.9904 -0.6985 -1.0684
13125TIP3    H260867   1.859   3.172   1.144 -0.7848  0.6843 -0.3540
13126TIP3   OH260868   1.675   1.080   4.041 -0.0838 -0.1170  0.2529
13126TIP3    H160869   1.668   0.994   4.083 -1.1178  0.2342  0.8635
13126TIP3    H260870   1.698   1.061   3.950 -0.0117 -1.0271  0.4528
13127TIP3   OH260871   0.982   2.746  15.585  0.5443 -0.2097  0.0909
13127TIP3    H160872   0.988   2.839  15.605 -1.6029  0.3262 -1.3965
13127TIP3    H260873   0.984   2.741  15.490 -4.3370 -1.0177 -0.2303
13128TIP3   OH260874   5.541   1.967   5.842 -0.0401  0.0463 -0.7340
13128TIP3    H160875   5.551   1.998   5.751 -1.3957  0.5935 -0.7179
13128TIP3    H260876   5.448   1.979   5.861 -0.0699 -1.5365  0.2200
13129TIP3   OH260877   3.029   1.454  11.999  0.8180  0.8422 -0.4406
13129TIP3    H160878   3.027   1.389  12.069  0.2036  1.1442 -0.1703
13129TIP3    H260879   3.121   1.459  11.973  0.5824 -2.1750 -2.3883
13130TIP3   OH260880   1.508   5.552  11.701  0.2358 -0.7195  0.6007
13130TIP3    H160881   1.603   5.566  11.694  0.0131  0.2336 -1.1658
13130TIP3    H260882   1.500   5.462  11.732  1.7371 -1.2250 -0.3343
13131TIP3   OH260883   4.419   1.346  16.573 -0.0634 -0.3415  0.3559
13131TIP3    H160884   4.357   1.274  16.566  1.3645 -1.5235 -0.8451
13131TIP3    H260885   4.472   1.325  16.650  1.7282 -1.8041 -1.1675
13132TIP3   OH260886   0.327   0.638   6.810 -0.4981 -0.4784  0.9566
13132TIP3    H160887   0.421   0.639   6.828 -0.1262  0.7820 -0.8350
13132TIP3    H260888   0.307   0.546   6.792  0.5401 -0.6689  0.7134
13133TIP3   OH260889   6.648   6.001   2.766 -0.6017 -0.0357 -0.0675
13133TIP3    H160890   6.720   6.064   2.762 -0.1585 -0.5419 -0.1386
13133TIP3    H260891   6.579   6.047   2.814 -0.9358  1.1363 -1.5855
13134TIP3   OH260892   4.395   3.018   4.690 -0.2023 -0.4257  0.7598
13134TIP3    H160893   4.418   3.079   4.621  1.3424 -0.1152  1.4982
13134TIP3    H260894   4.301   3.030   4.704 -0.1526  0.8710  0.0540
13135TIP3   OH260895   3.496   5.478   4.509  0.2468 -0.1283  0.5139
13135TIP3    H160896   3.558   5.483   4.581 -0.0292  1.9838  0.6777
13135TIP3    H260897   3.532   5.411   4.450  1.8802 -0.0021  1.3168
13136TIP3   OH260898   4.859   3.756  10.894 -0.2038 -0.2676  0.1105
13136TIP3    H160899   4.920   3.804  10.950  0.5485 -1.1495  0.0768
13136TIP3    H260900   4.913   3.728  10.819  0.1121 -3.4039  1.3503
13137TIP3   OH260901   4.517   1.360  14.791  0.3865 -0.1948  0.0991
13137TIP3    H160902   4.584   1.352  14.722 -0.6427 -0.9728 -0.8575
13137TIP3    H260903   4.538   1.442  14.835  1.9720 -0.4111 -0.1625
13138TIP3   OH260904   1.522   5.912  14.043 -0.3808  0.4535  0.6071
13138TIP3    H160905   1.452   5.847  14.037 -1.8316  1.4916  3.9178
13138TIP3    H260906   1.488   5.988  13.996 -0.4740  0.1974  0.2569
13139TIP3   OH260907   3.281   1.726   3.190 -0.0073 -0.0989 -0.4722
13139TIP3    H160908   3.259   1.813   3.223 -0.3868  0.2661 -1.6563
13139TIP3    H260909   3.259   1.667   3.262  0.5722  0.8092  0.4671
13140TIP3   OH260910   2.392   2.670   1.259 -0.1460  0.6786 -0.5777
13140TIP3    H160911   2.302   2.639   1.248  0.6249 -1.6980 -0.6464
13140TIP3    H260912   2.388   2.764   1.239 -2.9135  1.0435  1.1777
13141TIP3   OH260913   3.904   5.928  10.909  0.1187  0.2921  0.3489
13141TIP3    H160914   3.916   5.850  10.855  2.3635 -0.3621  1.6551
13141TIP3    H260915   3.815   5.919  10.944 -0.2192 -0.8728 -0.7475
13142TIP3   OH260916   3.508   0.638  16.185  0.8707 -0.2904 -0.1333
13142TIP3    H160917   3.507   0.720  16.233 -2.6308 -1.7014  2.6477
13142TIP3    H260918   3.561   0.579  16.239 -0.0681 -0.9229  0.1210
13143TIP3   OH260919   6.142   0.808  15.921 -0.0086 -0.1686 -0.3214
13143TIP3    H160920   6.145   0.900  15.945 -1.0426 -0.7148  2.2122
13143TIP3    H260921   6.094   0.806  15.838  1.3268  1.6511 -1.1837
13144TIP3   OH260922   1.502   2.109   0.848 -0.7344 -0.0552  0.2318
13144TIP3    H160923   1.453   2.190   0.840  0.9475  0.8863 -1.2383
13144TIP3    H260924   1.519   2.081   0.758 -0.0834 -1.2822  0.6938
13145TIP3   OH260925   0.030   6.029   3.375  0.3415 -0.2149  0.2179
13145TIP3    H160926   0.060   6.014   3.465  0.6385  0.4552  0.2387
13145TIP3    H260927   0.028   5.942   3.336  1.5583 -0.3760  0.4636
13146TIP3   OH260928   3.045   0.822   3.240 -0.0649  0.4301 -0.4844
13146TIP3    H160929   2.953   0.848   3.240 -0.1203  0.2612 -1.2914
13146TIP3    H260930   3.065   0.803   3.149  0.5185 -0.4265 -0.1973
13147TIP3   OH260931   3.253   0.257  15.910 -0.1569 -0.1895  0.0645
13147TIP3    H160932   3.157   0.255  15.908 -0.1517 -2.1895 -0.9140
13147TIP3    H260933   3.276   0.322  15.844 -0.8353  0.0890  0.0880
13148TIP3   OH260934   0.527   0.954  12.335 -0.0856  0.1238  0.0217
13148TIP3    H160935   0.441   0.917  12.317 -0.4971  1.1782 -0.2835
13148TIP3    H260936   0.589   0.889  12.301 -0.7567 -0.6482  0.2520
13149TIP3   OH260937   3.674   0.829  16.790 -0.6614 -0.4054  0.2170
13149TIP3    H160938   3.605   0.855  16.850  0.7389 -0.1435  1.8061
13149TIP3    H260939   3.644   0.746  16.752 -1.4289 -0.7734  1.5725
13150TIP3   OH260940   6.708   4.135  16.582  0.5486 -0.4570  0.5798
13150TIP3    H160941   6.779   4.075  16.560  0.7916  0.6886 -2.1333
13150TIP3    H260942   6.689   4.117  16.674  2.5471 -2.6251  0.6597
13151TIP3   OH260943   2.256   1.128   5.821  0.0212  0.5776  0.1820
13151TIP3    H160944   2.281   1.220   5.819  1.7847  0.1840  1.8066
13151TIP3    H260945   2.272   1.098   5.731 -1.1190  1.9465 -0.5217
13152TIP3   OH260946   6.778   2.352  14.357 -0.3963  0.7458  0.0807
13152TIP3    H160947   6.736   2.435  14.335 -0.0525  0.6540 -0.9807
13152TIP3    H260948   6.850   2.344  14.294  0.2630  0.1693  0.8864
13153TIP3   OH260949   2.961   5.085  12.429  0.1068 -0.3742  0.5358
13153TIP3    H160950   2.944   5.111  12.520 -1.3870 -1.1277  0.5083
13153TIP3    H260951   2.910   5.004  12.418  2.8381 -2.1370 -0.0127
13154TIP3   OH260952   0.269   3.930  15.637  0.0257 -0.3622  0.4903
13154TIP3    H160953   0.330   3.906  15.567  0.0208  1.1721 -0.0767
13154TIP3    H260954   0.293   3.874  15.710  1.7788 -0.1603  0.1044
13155TIP3   OH260955   5.178   5.446   1.962  0.0431 -0.1628  0.0758
13155TIP3    H160956   5.232   5.478   1.890  1.7364 -4.0231 -0.6102
13155TIP3    H260957   5.122   5.379   1.923 -1.7681  0.3183  1.6960
13156TIP3   OH260958   2.800   6.528  13.152 -0.2269 -0.1290 -0.7021
13156TIP3    H160959   2.727   6.472  13.126 -1.2297  1.5916 -1.7972
13156TIP3    H260960   2.759   6.602  13.197  0.8640  0.6733 -0.9665
13157TIP3   OH260961   1.772   1.203  13.389  0.5095  0.0019 -0.3784
13157TIP3    H160962   1.721   1.240  13.317 -0.6746 -0.3285  0.2617
13157TIP3    H260963   1.709   1.192  13.460  1.9800  1.8765  1.3170
13158TIP3   OH260964   3.984   5.567   5.763 -0.0110 -0.2353  0.2163
13158TIP3    H160965   3.912   5.627   5.744  0.2111 -0.5449 -1.8580
13158TIP3    H260966   3.965   5.533   5.850 -0.3344  2.5423  1.3478
13159TIP3   OH260967   2.569   6.209  12.109 -0.0902  0.2514  0.0462
13159TIP3    H160968   2.483   6.192  12.146 -0.2710  1.1880  0.0959
13159TIP3    H260969   2.590   6.298  12.138  0.7197  0.1802 -0.2911
13160TIP3   OH260970   1.815   3.415   0.243  0.8357  0.2579 -0.1173
13160TIP3    H160971   1.775   3.430   0.157 -0.0844  0.6786  0.3779
13160TIP3    H260972   1.762   3.347   0.283  0.1495  1.3134  0.8305
13161TIP3   OH260973   6.711   5.251   0.864  0.7521  0.7148 -0.0891
13161TIP3    H160974   6.685   5.279   0.777  1.2832  0.9797 -0.1706
13161TIP3    H260975   6.722   5.156   0.856 -1.8603  0.3058  0.4025
13162TIP3   OH260976   4.275   2.400   5.552 -0.0367 -0.2960 -0.4350
13162TIP3    H160977   4.269   2.361   5.465  1.4838 -1.1691 -0.1868
13162TIP3    H260978   4.369   2.408   5.569 -0.2227  2.9052 -0.1749
13163TIP3   OH260979   6.117   2.826   6.081  1.0761  0.7370 -0.0865
13163TIP3    H160980   6.161   2.892   6.133  2.3530  0.5194 -0.8307
13163TIP3    H260981   6.125   2.857   5.991 -0.3349  0.6926 -0.2442
13164TIP3   OH260982   0.782   0.455   5.491  0.7018 -0.2621  0.5980
13164TIP3    H160983   0.829   0.372   5.494  1.3432 -0.0133 -1.1108
13164TIP3    H260984   0.851   0.521   5.476  0.2864  0.6862  2.5756
13165TIP3   OH260985   3.098   1.796   2.827  0.3994 -0.0048  0.2970
13165TIP3    H160986   3.194   1.797   2.835  0.4147 -0.3208  0.1880
13165TIP3    H260987   3.082   1.767   2.737  0.1984 -0.8706  0.6022
13166TIP3   OH260988   5.898   6.032   1.421  0.2962 -0.5063 -0.1774
13166TIP3    H160989   5.861   5.956   1.466 -0.0526 -0.9166 -1.1363
13166TIP3    H260990   5.843   6.043   1.344  0.1837  0.8950  0.0831
13167TIP3   OH260991   5.177   4.613  15.829  0.1250  0.2266 -0.1105
13167TIP3    H160992   5.271   4.602  15.817  0.0295 -0.6233 -0.1631
13167TIP3    H260993   5.143   4.523  15.833 -0.5339  0.5094  1.0600
13168TIP3   OH260994   5.651   4.513   3.749 -0.7131  0.1692  0.0507
13168TIP3    H160995   5.603   4.483   3.672  0.1054  0.1348 -0.4510
13168TIP3    H260996   5.628   4.606   3.756  0.6782  0.6720 -1.3809
13169TIP3   OH260997   5.051   5.257   2.776 -0.4135  0.4812 -0.7410
13169TIP3    H160998   5.028   5.199   2.703 -0.9429 -0.4855  0.1509
13169TIP3    H260999   5.004   5.220   2.851  2.0313 -0.0563  0.6470
13170TIP3   OH261000   1.523   1.552  11.492  0.6109 -0.3008  0.3745
13170TIP3    H161001   1.533   1.474  11.546 -0.3456  1.1792  2.8659
13170TIP3    H261002   1.540   1.625  11.552 -1.5475  1.5082 -1.0532
13171TIP3   OH261003   6.063   5.219  14.214  0.6143  0.0945  0.5245
13171TIP3    H161004   6.033   5.272  14.141  0.5552 -0.5795  0.0541
13171TIP3    H261005   6.153   5.195  14.191  0.7482  0.2416  0.8782
13172TIP3   OH261006   6.019   4.251  11.378  0.4247  0.3310  0.1992
13172TIP3    H161007   6.016   4.339  11.341 -1.0687 -0.0022 -0.5625
13172TIP3    H261008   5.997   4.193  11.305  1.3227 -0.6897  0.7015
13173TIP3   OH261009   2.791   5.594   2.212 -0.1709  0.1974  0.0318
13173TIP3    H161010   2.777   5.602   2.306  0.2412  1.7566 -0.0107
13173TIP3    H261011   2.710   5.556   2.178 -0.0273 -1.1388  1.0867
13174TIP3   OH261012   2.523   5.255  15.954 -0.3510 -0.6361  0.8414
13174TIP3    H161013   2.548   5.164  15.940  0.9828 -0.5317  2.2843
13174TIP3    H261014   2.596   5.293  16.002  0.4712  2.0025 -2.1501
13175TIP3   OH261015   2.554   4.355  16.893 -0.1705 -0.3057 -0.4221
13175TIP3    H161016   2.522   4.442  16.919 -0.1393 -0.0687 -1.1525
13175TIP3    H261017   2.476   4.310  16.860  0.0412 -0.1056 -1.2113
13176TIP3   OH261018   2.247   0.472   5.564  0.8451  0.8104  0.1091
13176TIP3    H161019   2.292   0.524   5.498  0.6828 -0.0068 -0.6592
13176TIP3    H261020   2.316   0.440   5.622  1.3704 -0.9310 -1.4034
13177TIP3   OH261021   1.411   2.407   5.147  0.7269 -0.2246 -0.1473
13177TIP3    H161022   1.442   2.495   5.168 -1.7401  0.5583  0.6149
13177TIP3    H261023   1.383   2.371   5.231  0.8318 -1.3696 -0.5908
13178TIP3   OH261024   5.239   5.335  14.961  0.0446 -0.1886  0.2572
13178TIP3    H161025   5.294   5.342  14.883 -1.1186 -0.6989 -0.6439
13178TIP3    H261026   5.182   5.412  14.956 -0.5761 -0.6436  0.1434
13179TIP3   OH261027   5.177   3.290  15.724  0.1667  0.4624  0.6472
13179TIP3    H161028   5.109   3.341  15.679 -0.1989  0.2116  0.9090
13179TIP3    H261029   5.223   3.354  15.778 -0.4337  0.4826  1.1460
13180TIP3   OH261030   6.298   5.187   6.644  0.5033  0.3330  0.0180
13180TIP3    H161031   6.252   5.126   6.587  0.3942 -1.4418  1.8854
13180TIP3    H261032   6.230   5.222   6.702  1.1604 -0.9736  1.6492
13181TIP3   OH261033   5.051   2.631  15.552  0.2369  0.2929  0.5285
13181TIP3    H161034   5.079   2.559  15.495  0.5021  0.0041  1.0177
13181TIP3    H261035   4.956   2.626  15.553  0.2755 -0.4165  1.0259
13182TIP3   OH261036   3.780   1.915  16.135  0.3574  0.0352 -0.1543
13182TIP3    H161037   3.833   1.943  16.060  2.5446 -0.4088  1.1411
13182TIP3    H261038   3.746   1.997  16.172  2.8366  0.7245  0.8401
13183TIP3   OH261039   5.740   2.001   4.543  0.3683  0.3655  0.1092
13183TIP3    H161040   5.709   1.911   4.550  0.4807  0.3291  0.1297
13183TIP3    H261041   5.718   2.041   4.627  0.2881  0.3677  0.0877
13184TIP3   OH261042   6.066   3.683   0.024 -0.5979  0.2895  0.2246
13184TIP3    H161043   6.038   3.724  -0.058 -0.6605 -1.3720 -0.6333
13184TIP3    H261044   5.993   3.696   0.083 -0.3819  1.8901  0.1857
13185TIP3   OH261045   3.602   2.768   2.130  0.3222 -0.0902 -0.2151
13185TIP3    H161046   3.649   2.767   2.047  0.2431  0.9156 -0.2900
13185TIP3    H261047   3.590   2.861   2.150  1.1149 -0.2837  1.3668
13186TIP3   OH261048   6.171   1.458  16.812  0.0771 -0.6428 -0.5344
13186TIP3    H161049   6.163   1.553  16.799 -0.8530 -0.6498 -0.0867
13186TIP3    H261050   6.210   1.426  16.731  0.6693  0.1579 -0.5790
13187TIP3   OH261051   1.538   4.481   6.241 -0.1725  0.3289  0.2750
13187TIP3    H161052   1.620   4.488   6.291 -1.3661 -1.3975  2.6957
13187TIP3    H261053   1.541   4.394   6.201 -0.5045  0.5582 -0.2552
13188TIP3   OH261054   0.557   4.064  16.796  0.1392  0.0029 -0.4088
13188TIP3    H161055   0.469   4.054  16.760  0.6684 -1.4985 -1.3584
13188TIP3    H261056   0.565   3.991  16.858  0.4380  0.6043  0.2647
13189TIP3   OH261057   6.475   4.568  13.801 -0.2973  0.2743  0.2267
13189TIP3    H161058   6.481   4.576  13.706  0.3862  1.4309  0.3522
13189TIP3    H261059   6.381   4.555  13.818 -0.5935  1.2808 -0.5260
13190TIP3   OH261060   2.122   5.165   0.755  0.0595 -0.0239 -0.3300
13190TIP3    H161061   2.062   5.161   0.681 -0.5124 -1.2607  0.1679
13190TIP3    H261062   2.079   5.223   0.818  0.3956  0.7730 -0.8270
13191TIP3   OH261063   2.645   6.248  11.474 -0.2528  0.4778 -0.0915
13191TIP3    H161064   2.584   6.293  11.415 -1.7344 -0.8922  0.3361
13191TIP3    H261065   2.718   6.223  11.418 -1.7334 -1.0015 -1.4806
13192TIP3   OH261066   4.955   1.055   4.004  0.1098  0.2547  0.5014
13192TIP3    H161067   4.951   1.129   4.064  2.8501  0.2130  0.8849
13192TIP3    H261068   5.032   1.072   3.950  0.2627 -1.8581 -0.0318
13193TIP3   OH261069   1.615   0.957  14.046 -0.1765 -0.2669 -0.3175
13193TIP3    H161070   1.534   0.984  14.003 -0.3800 -0.6978 -0.2129
13193TIP3    H261071   1.623   1.016  14.121 -0.3954 -0.2227 -0.3279
13194TIP3   OH261072   3.300   0.676  15.962  0.9501 -0.3842 -0.3718
13194TIP3    H161073   3.373   0.669  16.024 -0.2068 -0.0303  1.0840
13194TIP3    H261074   3.229   0.627  16.003  0.7621 -1.9994 -2.4540
13195TIP3   OH261075   4.140   3.175  14.835  0.1876  0.0453  0.4208
13195TIP3    H161076   4.055   3.195  14.875 -0.4401 -1.6006 -0.0247
13195TIP3    H261077   4.149   3.240  14.765 -0.5733  0.4222  0.6589
13196TIP3   OH261078   1.410   2.977   5.271  0.0382  0.2868  0.3926
13196TIP3    H161079   1.346   3.006   5.337 -1.2879 -0.6238 -0.4363
13196TIP3    H261080   1.447   2.897   5.308 -0.1803  0.1699  0.3626
13197TIP3   OH261081   1.135   4.122  12.437 -0.2648  0.0662 -0.4410
13197TIP3    H161082   1.046   4.085  12.442 -0.0439 -0.4633 -0.3833
13197TIP3    H261083   1.181   4.066  12.374 -0.1743  0.7772 -1.0237
13198TIP3   OH261084   0.065   4.410   6.189  0.2031 -0.4328  0.2193
13198TIP3    H161085   0.061   4.488   6.244 -2.8723 -0.6956  0.5385
13198TIP3    H261086   0.128   4.432   6.120 -0.1727  2.1310  0.6076
13199TIP3   OH261087   3.067   5.995  14.093  0.2840  0.1157  0.3183
13199TIP3    H161088   3.005   5.923  14.086  0.8858 -0.3392 -0.5546
13199TIP3    H261089   3.013   6.073  14.106 -0.6128 -0.0384 -2.0346
13200TIP3   OH261090   1.838   2.288   3.616 -0.5017  0.4437  0.7035
13200TIP3    H161091   1.908   2.243   3.665 -0.9957 -0.9210  0.1953
13200TIP3    H261092   1.762   2.282   3.673 -1.0768 -1.1406 -0.1589
13201TIP3   OH261093   4.717   5.214   2.521  0.1527 -0.5121 -0.2330
13201TIP3    H161094   4.780   5.285   2.510 -0.0147 -0.5200 -1.3637
13201TIP3    H261095   4.756   5.140   2.473  0.0147 -0.9951  0.3785
13202TIP3   OH261096   4.246   6.147  15.705 -0.7406 -0.1826 -1.0192
13202TIP3    H161097   4.194   6.069  15.721  0.2160 -0.7775 -0.7689
13202TIP3    H261098   4.330   6.115  15.673 -0.6983  0.7864 -1.9684
13203TIP3   OH261099   3.137   2.077   2.387  0.0415 -0.1824  0.1442
13203TIP3    H161100   3.095   2.163   2.385 -0.4671 -0.3428  1.9439
13203TIP3    H261101   3.221   2.090   2.342  0.2633  1.4299  0.9526
13204TIP3   OH261102   5.180   3.901  15.724 -0.2410  0.3275 -0.2844
13204TIP3    H161103   5.144   3.905  15.812 -0.1911 -1.3166 -0.1517
13204TIP3    H261104   5.244   3.972  15.720 -0.5213  0.6550  0.8642
13205TIP3   OH261105   4.370   2.498   3.937 -0.5012 -0.3339 -0.0650
13205TIP3    H161106   4.333   2.541   3.860 -2.4106 -2.2625 -0.3380
13205TIP3    H261107   4.385   2.408   3.909  1.8698 -0.3116  0.9189
13206TIP3   OH261108   4.800   5.285  12.088  0.0807  0.3259 -0.3034
13206TIP3    H161109   4.791   5.379  12.104  0.0326  0.1229  1.0599
13206TIP3    H261110   4.886   5.263  12.124 -0.3783 -0.3290  0.4358
13207TIP3   OH261111   3.487   5.245  11.094 -0.7591  0.5466 -0.1324
13207TIP3    H161112   3.491   5.208  11.006 -1.6390 -0.4138  0.2041
13207TIP3    H261113   3.569   5.292  11.105 -0.6140  0.6139 -1.4381
13208TIP3   OH261114   3.370   2.937  11.242  0.3453  0.1848 -0.2467
13208TIP3    H161115   3.310   2.932  11.317 -1.5622  0.2525 -1.6965
13208TIP3    H261116   3.313   2.951  11.166  2.1940  0.0045 -1.7481
13209TIP3   OH261117   2.615   2.166   3.508 -0.2826 -0.4482 -0.4250
13209TIP3    H161118   2.667   2.242   3.534  0.2043 -0.5818 -0.9756
13209TIP3    H261119   2.640   2.098   3.571 -1.1062 -0.0119  0.3856
13210TIP3   OH261120   2.008   1.631   0.875  0.4765 -0.4017 -0.3161
13210TIP3    H161121   2.044   1.546   0.850  3.2685  0.9519 -1.2982
13210TIP3    H261122   1.986   1.673   0.792 -2.3888 -0.6644  0.2103
13211TIP3   OH261123   3.033   1.895  16.199 -0.6374  0.5105  0.2640
13211TIP3    H161124   3.057   1.876  16.108  1.0244 -1.3885  1.0243
13211TIP3    H261125   2.939   1.915  16.195 -0.8746 -0.7095 -1.7174
13212TIP3   OH261126   5.992   2.791  15.382  0.0914  0.2262  0.1163
13212TIP3    H161127   6.010   2.778  15.475  2.1165  1.1686 -0.0934
13212TIP3    H261128   5.896   2.787  15.375 -0.0251 -1.6676  1.9175
13213TIP3   OH261129   0.967   5.275   2.662 -0.5478 -0.2427 -0.1678
13213TIP3    H161130   0.999   5.258   2.573 -2.3909 -2.1926 -0.5339
13213TIP3    H261131   0.878   5.308   2.649 -0.5935  0.1090  0.9499
13214TIP3   OH261132   0.273   2.450  13.051 -0.4261 -0.0332 -0.1193
13214TIP3    H161133   0.265   2.372  13.106  1.5193 -0.0450  0.2510
13214TIP3    H261134   0.280   2.416  12.962 -0.5435 -0.2198 -0.0574
13215TIP3   OH261135   2.964   0.581  15.981  0.0598  0.0423 -0.2593
13215TIP3    H161136   3.008   0.665  15.996 -0.2745 -0.1402  2.1318
13215TIP3    H261137   2.880   0.604  15.942  0.3559  0.7521 -0.4878
13216TIP3   OH261138   1.883   4.607   2.142  0.0059  0.4731  0.0085
13216TIP3    H161139   1.928   4.566   2.216 -1.5516 -0.0876  0.6971
13216TIP3    H261140   1.805   4.553   2.130 -0.3775  1.2801 -1.2759
13217TIP3   OH261141   1.506   6.013   2.384 -0.2054  0.1208  0.6799
13217TIP3    H161142   1.557   6.029   2.463 -0.7686  0.0922  1.0562
13217TIP3    H261143   1.529   5.924   2.358  1.1703  0.6669 -0.0907
13218TIP3   OH261144   5.851   2.874   1.804  0.1282  0.0494  0.2694
13218TIP3    H161145   5.764   2.882   1.765  0.4395  1.4848 -0.2042
13218TIP3    H261146   5.908   2.848   1.731  0.3903  0.8686  0.1748
13219TIP3   OH261147   3.686   0.692   2.728 -0.3434  0.5094  0.3792
13219TIP3    H161148   3.635   0.726   2.802  0.0222 -1.0986  1.4228
13219TIP3    H261149   3.659   0.745   2.653 -2.5263  0.5782  1.1667
13220TIP3   OH261150   0.403   1.904   0.543  0.0449  0.4379  0.4878
13220TIP3    H161151   0.323   1.922   0.495  0.8209  0.5748 -0.8010
13220TIP3    H261152   0.443   1.831   0.496  0.7414  0.4553  1.0369
13221TIP3   OH261153   3.626   5.386  11.495 -0.5173 -0.3729 -0.0847
13221TIP3    H161154   3.626   5.401  11.400  1.2245  0.2891 -0.0327
13221TIP3    H261155   3.682   5.456  11.529 -0.8563 -0.8022  1.4090
13222TIP3   OH261156   3.160   3.718   3.765 -0.1305  0.5978 -0.0110
13222TIP3    H161157   3.180   3.680   3.851 -0.9523 -0.8547 -0.4267
13222TIP3    H261158   3.076   3.762   3.777 -1.1292 -1.0873 -0.4390
13223TIP3   OH261159   6.543   4.091   5.301 -1.3347  0.0430 -0.1350
13223TIP3    H161160   6.560   4.143   5.222  0.7404 -1.3316 -0.6969
13223TIP3    H261161   6.562   4.001   5.274 -0.8603 -0.4935  1.8452
13224TIP3   OH261162   3.484   2.462  13.199  0.1984 -0.6516  0.3223
13224TIP3    H161163   3.419   2.495  13.138  0.3089 -0.8885  0.0695
13224TIP3    H261164   3.547   2.416  13.143 -0.2673 -1.7994  0.7125
13225TIP3   OH261165   1.850   3.672   3.954  0.0615 -0.1730  0.0421
13225TIP3    H161166   1.900   3.700   3.877  0.2759 -0.0943  0.2079
13225TIP3    H261167   1.897   3.594   3.985 -0.8501 -1.0537 -0.7445
13226TIP3   OH261168   4.906   3.167  15.434  0.1938  0.0166  0.0723
13226TIP3    H161169   4.999   3.144  15.433  0.4845  1.0268  1.4787
13226TIP3    H261170   4.898   3.231  15.504 -1.6669 -0.4241  0.3008
13227TIP3   OH261171   5.306   1.168   5.870 -1.0031 -0.1192  0.4578
13227TIP3    H161172   5.269   1.083   5.846 -1.6487  0.1296  0.5535
13227TIP3    H261173   5.351   1.151   5.953  0.1848 -0.7000 -0.2745
13228TIP3   OH261174   3.918   2.021  13.557 -0.1970  0.2364 -0.0484
13228TIP3    H161175   3.956   2.109  13.558  0.0346  0.1872 -1.5075
13228TIP3    H261176   3.980   1.969  13.505 -0.4189 -0.7526  0.6462
13229TIP3   OH261177   3.415   5.415   0.096  0.2194  0.2763 -0.0674
13229TIP3    H161178   3.336   5.363   0.078 -0.1189  1.1945 -1.3880
13229TIP3    H261179   3.383   5.505   0.103  1.1734  0.6884 -0.8440
13230TIP3   OH261180   3.352   1.594  15.012 -0.3455  0.5128 -0.3520
13230TIP3    H161181   3.262   1.573  14.985 -0.0586 -1.2896 -0.0262
13230TIP3    H261182   3.362   1.687  14.991 -2.7987  1.1783  1.0301
13231TIP3   OH261183   0.593   3.852   2.281  0.4331 -0.0851  0.2172
13231TIP3    H161184   0.625   3.942   2.277 -0.9271  0.3658 -2.0135
13231TIP3    H261185   0.534   3.851   2.356  1.0174  0.6680  0.7027
13232TIP3   OH261186   5.501   5.665   5.253 -0.2881  0.8651 -0.0537
13232TIP3    H161187   5.423   5.611   5.239  0.7932 -0.6859 -0.4445
13232TIP3    H261188   5.513   5.665   5.348 -1.6197  2.4431  0.1510
13233TIP3   OH261189   1.789   5.613   4.785 -0.1057  0.1342  0.3917
13233TIP3    H161190   1.869   5.655   4.755  0.5252 -1.1587  0.2074
13233TIP3    H261191   1.790   5.526   4.746 -1.5176  0.0194  0.5303
13234TIP3   OH261192   4.202   0.310  14.519  0.1459 -0.2194  0.0859
13234TIP3    H161193   4.165   0.251  14.454  1.7821 -0.4126 -0.7105
13234TIP3    H261194   4.140   0.307  14.592 -1.4996 -0.3212 -1.2653
13235TIP3   OH261195   4.931   2.084   4.706  0.3021  0.2915 -0.9606
13235TIP3    H161196   4.870   2.036   4.760  1.9424 -1.2271 -0.3640
13235TIP3    H261197   4.922   2.045   4.619 -1.7305  2.1693 -1.6817
13236TIP3   OH261198   4.756   5.117   0.277 -0.7662  0.4864 -0.4605
13236TIP3    H161199   4.770   5.193   0.333 -2.7545  0.3692  0.2888
13236TIP3    H261200   4.728   5.048   0.337  1.8758 -1.1717 -1.0103
13237TIP3   OH261201   0.699   2.786   1.630  0.4697  0.0589 -0.2343
13237TIP3    H161202   0.643   2.717   1.595  1.6045 -0.7324 -0.5598
13237TIP3    H261203   0.717   2.843   1.555  2.5794 -1.4176 -0.9510
13238TIP3   OH261204   1.056   4.363  11.179 -0.2952 -0.3528  0.3414
13238TIP3    H161205   1.070   4.286  11.234  2.3816  0.3224  0.7308
13238TIP3    H261206   1.062   4.329  11.090  1.1024 -0.6194  0.5060
13239TIP3   OH261207   1.017   0.939  11.228 -0.4102  0.8639  0.1447
13239TIP3    H161208   1.035   0.866  11.288  1.3014  1.3505  0.2807
13239TIP3    H261209   1.089   0.935  11.164 -1.5629  1.0611 -1.1998
13240TIP3   OH261210   0.543   3.454  14.416 -0.3113 -0.2217 -0.3087
13240TIP3    H161211   0.565   3.422  14.328 -1.0092  1.3780 -1.0937
13240TIP3    H261212   0.626   3.486  14.451  0.0028 -1.0143 -0.3092
13241TIP3   OH261213   5.930   5.827   3.651 -0.4485  0.3845  0.0722
13241TIP3    H161214   6.022   5.815   3.625 -1.4753 -3.6281 -2.6746
13241TIP3    H261215   5.899   5.901   3.599  0.7555  0.5617 -0.4255
13242TIP3   OH261216   0.683   1.687   0.712  0.0887 -0.2600  0.7069
13242TIP3    H161217   0.769   1.646   0.714  0.3729  0.2667 -0.1331
13242TIP3    H261218   0.698   1.776   0.745 -0.2247 -0.3154  1.0068
13243TIP3   OH261219   1.563   0.069   1.617 -0.3634 -0.0945  0.3597
13243TIP3    H161220   1.603   0.103   1.537 -2.1229  0.4387 -0.3513
13243TIP3    H261221   1.548   0.147   1.671  1.4718 -0.5206  1.5870
13244TIP3   OH261222   6.740   1.744   4.656  0.1343 -0.6113  0.0056
13244TIP3    H161223   6.805   1.717   4.591 -0.5970  2.4123 -2.2184
13244TIP3    H261224   6.749   1.839   4.661 -5.1293  0.3762 -1.9151
13245TIP3   OH261225   1.497   6.276  15.814 -0.0195 -0.7594 -0.4400
13245TIP3    H161226   1.477   6.360  15.772 -0.8452 -0.0941  1.2154
13245TIP3    H261227   1.564   6.297  15.879 -0.4285 -1.3340  0.1738
13246TIP3   OH261228   4.279   2.824   2.693 -0.1104 -0.1812 -0.0147
13246TIP3    H161229   4.258   2.914   2.670  3.3336  0.6372 -0.4872
13246TIP3    H261230   4.231   2.808   2.774 -1.9657  1.5115 -0.7045
13247TIP3   OH261231   0.775   1.252  12.189  0.0677 -0.0060 -0.2229
13247TIP3    H161232   0.786   1.305  12.268 -1.3502 -0.3548  0.2473
13247TIP3    H261233   0.857   1.262  12.141  0.5981  0.9615  0.8433
13248TIP3   OH261234   5.823   5.971  17.168 -0.0369 -0.2496  0.1510
13248TIP3    H161235   5.734   5.978  17.132 -1.4891  0.6036  3.5760
13248TIP3    H261236   5.847   5.880  17.153 -1.1874 -0.3484 -1.4067
13249TIP3   OH261237   2.747   1.987   0.662 -0.1128  0.2196 -0.1801
13249TIP3    H161238   2.662   2.005   0.622 -1.6537 -0.7528  2.3626
13249TIP3    H261239   2.765   1.896   0.638 -0.2244  0.1620 -0.0513
13250TIP3   OH261240   1.904   1.091   2.208  0.2055  0.0194  0.1038
13250TIP3    H161241   1.999   1.094   2.194  0.0257 -0.7397 -1.5263
13250TIP3    H261242   1.868   1.153   2.145 -0.2939  2.4917  2.6236
13251TIP3   OH261243   2.547   5.941   2.420  0.1344  0.5635  0.0193
13251TIP3    H161244   2.626   5.992   2.401  0.1782  0.7540  0.6846
13251TIP3    H261245   2.545   5.873   2.353  2.4238 -1.2478  1.6387
13252TIP3   OH261246   0.413   5.254  16.930  0.7347  0.0708  0.3988
13252TIP3    H161247   0.472   5.211  16.991 -0.8447 -0.8228  1.3640
13252TIP3    H261248   0.376   5.327  16.981 -0.3633 -0.5004  0.4609
13253TIP3   OH261249   3.956   6.347  16.865  0.2371  0.1992 -0.4256
13253TIP3    H161250   3.862   6.360  16.877  0.2191  1.0425 -1.3561
13253TIP3    H261251   3.991   6.436  16.858  1.1155 -0.1082 -0.0357
13254TIP3   OH261252   1.266   4.054  13.703  0.0184 -0.6553 -0.6724
13254TIP3    H161253   1.184   4.011  13.677 -0.3123 -0.3315 -0.1681
13254TIP3    H261254   1.270   4.133  13.649  0.8081 -1.4711 -1.8675
13255TIP3   OH261255   1.208   3.893   2.051 -0.1030  0.5034 -0.2526
13255TIP3    H161256   1.223   3.947   2.128 -3.1559 -1.2039  1.7788
13255TIP3    H261257   1.114   3.904   2.032  0.0952 -0.8101 -2.3596
13256TIP3   OH261258   0.652   3.345  15.086  0.1592  0.2734 -0.3878
13256TIP3    H161259   0.602   3.266  15.062 -0.5193  0.1587  1.2019
13256TIP3    H261260   0.743   3.321  15.072 -0.1028 -0.4266 -0.9489
13257TIP3   OH261261   6.775   1.061  15.285 -0.6871 -0.3762  0.0584
13257TIP3    H161262   6.856   1.111  15.274 -0.7261 -0.2250  0.4371
13257TIP3    H261263   6.795   0.996  15.351 -0.8565 -0.3768  0.1100
13258TIP3   OH261264   1.470   6.442   4.028  0.2449  0.7774  0.1259
13258TIP3    H161265   1.504   6.492   4.102 -0.3677 -0.8977  1.6220
13258TIP3    H261266   1.385   6.482   4.008  0.6955  1.6374 -0.1253
13259TIP3   OH261267   0.377   4.306   3.643 -0.4011 -0.6087  0.1752
13259TIP3    H161268   0.291   4.264   3.632 -0.1201 -1.4018  0.8739
13259TIP3    H261269   0.437   4.251   3.594 -0.5742  1.1858 -2.2348
13260TIP3   OH261270   2.159   1.363   5.668 -0.1432  0.7034 -0.2836
13260TIP3    H161271   2.094   1.376   5.599  0.7869  0.6441 -1.1928
13260TIP3    H261272   2.222   1.434   5.655 -0.3126  1.1030  0.9497
13261TIP3   OH261273   3.811   1.075  14.547  0.3013  0.5449  0.1487
13261TIP3    H161274   3.874   1.016  14.588  0.2527 -0.5881 -1.3171
13261TIP3    H261275   3.742   1.017  14.516 -0.0768  1.4572 -0.7417
13262TIP3   OH261276   5.640   2.285  12.637  0.2889  0.1309  0.0731
13262TIP3    H161277   5.650   2.242  12.722  0.3989  1.0113  0.5247
13262TIP3    H261278   5.572   2.235  12.592  2.8512 -2.7978 -0.9344
13263TIP3   OH261279   3.879   1.000   4.400 -0.1707 -0.0125  0.7653
13263TIP3    H161280   3.952   0.953   4.440 -0.2057 -0.9619 -0.2442
13263TIP3    H261281   3.817   1.012   4.472  0.7464  0.3612  1.5199
13264TIP3   OH261282   5.547   2.413   0.782  0.4502 -0.2868  0.8362
13264TIP3    H161283   5.581   2.338   0.830 -0.9353 -2.0536 -0.8297
13264TIP3    H261284   5.459   2.427   0.817 -0.3114 -1.1613 -0.6522
13265TIP3   OH261285   1.007   0.837   1.954  0.1912  0.5033 -0.3001
13265TIP3    H161286   1.048   0.913   1.995 -0.4138  0.1016  1.1231
13265TIP3    H261287   0.925   0.870   1.918 -0.8177  0.2811  1.6605
13266TIP3   OH261288   4.923   2.688  16.122  0.0275  0.0763 -0.0508
13266TIP3    H161289   4.958   2.679  16.211 -0.1905  1.9234  0.2569
13266TIP3    H261290   5.000   2.706  16.068 -0.0028  0.3665  0.0015
13267TIP3   OH261291   3.106   0.334   1.510 -0.0723  0.1906  0.3789
13267TIP3    H161292   3.030   0.344   1.568  1.3082  0.0927  2.3384
13267TIP3    H261293   3.177   0.311   1.570  1.0717 -1.8156 -1.6128
13268TIP3   OH261294   1.267   0.906  17.149  0.5381 -0.1624 -0.0882
13268TIP3    H161295   1.264   0.865  17.063  1.0947 -1.8677  0.6593
13268TIP3    H261296   1.176   0.905  17.179  0.0975  1.7890 -1.2146
13269TIP3   OH261297   4.208   6.439   1.029 -0.2114 -1.0115  0.4570
13269TIP3    H161298   4.238   6.524   0.996 -0.3717 -2.2630 -3.4316
13269TIP3    H261299   4.280   6.409   1.084  1.0267  0.5388 -0.2143
13270TIP3   OH261300   0.480   1.525   1.421  0.4365  0.1974 -0.1374
13270TIP3    H161301   0.391   1.538   1.388 -0.7095 -2.2967  1.6768
13270TIP3    H261302   0.526   1.484   1.348 -0.4143 -0.0501 -0.5554
13271TIP3   OH261303   3.781   0.644   0.106 -0.4092  0.2245  0.0872
13271TIP3    H161304   3.706   0.586   0.119 -0.5593  0.5992  0.9758
13271TIP3    H261305   3.765   0.686   0.022 -0.9915 -0.0100  0.0794
13272TIP3   OH261306   3.050   2.208   1.634  0.2690 -0.1813  0.2410
13272TIP3    H161307   3.087   2.295   1.640  0.4185 -0.0190 -2.1098
13272TIP3    H261308   2.955   2.222   1.636  0.2578 -0.2464  2.3520
13273TIP3   OH261309   4.223   5.120  14.996  0.6376  0.3985 -0.2156
13273TIP3    H161310   4.171   5.128  15.076  2.1384 -0.4495  0.8982
13273TIP3    H261311   4.267   5.205  14.987  0.2070  0.6115 -0.3465
13274TIP3   OH261312   2.689   2.505  16.819  0.0982 -0.1834  0.1055
13274TIP3    H161313   2.666   2.413  16.832  0.1298 -0.1913  0.1071
13274TIP3    H261314   2.605   2.550  16.812  0.0618 -0.5040 -2.1321
13275TIP3   OH261315   3.461   4.234   4.388  0.5355 -0.0745  0.3824
13275TIP3    H161316   3.434   4.171   4.455 -0.8704  0.3354  0.2431
13275TIP3    H261317   3.411   4.313   4.409  2.6280  1.1922  0.8609
13276TIP3   OH261318   3.779   4.093  12.984  0.2604 -0.7416  0.8531
13276TIP3    H161319   3.726   4.017  12.959 -0.5552 -0.0650  0.4499
13276TIP3    H261320   3.722   4.143  13.042  1.1695 -0.9484  1.9527
13277TIP3   OH261321   3.011   4.953   3.698 -0.4439  0.2668 -0.3527
13277TIP3    H161322   2.925   4.988   3.675 -0.3208  0.4246 -0.5718
13277TIP3    H261323   3.068   5.029   3.703 -0.4514  0.2344  0.4247
13278TIP3   OH261324   6.162   5.582   2.817  0.2260  0.4108 -0.3855
13278TIP3    H161325   6.097   5.512   2.825  0.6163  0.2622  2.6809
13278TIP3    H261326   6.234   5.542   2.768 -1.0972 -0.0530 -2.0580
13279TIP3   OH261327   6.334   4.822  14.400 -0.1535  0.1730  0.4535
13279TIP3    H161328   6.338   4.733  14.435 -0.2957  0.5028  1.3305
13279TIP3    H261329   6.367   4.877  14.471 -0.3398  0.8512  0.0239
13280TIP3   OH261330   4.985   2.739   6.058  0.6749 -0.2182  0.4962
13280TIP3    H161331   4.911   2.688   6.025  0.2647 -0.0033  1.0712
13280TIP3    H261332   4.978   2.732   6.153  1.5997 -0.4804  0.5507
13281TIP3   OH261333   2.650   4.130  14.891 -0.8791 -0.2323 -0.1200
13281TIP3    H161334   2.578   4.095  14.943  1.0841 -3.2393  0.8234
13281TIP3    H261335   2.720   4.146  14.954  0.1588  0.1414 -1.3212
13282TIP3   OH261336   6.617   5.786   0.569 -0.2580 -0.7237 -0.3121
13282TIP3    H161337   6.623   5.695   0.540 -0.4986 -0.7080 -0.4184
13282TIP3    H261338   6.640   5.837   0.492 -1.3545 -0.6727 -0.6251
13283TIP3   OH261339   1.209   3.952  16.696 -0.7477  0.1087  0.3931
13283TIP3    H161340   1.127   3.941  16.744 -1.4455  0.3971 -0.6653
13283TIP3    H261341   1.266   4.001  16.755 -1.8552  1.1454  0.6384
13284TIP3   OH261342   4.116   1.887  14.770  0.2395 -0.2383 -0.2114
13284TIP3    H161343   4.172   1.882  14.847 -0.1351 -1.3062 -0.0017
13284TIP3    H261344   4.028   1.902  14.805 -0.1577 -2.0833 -0.3199
13285TIP3   OH261345   5.395   2.712  15.861  0.5603  0.2015 -0.6117
13285TIP3    H161346   5.313   2.663  15.862  1.3727 -1.3815  2.3316
13285TIP3    H261347   5.462   2.646  15.842  1.5668  0.2306  2.3175
13286TIP3   OH261348   5.352   5.738  15.951 -0.0348  0.4396 -0.0383
13286TIP3    H161349   5.343   5.825  15.913 -0.7786 -0.3463 -1.7466
13286TIP3    H261350   5.278   5.688  15.916  0.0939 -0.7683  1.2870
13287TIP3   OH261351   0.451   1.272  16.391 -0.6811 -0.3139  0.1967
13287TIP3    H161352   0.493   1.207  16.448  1.0637  1.3504  0.9113
13287TIP3    H261353   0.374   1.227  16.357  0.2704 -2.6420  0.9077
13288TIP3   OH261354   0.758   0.492  16.958 -0.3323 -0.3337 -0.1797
13288TIP3    H161355   0.837   0.438  16.964  1.4249  2.2314  2.0775
13288TIP3    H261356   0.748   0.509  16.864  1.1773 -1.5145 -0.6047
13289TIP3   OH261357   2.832   6.059  14.364 -0.6367 -0.3620 -0.0490
13289TIP3    H161358   2.861   6.119  14.296  0.9367 -3.7895 -2.7038
13289TIP3    H261359   2.900   6.065  14.431  0.5637 -0.5273 -1.1939
13290TIP3   OH261360   4.518   2.052  13.819 -0.0811  0.2675  0.5217
13290TIP3    H161361   4.558   2.037  13.905 -1.0091  2.0931  1.3299
13290TIP3    H261362   4.513   2.148  13.812 -1.6371  0.1174 -0.8023
13291TIP3   OH261363   2.706   2.685   0.437 -0.9599 -0.6718  0.0765
13291TIP3    H161364   2.713   2.724   0.525  2.5667 -1.7897  0.4386
13291TIP3    H261365   2.719   2.759   0.377 -2.5276 -0.0457  0.4490
13292TIP3   OH261366   5.399   4.025   4.901  0.0145  0.5032 -0.4223
13292TIP3    H161367   5.388   4.049   4.993 -3.0047  1.4375 -0.9079
13292TIP3    H261368   5.331   3.959   4.886  2.1216 -1.5745 -1.4237
13293TIP3   OH261369   4.116   1.232  14.564 -0.2748  0.0805  0.1070
13293TIP3    H161370   4.162   1.163  14.516 -1.0632  0.1451 -0.7995
13293TIP3    H261371   4.174   1.256  14.635  0.4391 -0.8406 -0.1484
13294TIP3   OH261372   3.289   4.009  15.557 -0.3844 -0.9078 -0.7759
13294TIP3    H161373   3.317   3.942  15.494  0.5126  0.9355 -2.4545
13294TIP3    H261374   3.235   4.068  15.505 -0.7587 -0.0586  0.5522
13295TIP3   OH261375   3.027   6.545  15.685 -0.5605  0.4491 -0.2989
13295TIP3    H161376   3.090   6.547  15.757 -1.0516  0.4388  0.1350
13295TIP3    H261377   3.081   6.553  15.606 -0.0965  1.6023  0.1074
13296TIP3   OH261378   5.057   6.243   0.809  0.1613  1.1081 -0.2116
13296TIP3    H161379   4.966   6.217   0.819  0.3874  0.5348  0.4594
13296TIP3    H261380   5.081   6.281   0.894  1.8299 -2.9217  1.4040
13297TIP3   OH261381   2.295   3.438  12.158  0.5212  0.2859 -0.1721
13297TIP3    H161382   2.277   3.437  12.064 -0.9278  1.0011  0.0642
13297TIP3    H261383   2.211   3.417  12.198  1.2332 -0.4705  0.9647
13298TIP3   OH261384   3.076   3.840   4.179  0.5152  0.1327 -0.0748
13298TIP3    H161385   3.057   3.810   4.268 -1.3383  1.3858  0.0137
13298TIP3    H261386   3.107   3.762   4.133 -1.8217 -1.3813  0.7690
13299TIP3   OH261387   1.614   0.908   1.734 -0.6414  0.1332 -0.7874
13299TIP3    H161388   1.530   0.905   1.689 -1.2155 -0.7035  0.2717
13299TIP3    H261389   1.674   0.948   1.672 -1.9481  1.2778 -1.3607
13300TIP3   OH261390   3.576   1.582  16.395 -0.1656 -0.0113 -0.0710
13300TIP3    H161391   3.644   1.611  16.334  0.0029 -0.8186 -0.2871
13300TIP3    H261392   3.501   1.638  16.375  0.0513  0.0742 -0.6793
13301TIP3   OH261393   3.803   3.289  13.484 -0.2541  0.1724  0.2671
13301TIP3    H161394   3.762   3.232  13.419 -1.5359  1.2258  0.1118
13301TIP3    H261395   3.890   3.250  13.498  0.0641 -0.1110 -2.0517
13302TIP3   OH261396   6.687   4.122   4.513 -0.1889 -0.6043 -0.2306
13302TIP3    H161397   6.625   4.188   4.545  0.2804 -0.7105  0.9205
13302TIP3    H261398   6.723   4.160   4.433 -1.2643 -0.2665 -0.5787
13303TIP3   OH261399   2.629   3.603   6.377 -0.1332 -0.1695 -0.5107
13303TIP3    H161400   2.721   3.577   6.366 -0.2814 -0.4267 -1.1859
13303TIP3    H261401   2.579   3.534   6.334 -0.6689 -0.2530  0.2235
13304TIP3   OH261402   6.429   3.688  13.282  0.1084  0.2670  0.5647
13304TIP3    H161403   6.376   3.646  13.215 -0.8190 -0.7994  1.9201
13304TIP3    H261404   6.519   3.677  13.252 -0.2493 -0.7866 -0.1795
13305TIP3   OH261405   1.629   5.239   2.532 -0.8966 -0.4459 -0.1998
13305TIP3    H161406   1.534   5.226   2.530 -1.1018  0.7806  0.1880
13305TIP3    H261407   1.640   5.322   2.580  0.3524 -0.4200 -0.5059
13306TIP3   OH261408   0.206   5.306   0.535 -0.1127 -0.2545  0.1443
13306TIP3    H161409   0.205   5.402   0.534  1.2473 -0.2117 -0.6538
13306TIP3    H261410   0.285   5.283   0.584 -0.0888 -0.9477 -0.2029
13307TIP3   OH261411   3.346   2.473   4.823  0.2105 -0.0772  0.6667
13307TIP3    H161412   3.293   2.414   4.769  0.0249 -0.0360  0.8020
13307TIP3    H261413   3.285   2.540   4.852  1.0121  1.9164 -1.9264
13308TIP3   OH261414   4.893   2.295  12.196 -0.0692 -0.1762  0.4392
13308TIP3    H161415   4.961   2.262  12.137  0.1573  0.7724  0.1538
13308TIP3    H261416   4.817   2.238  12.179 -0.4692  0.9011 -1.8291
13309TIP3   OH261417   5.461   4.120  16.391  0.7851 -0.5441  0.9705
13309TIP3    H161418   5.470   4.139  16.484  0.0815 -1.5117  1.2506
13309TIP3    H261419   5.519   4.182  16.348  0.1563  0.7928  1.9748
13310TIP3   OH261420   0.868   0.796   2.870  0.1896  0.1239  0.0947
13310TIP3    H161421   0.887   0.777   2.962 -0.2439 -0.5214  0.0612
13310TIP3    H261422   0.952   0.818   2.832  0.3290  0.7184  0.7191
13311TIP3   OH261423   5.094   4.433   1.206  0.3272 -0.5267 -0.0620
13311TIP3    H161424   5.037   4.499   1.246  1.0630 -0.8649  1.6369
13311TIP3    H261425   5.162   4.484   1.163  0.1826 -0.1533  0.1475
13312TIP3   OH261426   3.535   1.511   3.380  0.0471  0.2186  0.2479
13312TIP3    H161427   3.588   1.515   3.301  0.4917 -1.0084  0.4587
13312TIP3    H261428   3.579   1.446   3.435 -0.1452  1.1746  1.5840
13313TIP3   OH261429   4.106   1.798   1.935 -0.1151 -0.3598  0.1043
13313TIP3    H161430   4.079   1.889   1.946  1.4225  0.1725 -0.2594
13313TIP3    H261431   4.074   1.775   1.848 -1.2798 -0.4710  0.5474
13314TIP3   OH261432   4.478   6.657  17.021 -0.2987  0.4034 -0.0559
13314TIP3    H161433   4.413   6.666  16.951 -1.6606 -1.5611  0.8608
13314TIP3    H261434   4.561   6.651  16.975 -1.1689 -1.0106 -1.5680
13315TIP3   OH261435   3.817   0.957  15.360 -0.7957 -0.1686  0.1757
13315TIP3    H161436   3.840   1.048  15.376 -2.2680  0.1729  0.5301
13315TIP3    H261437   3.774   0.957  15.275  0.4674 -0.7905 -0.4898
13316TIP3   OH261438   0.008   4.020  12.617  0.3056  0.5038 -0.3071
13316TIP3    H161439   0.067   4.068  12.558 -0.2752  3.0849  1.0412
13316TIP3    H261440   0.040   4.041  12.705 -1.5520  0.5838  0.3977
13317TIP3   OH261441   3.762   1.445  12.555  0.0257 -1.0628  0.0734
13317TIP3    H161442   3.708   1.519  12.580  1.1485  0.3871 -1.5115
13317TIP3    H261443   3.700   1.380  12.522 -1.0785 -1.3818  2.5654
13318TIP3   OH261444   0.487   1.929  10.364  0.3182 -0.1931  0.7613
13318TIP3    H161445   0.467   1.995  10.430 -0.3077 -0.2730  0.6600
13318TIP3    H261446   0.402   1.908  10.325  0.6831 -0.1367 -0.0793
13319TIP3   OH261447   4.014   0.772   6.014 -0.1788  0.1395 -0.1308
13319TIP3    H161448   4.034   0.787   6.106 -1.5877 -1.9219  0.5697
13319TIP3    H261449   4.078   0.706   5.986  0.5940  1.1372 -0.8411
13320TIP3   OH261450   6.756   1.621  16.746 -0.5952  0.8538  0.1815
13320TIP3    H161451   6.757   1.617  16.841 -0.5746 -1.6801  0.1394
13320TIP3    H261452   6.815   1.694  16.724 -0.9129  1.7281  2.0750
13321TIP3   OH261453   1.535   3.181  12.046  0.2031 -0.5008  0.1964
13321TIP3    H161454   1.554   3.168  12.138  0.2977 -1.9468 -0.0130
13321TIP3    H261455   1.446   3.147  12.034  0.1478 -0.2236 -0.2212
13322TIP3   OH261456   4.730   6.009  16.836  0.7246  0.5264  0.1659
13322TIP3    H161457   4.663   6.062  16.792 -0.1548  0.7567  1.7059
13322TIP3    H261458   4.812   6.056  16.820  0.4570  0.5574 -1.2531
13323TIP3   OH261459   2.758   4.196  11.106  0.2250 -0.0849 -0.0771
13323TIP3    H161460   2.837   4.199  11.051  0.7063 -1.8742  0.4376
13323TIP3    H261461   2.694   4.149  11.052 -0.2053  0.5506 -0.1328
13324TIP3   OH261462   6.546   6.173   0.112 -0.5467 -0.1551  0.4547
13324TIP3    H161463   6.640   6.191   0.114 -0.5581 -0.1265  0.9243
13324TIP3    H261464   6.528   6.132   0.196 -0.9073 -0.4101  0.2553
13325TIP3   OH261465   4.386   5.211  12.933 -0.5335 -0.2072 -0.1228
13325TIP3    H161466   4.332   5.220  13.011  1.7961 -1.6737  1.8141
13325TIP3    H261467   4.356   5.131  12.891 -2.1520  0.8661 -1.1361
13326TIP3   OH261468   6.380   1.946   4.398  0.5338 -0.6393 -0.3131
13326TIP3    H161469   6.358   2.010   4.465  1.5111 -0.1221 -0.4637
13326TIP3    H261470   6.475   1.954   4.387  0.5650 -1.6007 -0.8574
13327TIP3   OH261471   6.155   2.492  12.647 -0.4581 -0.1508  0.0311
13327TIP3    H161472   6.167   2.481  12.742  1.1358 -0.1477 -0.1517
13327TIP3    H261473   6.087   2.429  12.624 -2.0423  0.9296  1.4143
13328TIP3   OH261474   2.294   5.130   4.344  0.1330  0.7428  0.2682
13328TIP3    H161475   2.308   5.215   4.302  0.2311 -0.1292 -1.5697
13328TIP3    H261476   2.205   5.105   4.320  0.2626  0.1276  0.4042
13329TIP3   OH261477   6.531   0.923   0.976 -0.8527  0.5426 -0.4716
13329TIP3    H161478   6.462   0.902   0.913 -1.4968  1.1406  0.0132
13329TIP3    H261479   6.589   0.983   0.928  0.3513 -1.3458 -1.4667
13330TIP3   OH261480   6.291   1.627  14.123  0.1938 -0.6679  0.1796
13330TIP3    H161481   6.357   1.670  14.069 -0.5607  0.4127  0.0802
13330TIP3    H261482   6.282   1.684  14.200 -0.4034 -0.9613  0.3351
13331TIP3   OH261483   0.252   5.085  12.327 -0.4998  0.0547 -0.3944
13331TIP3    H161484   0.320   5.087  12.260  0.5482 -1.3775  0.5457
13331TIP3    H261485   0.299   5.104  12.409 -1.4256  0.0858  0.1428
13332TIP3   OH261486   6.325   5.410   4.291  0.1713 -0.0737 -0.0531
13332TIP3    H161487   6.304   5.437   4.380 -1.4267 -1.1618 -0.0522
13332TIP3    H261488   6.400   5.464   4.266  0.1537  0.7985  1.6553
13333TIP3   OH261489   5.882   3.977   1.933  0.3935  0.2608  0.1351
13333TIP3    H161490   5.922   4.034   1.868 -0.4134  0.1922 -0.4412
13333TIP3    H261491   5.956   3.940   1.981  0.9791  0.7350 -0.3823
13334TIP3   OH261492   4.348   2.643  16.607 -0.2249 -0.1386 -0.6242
13334TIP3    H161493   4.437   2.615  16.627 -0.4988  0.4891  1.7389
13334TIP3    H261494   4.293   2.596  16.670 -1.4876  0.0624 -1.5381
13335TIP3   OH261495   1.189   1.667   4.817 -0.8476 -0.1737 -0.3961
13335TIP3    H161496   1.212   1.574   4.821  2.4088  0.5181  1.1324
13335TIP3    H261497   1.257   1.706   4.762 -1.0207  1.5460  0.5440
13336TIP3   OH261498   1.636   3.344   1.154 -0.4400  0.3781  0.8653
13336TIP3    H161499   1.729   3.358   1.136 -0.1138  0.1599  2.2434
13336TIP3    H261500   1.617   3.401   1.228 -1.4999  0.6655  0.3986
13337TIP3   OH261501   1.218   2.621   5.652 -0.3195  0.1678  0.3029
13337TIP3    H161502   1.157   2.550   5.673 -0.6307  0.4125  0.2409
13337TIP3    H261503   1.175   2.700   5.684 -0.1900  0.3857 -0.0511
13338TIP3   OH261504   3.451   1.262  12.788  1.1962 -0.0795 -0.0762
13338TIP3    H161505   3.466   1.352  12.760 -0.1942 -0.4200 -2.2319
13338TIP3    H261506   3.372   1.267  12.842 -0.6999 -0.2214 -2.6006
13339TIP3   OH261507   3.281   0.424   6.547 -0.0224 -0.1284 -0.0458
13339TIP3    H161508   3.230   0.380   6.479 -0.6570  0.7653 -0.1719
13339TIP3    H261509   3.215   0.473   6.597  0.7348  1.2963 -0.3926
13340TIP3   OH261510   2.234   1.295  12.698 -0.4490 -0.0140  0.2192
13340TIP3    H161511   2.144   1.264  12.697 -0.7125  0.7200 -1.4991
13340TIP3    H261512   2.275   1.253  12.623 -0.3720  2.3692 -1.1685
13341TIP3   OH261513   0.908   0.203   5.564 -0.0982 -0.0367 -0.4815
13341TIP3    H161514   0.953   0.173   5.643 -0.5844  0.0930 -0.1519
13341TIP3    H261515   0.947   0.152   5.493 -0.8481 -1.3953  0.0487
13342TIP3   OH261516   3.769   3.470  14.367 -0.8812 -0.0345 -0.3748
13342TIP3    H161517   3.684   3.490  14.327 -1.3535 -1.3822 -0.1260
13342TIP3    H261518   3.828   3.455  14.294 -0.8084  1.0463 -0.5508
13343TIP3   OH261519   2.706   1.669  14.452 -0.4909 -0.2875 -0.2238
13343TIP3    H161520   2.783   1.622  14.421 -0.3566 -1.0316  1.1463
13343TIP3    H261521   2.697   1.642  14.544 -0.9777  1.6346  0.3302
13344TIP3   OH261522   5.686   6.740  11.796  0.3505  0.4501 -0.4435
13344TIP3    H161523   5.667   6.824  11.839  1.8612  1.3312 -1.3655
13344TIP3    H261524   5.777   6.750  11.766  1.2345 -2.2225  1.0117
13345TIP3   OH261525   6.695   3.883   0.590 -0.0380 -0.4767 -0.4605
13345TIP3    H161526   6.628   3.817   0.571  0.1422 -0.1417 -2.4314
13345TIP3    H261527   6.652   3.966   0.570  0.3662 -0.1131  0.1540
13346TIP3   OH261528   4.538   3.110   3.911  0.1864  0.0958 -0.1816
13346TIP3    H161529   4.502   3.111   3.823  0.0793 -2.0843 -0.2304
13346TIP3    H261530   4.626   3.074   3.901 -0.1503 -1.0409  0.6626
13347TIP3   OH261531   1.695   0.806  11.232  0.0773 -0.2964 -0.3075
13347TIP3    H161532   1.728   0.793  11.321 -2.8719 -1.6488  0.7393
13347TIP3    H261533   1.769   0.787  11.175  2.1948  1.1134  1.8320
13348TIP3   OH261534   1.883   6.749  11.330 -0.6078  0.1214  0.0727
13348TIP3    H161535   1.896   6.793  11.414 -0.3893 -0.9341  0.6173
13348TIP3    H261536   1.870   6.820  11.267 -0.4977  0.9411  0.9479
13349TIP3   OH261537   1.218   6.232   5.211 -0.3843  0.1623 -0.5857
13349TIP3    H161538   1.286   6.166   5.197 -0.8212 -0.3870 -0.1370
13349TIP3    H261539   1.264   6.315   5.201  0.1710 -0.1993 -1.1767
13350TIP3   OH261540   1.255   4.948  16.775  0.1410 -0.1544  0.0629
13350TIP3    H161541   1.339   4.942  16.819  1.1882  0.3277 -1.7411
13350TIP3    H261542   1.240   4.861  16.738  0.4586  0.0795 -0.6337
13351TIP3   OH261543   6.640   3.183   0.011  0.1381  0.1654  0.2338
13351TIP3    H161544   6.624   3.106  -0.043 -1.0252  0.0721  0.6783
13351TIP3    H261545   6.576   3.248  -0.020  2.0125  1.4933 -1.0954
13352TIP3   OH261546   5.246   6.574  17.020  0.0250 -0.1072 -0.0880
13352TIP3    H161547   5.192   6.500  17.050 -1.2942  0.6688 -0.4357
13352TIP3    H261548   5.325   6.569  17.074 -1.1354 -0.2876  1.6896
13353TIP3   OH261549   1.375   1.016   4.262 -0.2393 -0.5475  0.3685
13353TIP3    H161550   1.447   0.999   4.323 -0.0087  0.7959  0.4904
13353TIP3    H261551   1.337   1.098   4.292 -1.4698 -0.9525 -0.0480
13354TIP3   OH261552   5.726   6.075   2.881  0.1902 -0.7297 -0.3100
13354TIP3    H161553   5.754   6.167   2.888  1.2389 -1.0101 -0.5332
13354TIP3    H261554   5.776   6.041   2.806  0.8663 -1.8411  0.6241
13355TIP3   OH261555   4.632   0.965   3.236 -0.0038 -0.2578 -0.1910
13355TIP3    H161556   4.625   0.870   3.244 -0.8301 -0.1166  1.0513
13355TIP3    H261557   4.654   0.995   3.325 -0.4620  0.7625 -0.4093
13356TIP3   OH261558   0.696   6.193  15.933  0.2936  0.0742  0.9724
13356TIP3    H161559   0.619   6.219  15.984  0.0839 -2.3849  2.0375
13356TIP3    H261560   0.678   6.225  15.845 -0.5848  2.0599  1.7965
13357TIP3   OH261561   5.730   6.698  16.295 -0.5365 -0.3837 -0.7086
13357TIP3    H161562   5.722   6.604  16.311  0.7203 -0.4474 -0.2977
13357TIP3    H261563   5.728   6.706  16.199  0.4587 -0.9623 -0.7890
13358TIP3   OH261564   5.589   1.306  16.219  0.1492 -0.1611  0.1668
13358TIP3    H161565   5.610   1.213  16.228 -1.4748 -0.6495 -0.6740
13358TIP3    H261566   5.559   1.333  16.305 -0.7979 -0.8210  0.0535
13359TIP3   OH261567   3.446   2.965  15.303  0.4485 -0.5467 -0.1814
13359TIP3    H161568   3.541   2.958  15.297  0.4516 -0.6116 -0.0376
13359TIP3    H261569   3.416   2.952  15.213  0.5224 -1.2716 -0.1041
13360TIP3   OH261570   4.633   2.922   0.752 -0.4272  0.0995  0.4170
13360TIP3    H161571   4.575   2.849   0.731 -1.1547  0.7677  0.0697
13360TIP3    H261572   4.642   2.970   0.670 -0.1643  0.5457  0.7066
13361TIP3   OH261573   2.669   3.995  13.539 -0.1745 -0.0160  0.4443
13361TIP3    H161574   2.687   3.904  13.560  0.7972  0.2395  0.8112
13361TIP3    H261575   2.749   4.026  13.495 -0.1510  0.8650  1.0726
13362TIP3   OH261576   4.219   2.643   0.342  0.5702  0.1045 -0.5825
13362TIP3    H161577   4.210   2.554   0.375 -0.5728  0.1265 -0.8177
13362TIP3    H261578   4.224   2.634   0.247 -1.5956  0.3966 -0.7747
13363TIP3   OH261579   2.350   4.534  15.739  0.0182  0.0879 -0.8404
13363TIP3    H161580   2.257   4.525  15.756  0.3774 -0.6416  0.8825
13363TIP3    H261581   2.381   4.444  15.725  0.6811  0.1861 -0.0998
13364TIP3   OH261582   2.082   3.259  13.001  0.7600  0.0592 -0.0730
13364TIP3    H161583   2.090   3.190  12.936 -0.1704  1.5254 -1.8489
13364TIP3    H261584   2.102   3.216  13.084 -0.4052 -2.4943 -0.9847
13365TIP3   OH261585   1.520   2.353  16.064  0.1399  0.3574 -0.1794
13365TIP3    H161586   1.444   2.410  16.080 -0.9891 -0.7235 -1.3851
13365TIP3    H261587   1.532   2.357  15.969  1.1686 -0.0394 -0.0740
13366TIP3   OH261588   3.780   4.203  15.846 -0.0200  0.2582  0.1515
13366TIP3    H161589   3.778   4.108  15.833 -0.1728  0.2751  0.0535
13366TIP3    H261590   3.802   4.214  15.938  1.2945  0.1405 -0.1242
13367TIP3   OH261591   0.634   6.128  14.273 -0.1320  0.6117 -0.1651
13367TIP3    H161592   0.713   6.174  14.246 -0.7852  1.5495 -0.5347
13367TIP3    H261593   0.609   6.075  14.197  1.4294 -1.5651  0.7458
13368TIP3   OH261594   3.277   2.650  11.993  0.1683  0.2303  0.1849
13368TIP3    H161595   3.250   2.611  11.910  1.9558 -0.0247 -0.3060
13368TIP3    H261596   3.205   2.630  12.053 -0.7327 -0.3761 -1.0537
13369TIP3   OH261597   0.853   5.834  11.153  0.6332  0.2306  0.0463
13369TIP3    H161598   0.805   5.916  11.138  0.1828 -0.0388  0.0114
13369TIP3    H261599   0.864   5.796  11.066  2.3245  1.0610 -0.1573
13370TIP3   OH261600   4.158   0.094  16.004 -0.2701  0.4465  0.3225
13370TIP3    H161601   4.090   0.067  16.066  0.9505 -1.4174  0.9263
13370TIP3    H261602   4.220   0.145  16.057  0.2830 -0.3371  0.4437
13371TIP3   OH261603   3.131   4.710  12.009  0.1998  0.1895  0.2593
13371TIP3    H161604   3.206   4.674  12.056 -0.5788 -0.6774  0.8944
13371TIP3    H261605   3.087   4.766  12.072 -1.1206 -1.3522  0.7977
13372TIP3   OH261606   4.638   4.239  10.926  0.2911  0.5953 -0.4284
13372TIP3    H161607   4.561   4.206  10.973  0.6399 -2.1351 -1.5793
13372TIP3    H261608   4.606   4.316  10.879 -1.3266  0.4341  0.3295
13373TIP3   OH261609   1.487   0.537  13.845 -0.8293  0.3303 -0.1109
13373TIP3    H161610   1.522   0.454  13.877  0.4807  0.8573 -0.1208
13373TIP3    H261611   1.477   0.524  13.751  1.3186  0.8081 -0.4568
13374TIP3   OH261612   1.664   4.880   1.755 -0.1242  0.0661 -0.1252
13374TIP3    H161613   1.687   4.970   1.779  2.2508 -0.3577 -0.4816
13374TIP3    H261614   1.605   4.889   1.680 -0.2845  1.3290  0.1336
13375TIP3   OH261615   6.388   1.594   5.304 -0.4696  0.0713 -0.3274
13375TIP3    H161616   6.480   1.572   5.320 -0.6838  0.5293  1.9199
13375TIP3    H261617   6.354   1.520   5.254  0.7180 -0.9173  0.2697
13376TIP3   OH261618   0.683   2.754   2.237 -0.2895  0.3547 -0.4738
13376TIP3    H161619   0.747   2.736   2.168 -1.4105  2.1229 -2.0820
13376TIP3    H261620   0.620   2.814   2.196 -2.8850 -1.1478  1.0836
13377TIP3   OH261621   3.502   1.161   3.371 -0.1357  0.0827 -0.5385
13377TIP3    H161622   3.471   1.093   3.430  1.3868 -1.4435 -1.3996
13377TIP3    H261623   3.542   1.227   3.429 -1.4169  0.1512  0.2934
13378TIP3   OH261624   4.256   2.956   3.863  0.2731  0.2068 -0.4701
13378TIP3    H161625   4.226   3.014   3.933  1.1476 -0.9955  0.9683
13378TIP3    H261626   4.176   2.930   3.818 -0.3279  0.9173  0.1479
13379TIP3   OH261627   4.702   2.941   3.514  0.3013  0.1977  0.5152
13379TIP3    H161628   4.773   2.885   3.546  0.0713  0.2230  1.0757
13379TIP3    H261629   4.692   2.916   3.422  0.4270 -0.4496  0.6716
13380TIP3   OH261630   1.733   4.431  14.633 -0.3650 -0.0316 -0.0982
13380TIP3    H161631   1.650   4.476  14.645 -0.1060 -0.1710  2.6922
13380TIP3    H261632   1.798   4.501  14.625 -0.3438  0.1137  1.2006
13381TIP3   OH261633   1.319   1.388   6.153  0.4039  0.1821  0.0478
13381TIP3    H161634   1.342   1.452   6.086  0.7775  0.7499  0.7028
13381TIP3    H261635   1.346   1.304   6.116 -1.3722  0.2002 -1.4106
13382TIP3   OH261636   2.842   3.123  11.822 -0.2146 -0.6181  0.0297
13382TIP3    H161637   2.763   3.081  11.788 -2.0677  1.5893  1.3486
13382TIP3    H261638   2.913   3.089  11.767 -2.3268 -1.1461 -2.5482
13383TIP3   OH261639   0.205   3.425   5.879 -0.1250 -0.7939 -0.4323
13383TIP3    H161640   0.295   3.442   5.905  0.1262 -1.9886 -0.4643
13383TIP3    H261641   0.154   3.434   5.960 -0.1827  1.1113 -0.6419
13384TIP3   OH261642   3.105   6.495  12.293 -0.4678 -0.5737 -0.1840
13384TIP3    H161643   3.130   6.412  12.252 -2.2193 -0.6137 -1.2974
13384TIP3    H261644   3.024   6.519  12.249 -0.7313  1.0391  1.0989
13385TIP3   OH261645   6.744   1.745   3.600 -0.2243  0.1078  0.8087
13385TIP3    H161646   6.777   1.665   3.560 -0.4906  1.4895 -2.4406
13385TIP3    H261647   6.663   1.718   3.644 -0.0747 -1.4980  0.1471
13386TIP3   OH261648   0.849   5.311   0.084  0.0687  0.2010  0.0967
13386TIP3    H161649   0.897   5.268   0.014 -1.6540 -1.0766 -0.3516
13386TIP3    H261650   0.814   5.391   0.044  2.0893  1.3677  0.5429
13387TIP3   OH261651   0.077   0.068   6.122 -0.6343 -0.6541  0.0086
13387TIP3    H161652   0.059  -0.003   6.184  1.4208  0.5616  2.1466
13387TIP3    H261653   0.169   0.056   6.098 -0.7314  0.3320 -0.9076
13388TIP3   OH261654   6.081   1.260   1.845  0.0514  0.4720 -0.6015
13388TIP3    H161655   6.074   1.183   1.789  0.0427  0.7374 -0.9741
13388TIP3    H261656   6.024   1.241   1.919  1.0797 -0.4376 -0.0174
13389TIP3   OH261657   4.003   3.158   1.047  0.3712  0.1096 -0.2962
13389TIP3    H161658   4.045   3.078   1.078  2.2268  0.4801 -1.6516
13389TIP3    H261659   4.023   3.223   1.116  0.1426 -0.2321  0.0967
13390TIP3   OH261660   2.094   0.694  14.408 -1.1313 -0.3713 -0.1203
13390TIP3    H161661   2.176   0.743  14.401 -1.3137  0.7199  3.2595
13390TIP3    H261662   2.045   0.718  14.330  0.8652  0.7068 -1.1261
13391TIP3   OH261663   5.074   4.405   4.256  0.6615  0.0884 -0.4823
13391TIP3    H161664   4.998   4.460   4.274  0.7890  0.1070  0.0158
13391TIP3    H261665   5.037   4.318   4.239  0.5154  0.1472 -0.4679
13392TIP3   OH261666   6.614   2.595  10.940 -0.2982  0.0570  0.3460
13392TIP3    H161667   6.572   2.680  10.951 -0.2501 -0.0526  1.5540
13392TIP3    H261668   6.707   2.615  10.935 -0.4075  0.2422 -1.6430
13393TIP3   OH261669   0.468   4.857  12.487 -0.2215  0.0170  0.2718
13393TIP3    H161670   0.446   4.940  12.529  2.5179  0.7840  0.3631
13393TIP3    H261671   0.558   4.839  12.514 -0.5003 -2.6664 -0.2963
13394TIP3   OH261672   4.338   4.591   5.162  0.5546 -0.4625  0.1101
13394TIP3    H161673   4.387   4.673   5.148  1.8498 -1.1603  0.3639
13394TIP3    H261674   4.331   4.552   5.076 -2.6336  1.2238 -0.5539
13395TIP3   OH261675   4.712   1.572  13.222  0.1903 -0.5084 -0.4468
13395TIP3    H161676   4.799   1.610  13.228 -0.1318  0.2090 -0.1318
13395TIP3    H261677   4.725   1.478  13.234  1.1668 -0.7032 -2.5381
13396TIP3   OH261678   3.608   0.810  15.843 -0.5104  0.5577 -0.6282
13396TIP3    H161679   3.529   0.778  15.886 -0.2002 -1.1348 -1.2015
13396TIP3    H261680   3.646   0.873  15.904 -1.8098  0.7031  0.0582
13397TIP3   OH261681   0.239   0.587   1.791  0.0363  0.1660  0.1060
13397TIP3    H161682   0.202   0.500   1.778 -0.8399  0.6565 -0.8336
13397TIP3    H261683   0.307   0.575   1.856 -2.1316 -0.7179  2.3717
13398TIP3   OH261684   4.229   1.201  16.173  0.4815 -0.7131  0.7706
13398TIP3    H161685   4.196   1.113  16.158  1.7336 -1.2559  1.0383
13398TIP3    H261686   4.153   1.252  16.200 -0.4316 -1.4760 -0.3051
13399TIP3   OH261687   3.952   6.568   6.382  0.0727  0.1121  0.1942
13399TIP3    H161688   4.037   6.609   6.368  0.6684 -0.4792  1.7709
13399TIP3    H261689   3.952   6.491   6.325  0.5288  0.2278  0.0381
13400TIP3   OH261690   3.045   1.357   3.680 -0.2244  0.4275  0.3102
13400TIP3    H161691   3.134   1.323   3.692 -1.5231 -3.4724  0.3351
13400TIP3    H261692   3.031   1.416   3.754  1.6377 -0.5893  1.5476
13401TIP3   OH261693   2.096   6.482   0.223  0.2956  0.0440  0.5822
13401TIP3    H161694   2.177   6.529   0.245 -0.2406  0.4066  1.8656
13401TIP3    H261695   2.057   6.461   0.307 -2.4404  2.4648  0.0750
13402TIP3   OH261696   6.637   0.671  14.302  0.7098  0.1168  0.1551
13402TIP3    H161697   6.561   0.711  14.345  1.2666 -1.3106  2.7043
13402TIP3    H261698   6.600   0.600  14.250  0.2066 -0.1223  0.8165
13403TIP3   OH261699   2.231   2.348  14.692 -0.1992  0.0325 -0.2000
13403TIP3    H161700   2.172   2.383  14.625  1.0118  4.6427  0.8341
13403TIP3    H261701   2.319   2.370  14.662  0.5327 -0.1397  1.6882
13404TIP3   OH261702   6.608   4.299   3.222  0.6719 -0.0083 -0.2718
13404TIP3    H161703   6.684   4.344   3.186 -0.7286  1.2839 -1.7984
13404TIP3    H261704   6.541   4.306   3.154 -0.8222 -1.0786  1.0009
13405TIP3   OH261705   1.252   0.746  14.318 -0.5947  0.4691 -0.4980
13405TIP3    H161706   1.281   0.836  14.304 -0.9281  0.4716 -1.2146
13405TIP3    H261707   1.323   0.692  14.285  0.0252  0.4486  0.8048
13406TIP3   OH261708   2.317   6.023  13.084 -0.1164 -0.2912  0.5624
13406TIP3    H161709   2.361   6.011  13.000  0.3869 -1.0373  0.9133
13406TIP3    H261710   2.273   6.107  13.077  0.0203 -0.2915 -0.4032
13407TIP3   OH261711   6.570   5.356   0.111 -0.5675  0.6229  0.3502
13407TIP3    H161712   6.577   5.390   0.200 -1.2457 -0.3623  0.7953
13407TIP3    H261713   6.652   5.382   0.069  0.7729 -0.8093  1.9355
13408TIP3   OH261714   3.443   1.302   5.369 -0.3365 -0.0277 -0.0167
13408TIP3    H161715   3.383   1.257   5.310  0.5234 -0.8747 -0.2856
13408TIP3    H261716   3.485   1.369   5.315 -0.7846  0.3376  0.0843
13409TIP3   OH261717   6.612   5.468   2.589 -0.1553 -0.3509 -0.0616
13409TIP3    H161718   6.648   5.556   2.600  1.4842 -0.8418 -1.2791
13409TIP3    H261719   6.675   5.410   2.631 -0.4637 -1.0867 -0.5924
13410TIP3   OH261720   5.652   1.135   6.148  0.4367  0.0198  0.1027
13410TIP3    H161721   5.694   1.178   6.222 -0.1639  0.1741  0.3602
13410TIP3    H261722   5.578   1.088   6.187 -0.8241  1.3654 -0.5767
13411TIP3   OH261723   0.535   1.409  16.914  0.6103 -0.8612 -0.2698
13411TIP3    H161724   0.529   1.323  16.954  2.3093 -0.9629 -0.1758
13411TIP3    H261725   0.529   1.393  16.820  1.9840 -1.2115 -0.3105
13412TIP3   OH261726   6.364   2.465   5.509  0.8624  0.3180  0.5582
13412TIP3    H161727   6.361   2.397   5.577  0.2496  0.2572  0.4740
13412TIP3    H261728   6.434   2.524   5.538  1.0887 -0.0980  0.8706
13413TIP3   OH261729   2.294   4.226  17.078  0.2147  0.1473 -0.1078
13413TIP3    H161730   2.288   4.230  16.982  1.2662  0.0772 -0.1922
13413TIP3    H261731   2.370   4.279  17.099  0.9334 -1.1003  0.5583
13414TIP3   OH261732   3.293   5.239  11.325  0.0380  0.9534 -0.5124
13414TIP3    H161733   3.360   5.229  11.256 -0.0038 -0.4872 -0.3742
13414TIP3    H261734   3.303   5.330  11.354  0.2583  1.5178 -2.2014
13415TIP3   OH261735   0.013   1.568  14.110 -0.7628 -0.0704  0.7676
13415TIP3    H161736   0.030   1.590  14.202 -0.0532 -0.0910  0.6492
13415TIP3    H261737   0.057   1.484  14.097  3.0160  1.8773 -0.6823
13416TIP3   OH261738   3.882   6.367  15.842 -0.1067 -0.9802 -0.0008
13416TIP3    H161739   3.796   6.357  15.802  0.5186 -1.3218 -1.3172
13416TIP3    H261740   3.890   6.461  15.859 -0.7267 -0.9451  0.1070
13417TIP3   OH261741   6.046   5.131   1.048 -0.0917  0.3322 -0.6476
13417TIP3    H161742   6.058   5.059   1.110  0.7144 -2.3601 -3.6429
13417TIP3    H261743   6.115   5.193   1.071  1.7228 -1.6996 -0.2009
13418TIP3   OH261744   3.940   2.764   4.689  0.0223  0.2241  0.4106
13418TIP3    H161745   3.845   2.762   4.678 -0.0655 -4.4945  0.1831
13418TIP3    H261746   3.974   2.779   4.601 -0.5829 -1.3404 -0.1209
13419TIP3   OH261747   3.359   6.424   0.692  0.2695  0.0026 -0.5139
13419TIP3    H161748   3.342   6.485   0.763 -0.5049 -2.7459  1.8583
13419TIP3    H261749   3.451   6.399   0.703  0.4805  0.4101 -1.2485
13420TIP3   OH261750   2.143   4.536  11.057  0.6292  0.5880 -0.6254
13420TIP3    H161751   2.069   4.577  11.012 -0.3737 -1.7857 -1.2761
13420TIP3    H261752   2.188   4.609  11.098 -2.2493  2.1425  0.0858
13421TIP3   OH261753   6.739   1.524  15.299  0.0291 -0.3079  0.3343
13421TIP3    H161754   6.821   1.572  15.299 -1.1219  1.9664  3.2085
13421TIP3    H261755   6.725   1.498  15.390 -2.0130 -1.4615 -0.2209
13422TIP3   OH261756   5.935   2.208   0.956  0.2319  0.3656 -0.1544
13422TIP3    H161757   5.946   2.298   0.926  1.7684  0.3099  0.1903
13422TIP3    H261758   5.840   2.199   0.970 -0.2896  1.0728 -2.7383
13423TIP3   OH261759   6.681   2.381   3.054  0.4777  0.2477  0.4306
13423TIP3    H161760   6.664   2.466   3.094  0.3342  0.0550  0.7864
13423TIP3    H261761   6.594   2.344   3.038  0.4939  0.8603 -1.2543
13424TIP3   OH261762   5.931   1.450  13.853 -0.0501 -0.1477  0.2023
13424TIP3    H161763   5.844   1.489  13.849 -1.4237 -2.7565  1.5856
13424TIP3    H261764   5.967   1.482  13.936  1.2281  2.4796 -1.2602
13425TIP3   OH261765   4.216   1.167   3.429 -0.2800 -0.3684 -0.8488
13425TIP3    H161766   4.226   1.135   3.340 -0.2171  1.3714 -1.5031
13425TIP3    H261767   4.255   1.254   3.428 -0.4752 -0.2270  0.8250
13426TIP3   OH261768   6.105   5.004   0.667 -0.9181  0.3084 -0.2462
13426TIP3    H161769   6.153   4.928   0.635 -2.3996  0.4826 -3.2394
13426TIP3    H261770   6.013   4.981   0.654 -1.5311  1.4864  1.6175
13427TIP3   OH261771   3.660   0.300   3.638  0.4273 -0.2439  0.3670
13427TIP3    H161772   3.710   0.329   3.561  0.1368 -0.1254  0.2223
13427TIP3    H261773   3.612   0.378   3.666  0.8709 -0.1720  0.9339
13428TIP3   OH261774   4.105   6.033  11.517  0.2549  0.3459  0.4197
13428TIP3    H161775   4.089   6.001  11.428  0.9903 -2.8086  1.2925
13428TIP3    H261776   4.018   6.048  11.554 -0.0979  0.2193 -0.3445
13429TIP3   OH261777   1.888   2.596  13.835  0.1865  0.0684 -0.2198
13429TIP3    H161778   1.859   2.517  13.882  0.3870  0.4545  0.5730
13429TIP3    H261779   1.983   2.594  13.843  0.2471 -0.0207 -0.8928
13430TIP3   OH261780   4.096   0.909  13.487 -0.6665 -0.1234  0.7089
13430TIP3    H161781   4.053   0.875  13.566 -0.3384  0.3214  1.0795
13430TIP3    H261782   4.186   0.876  13.493 -1.2777 -2.3103 -0.8063
13431TIP3   OH261783   2.807   5.924   5.113 -0.0551 -0.5783 -0.0130
13431TIP3    H161784   2.764   5.996   5.066 -1.6827 -1.6979 -0.3122
13431TIP3    H261785   2.901   5.939   5.098 -0.3552  1.2971 -0.3001
13432TIP3   OH261786   2.306   5.509   5.825 -0.3512 -0.1913  0.6219
13432TIP3    H161787   2.259   5.429   5.850 -2.1512  0.7706  0.4748
13432TIP3    H261788   2.240   5.578   5.830  0.8008  1.0625 -0.6380
13433TIP3   OH261789   5.319   5.531  14.106  0.5149 -0.4054  0.2778
13433TIP3    H161790   5.279   5.482  14.179 -0.1985 -0.1509  0.0707
13433TIP3    H261791   5.364   5.464  14.055 -1.8052 -1.1857 -0.9169
13434TIP3   OH261792   4.804   3.999  10.727 -0.7610  0.0659 -0.2384
13434TIP3    H161793   4.837   3.970  10.813  0.6756 -0.6652 -0.9958
13434TIP3    H261794   4.848   3.941  10.664 -0.8467  1.3804 -1.5502
13435TIP3   OH261795   5.579   6.193  15.292  0.9465  0.8307  0.1479
13435TIP3    H161796   5.584   6.108  15.250 -1.3934  1.0793 -0.7690
13435TIP3    H261797   5.540   6.176  15.378  0.0501  1.0020 -0.2146
13436TIP3   OH261798   6.592   2.310  12.403 -0.6239 -0.7902 -0.0206
13436TIP3    H161799   6.521   2.324  12.466  0.5087 -0.0115  1.1260
13436TIP3    H261800   6.583   2.383  12.342 -2.3178 -2.0680 -1.4073
13437TIP3   OH261801   2.273   4.909   5.673  0.1712 -0.3068  0.5651
13437TIP3    H161802   2.227   4.933   5.753 -0.5181 -1.7631  0.6326
13437TIP3    H261803   2.363   4.937   5.688 -0.0383 -0.1730  1.6843
13438TIP3   OH261804   6.179   6.084  16.159  0.0484  0.7186 -0.5039
13438TIP3    H161805   6.169   5.989  16.149  0.8241  0.7460 -1.7025
13438TIP3    H261806   6.107   6.109  16.217 -0.1325 -0.6079 -0.1080
13439TIP3   OH261807   5.612   6.760   4.663 -0.2444  0.4439  0.1229
13439TIP3    H161808   5.538   6.796   4.613 -0.0127  0.9980  0.1689
13439TIP3    H261809   5.572   6.713   4.736 -0.6600 -1.6245 -1.3393
13440TIP3   OH261810   0.451   2.418   0.161  0.1068  0.2808 -0.3668
13440TIP3    H161811   0.425   2.339   0.210  0.5824 -0.0154 -0.5850
13440TIP3    H261812   0.545   2.425   0.175 -0.3315  2.6218  2.2689
13441TIP3   OH261813   1.588   4.646   2.767  0.5013 -0.0617 -0.2820
13441TIP3    H161814   1.604   4.719   2.707 -1.1872  3.8774  3.4924
13441TIP3    H261815   1.643   4.664   2.842 -0.7109 -2.1802  1.2185
13442TIP3   OH261816   6.609   2.270   0.664  0.1366 -0.1128  0.5609
13442TIP3    H161817   6.681   2.213   0.691 -1.3083 -1.1495  2.5642
13442TIP3    H261818   6.605   2.337   0.732 -1.5921 -0.8903  1.3133
13443TIP3   OH261819   6.399   3.869   0.813 -0.2301 -0.4804  0.6595
13443TIP3    H161820   6.451   3.800   0.771 -0.2185 -1.2346  1.8427
13443TIP3    H261821   6.399   3.844   0.906  0.0786  1.3161  1.1762
13444TIP3   OH261822   2.956   1.075   3.962  0.3418  0.1904 -0.1992
13444TIP3    H161823   2.872   1.099   3.924 -0.5600 -1.4772  0.6521
13444TIP3    H261824   2.977   1.147   4.021 -0.7089  0.4125 -0.0801
13445TIP3   OH261825   0.578   4.843   4.844  0.3319 -0.1760  0.2065
13445TIP3    H161826   0.489   4.827   4.876 -0.2184  0.7149 -0.7784
13445TIP3    H261827   0.610   4.915   4.898  0.7264 -0.9277  1.0011
13446TIP3   OH261828   1.619   0.751   0.997  0.6770 -0.2003 -0.2134
13446TIP3    H161829   1.691   0.811   1.018 -0.1396  0.8205 -0.2347
13446TIP3    H261830   1.542   0.808   0.991 -0.3270 -1.3891  0.8406
13447TIP3   OH261831   5.685   0.334  12.670 -0.1100 -0.0389 -0.3595
13447TIP3    H161832   5.626   0.364  12.740 -0.2603 -3.1793  1.0584
13447TIP3    H261833   5.629   0.327  12.593 -0.1422  2.6600 -0.6622
13448TIP3   OH261834   0.436   3.440  15.747 -0.1224  0.2378 -0.9168
13448TIP3    H161835   0.350   3.467  15.781  0.9376  2.4536  0.2611
13448TIP3    H261836   0.453   3.356  15.790 -0.3846  1.2671  1.3613
13449TIP3   OH261837   6.140   5.931   5.476 -0.4419  0.2832  0.1964
13449TIP3    H161838   6.113   5.860   5.418  0.6573  0.8852 -1.1222
13449TIP3    H261839   6.065   5.991   5.477 -0.8274 -0.1984  0.1582
13450TIP3   OH261840   6.026   4.950   2.441 -0.0014  0.2297  0.1537
13450TIP3    H161841   6.103   4.904   2.407  0.2153  0.9848 -0.4063
13450TIP3    H261842   6.016   5.025   2.383  0.3237  1.5226  1.7132
13451TIP3   OH261843   1.933   0.892   4.570  0.4291  0.3006  0.6700
13451TIP3    H161844   1.859   0.948   4.594 -0.2673 -0.9053  1.4548
13451TIP3    H261845   1.931   0.820   4.633  0.7155 -1.1079 -0.8313
13452TIP3   OH261846   1.337   3.669  11.622 -0.3056 -0.1242 -0.1232
13452TIP3    H161847   1.375   3.695  11.706  0.3600  0.3594 -0.5686
13452TIP3    H261848   1.410   3.670  11.561 -0.8391 -0.1835 -0.7759
13453TIP3   OH261849   5.811   3.673   5.567 -0.1414 -0.0327 -0.0944
13453TIP3    H161850   5.885   3.681   5.628  0.3246  0.9646 -0.7664
13453TIP3    H261851   5.810   3.756   5.519 -1.9574  0.1370  0.1631
13454TIP3   OH261852   4.018   1.346   2.646  0.2273 -0.2804 -0.0685
13454TIP3    H161853   4.110   1.352   2.620  0.4751 -2.6119  0.0499
13454TIP3    H261854   4.010   1.258   2.684 -2.0505 -0.1147 -0.0446
13455TIP3   OH261855   6.292   4.876   1.945 -0.1154 -0.0460 -0.2061
13455TIP3    H161856   6.281   4.794   1.993 -0.4687 -1.3958 -2.4922
13455TIP3    H261857   6.353   4.855   1.875  1.2437  2.1626  0.2041
13456TIP3   OH261858   0.388   6.186   0.470  0.0941 -0.1476  0.9732
13456TIP3    H161859   0.318   6.249   0.486 -0.3046 -0.2783 -0.1957
13456TIP3    H261860   0.353   6.103   0.500 -0.0366 -0.1150  0.9117
13457TIP3   OH261861   5.529   5.282   2.683 -0.4086  0.4627 -0.0869
13457TIP3    H161862   5.484   5.337   2.746  0.1852  1.5479 -0.5877
13457TIP3    H261863   5.461   5.255   2.621 -0.6218  1.0163 -0.0979
13458TIP3   OH261864   0.204   4.779  16.266  0.0373  0.0701  0.1249
13458TIP3    H161865   0.130   4.723  16.246  0.1838  0.4807 -1.7052
13458TIP3    H261866   0.167   4.866  16.275  0.0842  0.0152  1.0005
13459TIP3   OH261867   2.987   5.292   3.643  0.0012  0.3873  0.3467
13459TIP3    H161868   2.908   5.241   3.662 -0.1527  0.5031  0.0186
13459TIP3    H261869   3.032   5.242   3.575  0.9636 -0.4497  1.5580
13460TIP3   OH261870   3.397   3.451  11.134 -0.0367  0.0899  0.0252
13460TIP3    H161871   3.492   3.445  11.118  0.0369  0.7443  0.1994
13460TIP3    H261872   3.361   3.376  11.086  0.6343 -0.5908  0.5475
13461TIP3   OH261873   0.931   1.441  12.383  0.2805 -0.7018  0.0545
13461TIP3    H161874   0.924   1.417  12.475 -1.2551  1.0960  0.4675
13461TIP3    H261875   1.023   1.460  12.370  0.8139 -2.5697  0.7467
13462TIP3   OH261876   6.581   6.503  14.606 -0.0204 -0.4688 -0.5073
13462TIP3    H161877   6.566   6.473  14.696 -2.3239 -0.7238 -0.9145
13462TIP3    H261878   6.646   6.442  14.571  1.1752 -0.1715  1.0436
13463TIP3   OH261879   1.225   1.967   0.312  0.0778 -0.7114 -0.0316
13463TIP3    H161880   1.143   1.938   0.352 -1.4481  1.4137 -1.4050
13463TIP3    H261881   1.225   2.062   0.322  1.4894 -0.4765 -1.6517
13464TIP3   OH261882   2.150   6.269   6.453  0.1698 -0.3057  0.1864
13464TIP3    H161883   2.133   6.224   6.370  1.4984  0.9781 -0.8569
13464TIP3    H261884   2.066   6.270   6.498 -0.7185 -0.5707 -1.4047
13465TIP3   OH261885   2.822   1.069  13.525 -0.4250 -0.0694  0.4904
13465TIP3    H161886   2.729   1.049  13.540 -0.6939  1.6362  1.3597
13465TIP3    H261887   2.821   1.130  13.451 -0.1333  0.9682  1.3209
13466TIP3   OH261888   3.506   3.167  11.547  0.5324  0.2559  0.7125
13466TIP3    H161889   3.438   3.177  11.613 -0.3011  0.5620 -0.1834
13466TIP3    H261890   3.501   3.075  11.520  0.1111  0.4121  0.2574
13467TIP3   OH261891   5.430   4.507  16.389 -0.5226  0.0732  0.1336
13467TIP3    H161892   5.397   4.457  16.315 -0.6932  0.1150  0.1834
13467TIP3    H261893   5.521   4.525  16.366  0.5026 -2.8029  1.3906
13468TIP3   OH261894   2.501   4.622  15.542 -0.3476  0.1255 -0.0732
13468TIP3    H161895   2.438   4.607  15.612 -0.9306  0.5049 -0.5101
13468TIP3    H261896   2.532   4.711  15.555 -1.3645  0.6426 -0.9876
13469TIP3   OH261897   6.790   4.624  16.228 -0.5744 -0.0576  0.2031
13469TIP3    H161898   6.734   4.554  16.261 -0.8652 -0.4753 -1.1181
13469TIP3    H261899   6.813   4.597  16.139  0.6769  0.7321  0.2618
13470TIP3   OH261900   5.007   5.745   5.037  0.0775  0.5094  0.5551
13470TIP3    H161901   5.047   5.820   5.081  0.9346  0.1189  0.4808
13470TIP3    H261902   5.073   5.718   4.973 -0.4303  0.0078  0.2383
13471TIP3   OH261903   1.998   4.930  13.069 -0.4861  0.1030  0.1610
13471TIP3    H161904   1.957   4.863  13.123  0.0973  1.5804  2.6115
13471TIP3    H261905   2.025   4.884  12.989  0.8873 -2.8416  2.1316
13472TIP3   OH261906   2.596   2.470   3.008  0.5021 -0.1542 -0.3795
13472TIP3    H161907   2.513   2.447   3.050 -0.1537 -0.6785 -1.8726
13472TIP3    H261908   2.644   2.387   3.003  1.0857  0.1235  0.3642
13473TIP3   OH261909   4.136   6.786   5.811 -0.1876 -0.5292  0.2576
13473TIP3    H161910   4.136   6.882   5.821 -0.2620 -0.5247  0.2190
13473TIP3    H261911   4.090   6.771   5.729 -0.6189 -0.6212  0.5107
13474TIP3   OH261912   5.877   3.729  12.490 -0.1117 -0.1505 -0.4467
13474TIP3    H161913   5.833   3.672  12.427 -3.9687  1.3180  0.6471
13474TIP3    H261914   5.930   3.788  12.435 -0.4710 -1.2059 -1.9962
13475TIP3   OH261915   0.047   4.199   0.712 -0.2992 -0.0760 -0.1557
13475TIP3    H161916   0.088   4.150   0.784  0.4394  0.0223 -0.4922
13475TIP3    H261917   0.062   4.144   0.635  0.7678  0.7788 -0.5806
13476TIP3   OH261918   3.149   0.257  16.322  0.4205  0.3450  0.1993
13476TIP3    H161919   3.116   0.251  16.232  1.1125 -0.2210 -0.0293
13476TIP3    H261920   3.098   0.193  16.371  1.4230 -0.8283 -0.2382
13477TIP3   OH261921   1.307   2.672   4.916 -0.0005 -0.0160  0.1172
13477TIP3    H161922   1.248   2.649   4.989 -0.6627 -2.0255 -0.9876
13477TIP3    H261923   1.327   2.765   4.931 -0.7213 -0.1473  2.4176
13478TIP3   OH261924   6.674   4.427  15.028  0.1807 -0.3706 -0.2654
13478TIP3    H161925   6.747   4.387  14.981 -0.8537 -0.6602 -1.6716
13478TIP3    H261926   6.659   4.369  15.103  0.8541 -0.7496 -0.4096
13479TIP3   OH261927   1.991   5.226  12.619  0.4876  0.1608 -0.2499
13479TIP3    H161928   2.070   5.220  12.564 -0.9256 -0.1107 -2.3543
13479TIP3    H261929   1.989   5.143  12.666  1.6903  0.3674  0.2244
13480TIP3   OH261930   5.148   4.254  16.389  0.2863 -0.6414 -0.2084
13480TIP3    H161931   5.229   4.265  16.338  0.4959 -0.4183  0.1641
13480TIP3    H261932   5.079   4.287  16.333  0.8807  2.8524  0.8896
13481TIP3   OH261933   1.622   0.082   0.585 -0.1117  0.3432  0.4309
13481TIP3    H161934   1.714   0.097   0.562 -0.2122  0.0968 -0.1462
13481TIP3    H261935   1.604   0.146   0.654  0.9799 -0.7828  1.8022
13482TIP3   OH261936   6.277   4.026  16.605 -0.6771  0.2090 -0.4754
13482TIP3    H161937   6.192   3.982  16.603 -0.0300 -1.1060 -0.1892
13482TIP3    H261938   6.291   4.057  16.516 -2.4405  2.4789 -0.0637
13483TIP3   OH261939   0.565   1.804   5.633  0.7641  0.2564 -0.2296
13483TIP3    H161940   0.514   1.879   5.663  0.0222 -0.5177  0.4740
13483TIP3    H261941   0.622   1.840   5.565  2.1212  1.9638  1.7006
13484TIP3   OH261942   0.737   2.495  14.152  0.0193 -0.3470  0.0948
13484TIP3    H161943   0.771   2.448  14.228 -0.4903 -1.5319 -0.3819
13484TIP3    H261944   0.666   2.549  14.188  2.1546  2.0403  1.0712
13485TIP3   OH261945   2.670   5.548   6.366 -0.2782 -0.3129  0.3542
13485TIP3    H161946   2.576   5.537   6.349 -0.4831 -0.7781  1.6876
13485TIP3    H261947   2.677   5.633   6.409  0.3198  1.1791 -2.3855
13486TIP3   OH261948   0.544   0.545  12.433 -0.2885  0.6602 -0.1632
13486TIP3    H161949   0.546   0.463  12.382 -0.7179  0.0303  0.8094
13486TIP3    H261950   0.549   0.614  12.366  0.5942 -0.1482 -0.9715
13487TIP3   OH261951   3.283   6.532   0.451 -0.0856 -0.2263 -0.1621
13487TIP3    H161952   3.293   6.468   0.522 -0.9937  1.0533  1.1835
13487TIP3    H261953   3.306   6.483   0.372 -0.2565 -2.0675  0.8511
13488TIP3   OH261954   2.423   4.951   4.148  0.4201 -0.3514 -0.0304
13488TIP3    H161955   2.345   4.981   4.195  1.5592 -0.1755  1.8403
13488TIP3    H261956   2.452   5.028   4.098 -0.5981 -0.4312 -0.7675
13489TIP3   OH261957   0.036   3.261   4.957 -0.9359  0.3876 -0.8254
13489TIP3    H161958   0.128   3.239   4.943 -1.2281 -1.0646 -0.7010
13489TIP3    H261959   0.020   3.238   5.049 -0.6801  3.5533  0.1125
13490TIP3   OH261960   5.143   5.487  12.324  0.0428  1.0258 -0.2868
13490TIP3    H161961   5.212   5.441  12.371  0.1974  0.4572 -1.0473
13490TIP3    H261962   5.185   5.518  12.243 -0.7465  0.0534 -1.0959
13491TIP3   OH261963   6.284   3.274  14.827 -0.2269 -0.1829 -0.0482
13491TIP3    H161964   6.188   3.270  14.833 -0.2809  0.1244 -0.6159
13491TIP3    H261965   6.310   3.183  14.811 -0.1851 -0.7917  2.8218
13492TIP3   OH261966   4.539   4.027  11.959  0.2108 -0.1667  0.4600
13492TIP3    H161967   4.576   4.052  11.874  0.1455 -0.3704  0.3709
13492TIP3    H261968   4.561   3.935  11.968 -0.5571 -0.3728  0.2619
13493TIP3   OH261969   0.437   1.918  15.469  0.1033  0.2147 -0.2961
13493TIP3    H161970   0.413   1.892  15.559  0.4173 -0.0224 -0.2811
13493TIP3    H261971   0.490   1.996  15.480 -1.4069  1.2908 -0.3746
13494TIP3   OH261972   1.578   3.745   1.151  0.0643 -0.1046  0.0717
13494TIP3    H161973   1.601   3.772   1.062 -1.6279 -1.6334 -0.9067
13494TIP3    H261974   1.661   3.746   1.198  1.0006  0.8147 -1.5050
13495TIP3   OH261975   5.485   2.770  13.861 -0.6983 -0.0595 -0.4782
13495TIP3    H161976   5.483   2.705  13.791  2.3977 -1.4891  0.5949
13495TIP3    H261977   5.539   2.841  13.826 -1.7849  0.7255 -0.6292
13496TIP3   OH261978   0.933   1.145  13.722  0.0438  0.1929  0.0551
13496TIP3    H161979   0.880   1.081  13.675 -0.1587 -0.8154  1.5733
13496TIP3    H261980   0.957   1.101  13.804  0.0447  2.0003  1.0814
13497TIP3   OH261981   1.258   3.633   6.504  0.4890 -0.7883  0.1359
13497TIP3    H161982   1.307   3.653   6.424 -0.8523  2.1021 -0.0943
13497TIP3    H261983   1.256   3.716   6.552  0.5092 -2.2311  2.7971
13498TIP3   OH261984   5.816   2.605  12.739  0.1807 -0.2552  0.8157
13498TIP3    H161985   5.856   2.524  12.708  0.7263 -0.0359  0.9422
13498TIP3    H261986   5.774   2.642  12.661  0.6403 -0.2445  0.5654
13499TIP3   OH261987   3.084   0.937   1.051  0.6871  0.0295 -0.2593
13499TIP3    H161988   3.076   0.903   1.140  1.3089 -0.6898 -0.4728
13499TIP3    H261989   2.993   0.942   1.020  0.5109 -0.3639  0.1751
13500TIP3   OH261990   2.051   3.337   5.920  0.5481  0.7608  0.6077
13500TIP3    H161991   2.050   3.413   5.861  1.5597  1.5052  1.5133
13500TIP3    H261992   2.012   3.369   6.001 -1.6366 -0.4994  0.1309
13501TIP3   OH261993   0.798   5.877   2.469  0.2752  0.0432 -0.9630
13501TIP3    H161994   0.817   5.867   2.375  0.9857 -0.5655 -0.7693
13501TIP3    H261995   0.771   5.789   2.496  1.7326 -0.2245 -0.2557
13502TIP3   OH261996   1.876   5.378   6.651  0.0287  0.2785 -0.5475
13502TIP3    H161997   1.800   5.343   6.605  0.4647 -0.5054 -0.6988
13502TIP3    H261998   1.932   5.302   6.666  1.0048  0.9084 -0.8627
13503TIP3   OH261999   0.266   1.734   2.626  0.6377 -0.0322 -0.4498
13503TIP3    H162000   0.325   1.803   2.657  1.2684 -0.9199  0.3775
13503TIP3    H262001   0.312   1.697   2.550  0.0257  0.8156 -1.2617
13504TIP3   OH262002   5.865   0.945   6.358  0.1691 -0.5839  0.1940
13504TIP3    H162003   5.808   0.871   6.378  0.5354 -1.3290 -1.3748
13504TIP3    H262004   5.809   1.022   6.365 -0.1674 -0.9513  2.0605
13505TIP3   OH262005   1.969   0.348  11.936  0.0553 -0.3964 -0.8588
13505TIP3    H162006   1.935   0.386  11.855  0.1779 -1.9703 -1.7032
13505TIP3    H262007   1.893   0.343  11.994 -0.1088  0.4388 -0.9903
13506TIP3   OH262008   5.039   6.283   5.783  0.4361 -0.2465  0.4521
13506TIP3    H162009   5.008   6.206   5.831  0.7791 -0.5955  0.1292
13506TIP3    H262010   5.125   6.257   5.749 -0.4982 -0.6574 -1.7943
13507TIP3   OH262011   1.752   0.480   2.435 -0.1650 -0.3184  0.0879
13507TIP3    H162012   1.722   0.524   2.356 -1.4239 -2.1459 -0.4933
13507TIP3    H262013   1.706   0.525   2.506 -0.5584  0.0372 -0.3830
13508TIP3   OH262014   5.409   6.418   2.988 -0.1666  0.3560 -0.3227
13508TIP3    H162015   5.503   6.410   2.968  0.1927  0.6139  1.1128
13508TIP3    H262016   5.406   6.482   3.059 -1.6794  2.1831 -1.9655
13509TIP3   OH262017   5.084   0.678   1.305  0.1355 -0.6311 -0.4334
13509TIP3    H162018   5.056   0.600   1.256 -0.3321 -0.7297 -0.0143
13509TIP3    H262019   5.174   0.659   1.329 -0.5468 -1.9087  1.3360
13510TIP3   OH262020   2.872   6.230  11.861  0.1955 -0.4080 -1.1214
13510TIP3    H162021   2.794   6.267  11.821 -1.3988  0.5899  2.4695
13510TIP3    H262022   2.923   6.306  11.888 -0.0840 -0.8740  0.8846
13511TIP3   OH262023   0.377   1.200   4.708 -0.2709  0.0833  0.0970
13511TIP3    H162024   0.406   1.109   4.698  0.0463 -0.1865  2.9144
13511TIP3    H262025   0.458   1.248   4.727 -0.6198  0.7592 -0.0985
13512TIP3   OH262026   2.778   1.822   3.427 -0.1852 -0.6947 -0.1567
13512TIP3    H162027   2.817   1.890   3.372 -0.3838 -0.7015 -0.3093
13512TIP3    H262028   2.777   1.859   3.515 -0.3741 -0.4621 -0.2542
13513TIP3   OH262029   4.278   6.277   2.707 -0.1276 -0.0509  0.4142
13513TIP3    H162030   4.251   6.347   2.766  0.7523  0.2832  0.4318
13513TIP3    H262031   4.328   6.218   2.763  0.6426  0.2265  0.0222
13514TIP3   OH262032   5.970   0.004  15.187  0.0000  0.7366  0.1870
13514TIP3    H162033   5.934   0.091  15.173 -1.1941 -0.0904 -2.6392
13514TIP3    H262034   6.003  -0.022  15.101 -0.0790 -1.7639  0.8415
13515TIP3   OH262035   1.671   5.900  15.449  0.3191  0.4517 -0.6420
13515TIP3    H162036   1.579   5.904  15.421  0.4923  1.2708 -1.1258
13515TIP3    H262037   1.666   5.897  15.545 -0.2259 -0.3607 -0.6794
13516TIP3   OH262038   6.056   2.244  13.811 -0.4955  0.1559  0.1540
13516TIP3    H162039   6.130   2.301  13.834  0.0997 -1.4686  2.7085
13516TIP3    H262040   6.096   2.160  13.788 -1.4769 -0.2100 -0.2959
13517TIP3   OH262041   6.277   5.384   3.164 -0.1125  0.5834 -0.1634
13517TIP3    H162042   6.274   5.355   3.255  1.7624  0.6808 -0.0305
13517TIP3    H262043   6.195   5.353   3.126 -0.9079  0.5011  1.5400
13518TIP3   OH262044   5.951   2.971  12.083  0.1071 -0.2654 -0.1979
13518TIP3    H162045   5.932   2.976  12.176 -0.3564  2.3033 -0.3504
13518TIP3    H262046   5.875   2.927  12.045  0.0295 -0.8054  0.5670
13519TIP3   OH262047   5.596   0.978  15.487  0.3316  0.5599 -0.5219
13519TIP3    H162048   5.597   1.020  15.401 -0.4779  0.4249 -0.6050
13519TIP3    H262049   5.645   1.038  15.543 -0.8225  1.6539 -0.6349
13520TIP3   OH262050   6.774   5.063   3.168  0.3306 -0.7485  0.6934
13520TIP3    H162051   6.769   5.103   3.255 -0.4433  0.9388 -0.0620
13520TIP3    H262052   6.852   5.103   3.128 -0.2491 -0.2331  0.0502
13521TIP3   OH262053   2.653   3.503   1.435  0.2456  0.5012  0.0342
13521TIP3    H162054   2.642   3.517   1.341 -0.5950  0.6669  0.1492
13521TIP3    H262055   2.744   3.477   1.445  0.2686  0.2012 -0.8661
13522TIP3   OH262056   0.605   5.326   2.169 -0.1667 -0.4998 -0.2667
13522TIP3    H162057   0.656   5.351   2.092 -1.0093  0.7269 -0.4679
13522TIP3    H262058   0.545   5.258   2.138  0.8865 -1.4775 -0.1839
13523TIP3   OH262059   4.151   2.449   1.096  0.0377 -0.1358  0.0984
13523TIP3    H162060   4.160   2.497   1.013  0.6583  0.7980  0.6771
13523TIP3    H262061   4.240   2.423   1.118 -0.1088 -0.2920  0.5198
13524TIP3   OH262062   1.131   4.232   4.819 -0.1194 -0.3877  0.4108
13524TIP3    H162063   1.149   4.314   4.865 -0.6930  0.9051 -1.5231
13524TIP3    H262064   1.163   4.164   4.877  1.8214  1.2844  1.4249
13525TIP3   OH262065   6.069   3.031  13.612 -0.5852  0.3537  0.2393
13525TIP3    H162066   6.033   2.944  13.629 -2.8118  1.0076 -0.7291
13525TIP3    H262067   6.036   3.055  13.526  1.9965  1.2284 -0.5973
13526TIP3   OH262068   6.391   2.743  15.945  0.2698 -0.6029 -0.0266
13526TIP3    H162069   6.468   2.790  15.910  0.5624 -0.3415  0.9426
13526TIP3    H262070   6.364   2.686  15.873  1.0314 -0.2834 -0.5878
13527TIP3   OH262071   1.778   2.616   2.106  0.1410  0.3072  0.0522
13527TIP3    H162072   1.788   2.570   2.189  0.1325  0.6359  0.2374
13527TIP3    H262073   1.855   2.673   2.101 -1.2442  2.3880  1.1816
13528TIP3   OH262074   6.186   2.592   1.220  0.0013  0.1671  0.3785
13528TIP3    H162075   6.131   2.670   1.215  0.6768  0.5911 -0.8296
13528TIP3    H262076   6.275   2.625   1.214  0.3612 -0.5993  1.2502
13529TIP3   OH262077   6.264   4.790  16.964  0.2488 -0.2272  0.0580
13529TIP3    H162078   6.304   4.807  17.050  0.8671  0.5591 -0.3730
13529TIP3    H262079   6.233   4.699  16.970 -0.3808  0.0542  1.3641
13530TIP3   OH262080   6.431   1.862   0.427 -0.1164  0.4386 -0.4779
13530TIP3    H162081   6.477   1.798   0.373 -1.4076 -1.7185  0.8568
13530TIP3    H262082   6.398   1.812   0.502  0.5426  3.0647  1.7192
13531TIP3   OH262083   6.394   3.974  16.887 -0.2685 -0.1448 -0.4657
13531TIP3    H162084   6.372   4.060  16.922 -0.9628 -0.7293  0.6202
13531TIP3    H262085   6.352   3.971  16.802 -0.2884  0.5710 -0.4839
13532TIP3   OH262086   0.281   0.277   3.021 -0.0071 -0.0353  0.1427
13532TIP3    H162087   0.223   0.204   3.003 -0.9022  0.6977 -0.0108
13532TIP3    H262088   0.292   0.321   2.937  1.0691 -0.3679  0.0946
13533TIP3   OH262089   4.372   4.637   1.280  0.6987  0.5603  0.2949
13533TIP3    H162090   4.425   4.563   1.251  2.0815  1.1230  1.2540
13533TIP3    H262091   4.290   4.628   1.232  0.8677 -1.5198  0.2876
13534TIP3   OH262092   0.790   5.671   3.580 -0.0958 -0.3225 -0.3119
13534TIP3    H162093   0.785   5.576   3.590  0.4875 -0.4515 -1.1260
13534TIP3    H262094   0.735   5.690   3.503 -0.7509  0.0851  0.2411
13535TIP3   OH262095   1.798   0.048   1.810 -0.3575  0.5386 -0.0212
13535TIP3    H162096   1.835   0.136   1.804 -1.1729  0.9138  0.2681
13535TIP3    H262097   1.734   0.044   1.739 -2.3568  1.2214  1.6338
13536TIP3   OH262098   4.111   6.666  15.568 -0.1449 -0.1511 -0.1759
13536TIP3    H162099   4.111   6.571  15.581 -1.2488 -0.4749 -2.1331
13536TIP3    H262100   4.106   6.703  15.656  1.0114 -1.8787  0.6675
13537TIP3   OH262101   4.732   1.699   2.860  0.3135  0.5481  0.0539
13537TIP3    H162102   4.711   1.791   2.844 -0.8513  0.2400 -0.3400
13537TIP3    H262103   4.646   1.656   2.865  0.7887 -0.3103  1.5435
13538TIP3   OH262104   1.281   4.621  15.005  0.3640  0.3676 -0.0304
13538TIP3    H162105   1.332   4.696  15.036 -0.3610  1.9358 -2.2596
13538TIP3    H262106   1.244   4.652  14.921  0.3646 -2.6605 -1.2567
13539TIP3   OH262107   1.020   0.601   1.796  0.2716  0.4986 -0.5409
13539TIP3    H162108   0.954   0.623   1.730  1.4234  2.5551 -1.0978
13539TIP3    H262109   1.021   0.675   1.856 -0.0375 -0.8918  1.2586
13540TIP3   OH262110   0.730   5.048   0.168 -0.5942 -0.3247 -0.3707
13540TIP3    H162111   0.677   5.087   0.237  0.0582  0.4356 -0.2904
13540TIP3    H262112   0.777   5.121   0.129 -0.0973 -0.8962 -0.8715
13541TIP3   OH262113   0.059   2.700  16.159 -0.3792 -0.3656  0.3777
13541TIP3    H162114   0.134   2.648  16.187 -0.3052 -1.3093 -1.4772
13541TIP3    H262115   0.081   2.790  16.186  2.3472 -0.2566 -1.8340
13542TIP3   OH262116   0.869   0.105   2.697  0.3479  0.0089 -0.7007
13542TIP3    H162117   0.865   0.017   2.734 -0.7288 -0.5488 -2.0475
13542TIP3    H262118   0.904   0.092   2.609 -1.3101  0.6952 -1.5035
13543TIP3   OH262119   6.149   4.134  15.615  0.4771 -0.0202  0.5227
13543TIP3    H162120   6.131   4.141  15.521  0.6836  2.2478  0.5871
13543TIP3    H262121   6.156   4.040  15.632  0.1916 -0.4829 -1.6737
13544TIP3   OH262122   3.772   1.172  17.141 -0.0284 -0.5031  0.4648
13544TIP3    H162123   3.849   1.217  17.107  0.1392  1.0894  2.7328
13544TIP3    H262124   3.738   1.122  17.067  2.7696 -0.7001 -0.7862
13545TIP3   OH262125   4.618   0.819  10.525 -0.1995 -0.1914 -1.3550
13545TIP3    H162126   4.554   0.774  10.580  0.7451  1.1723  1.0572
13545TIP3    H262127   4.670   0.749  10.487  1.2783 -1.3564  2.3236
13546TIP3   OH262128   6.186   0.183  11.439 -0.1342 -0.7701  0.0991
13546TIP3    H162129   6.185   0.088  11.431 -0.2188 -0.9256  1.6692
13546TIP3    H262130   6.261   0.202  11.495 -0.7244 -0.0044  0.6590
13547TIP3   OH262131   5.402   5.235   4.063  0.4216  0.2656 -0.1701
13547TIP3    H162132   5.378   5.221   3.971  0.9346  0.4809 -0.3441
13547TIP3    H262133   5.495   5.258   4.060  0.1214  1.6355  0.2706
13548TIP3   OH262134   0.368   3.980  11.654 -0.0092 -0.0608  0.1910
13548TIP3    H162135   0.304   4.050  11.666 -0.2235 -0.4522  1.5241
13548TIP3    H262136   0.339   3.935  11.575 -2.4719 -1.2980  1.6556
13549TIP3   OH262137   3.728   2.879  13.645  0.3543 -0.9193  0.0029
13549TIP3    H162138   3.775   2.920  13.572 -0.6501  0.4935  0.1049
13549TIP3    H262139   3.771   2.913  13.723 -0.7671  0.4054  0.0978
13550TIP3   OH262140   5.419   1.512   4.988 -0.2342 -0.8422 -0.4696
13550TIP3    H162141   5.496   1.468   5.026 -1.1053 -1.7251  0.3308
13550TIP3    H262142   5.455   1.591   4.947  1.2399 -1.7652 -1.0506
13551TIP3   OH262143   4.955   2.063   3.794 -0.2550  0.2600  0.3094
13551TIP3    H162144   4.964   2.023   3.707  0.3502  1.4039 -0.1660
13551TIP3    H262145   5.026   2.025   3.846 -0.7588 -0.6029  0.3939
13552TIP3   OH262146   2.900   0.307   6.089  0.0884  0.3956 -0.6399
13552TIP3    H162147   2.971   0.371   6.080  1.0495 -0.6016 -0.3241
13552TIP3    H262148   2.862   0.325   6.174  1.3952 -0.4385  0.1551
13553TIP3   OH262149   6.428   5.817   4.435  0.1027  0.0441 -0.2930
13553TIP3    H162150   6.459   5.859   4.516 -0.4623  0.6263 -0.3660
13553TIP3    H262151   6.332   5.816   4.445  0.1240 -2.0362  0.0941
13554TIP3   OH262152   1.863   5.485  14.808  0.1639 -0.0630 -0.0279
13554TIP3    H162153   1.887   5.406  14.858  2.9445 -0.4885 -1.7927
13554TIP3    H262154   1.811   5.452  14.735  0.3315 -0.0907 -0.1338
13555TIP3   OH262155   3.131   2.533   4.283 -0.2902  0.4040 -0.1048
13555TIP3    H162156   3.047   2.487   4.283  1.2965 -2.8950 -2.7834
13555TIP3    H262157   3.121   2.600   4.215 -0.2405 -1.3181 -1.9047
13556TIP3   OH262158   5.687   1.738   4.469  0.1836  0.0948  0.2798
13556TIP3    H162159   5.596   1.751   4.443  0.0345  1.5588  1.4029
13556TIP3    H262160   5.733   1.722   4.387 -0.7867  1.2568 -0.5263
13557TIP3   OH262161   4.767   2.829  15.802 -0.4246  1.0432  0.0060
13557TIP3    H162162   4.813   2.909  15.827 -0.1965  1.0215 -0.3468
13557TIP3    H262163   4.689   2.828  15.859  0.7514  0.2999  1.6830
13558TIP3   OH262164   3.610   1.021   2.823 -0.3619 -0.6844 -0.3599
13558TIP3    H162165   3.680   1.041   2.761 -1.2012 -0.5573 -1.3007
13558TIP3    H262166   3.537   1.077   2.795 -0.6463 -0.3671  0.9705
13559TIP3   OH262167   0.813   0.979   1.788 -0.8221  0.3358  0.2089
13559TIP3    H162168   0.760   1.012   1.861 -0.9942 -0.5681  0.4972
13559TIP3    H262169   0.782   1.029   1.712 -1.9445 -0.0205  0.4111
13560TIP3   OH262170   2.490   2.286   2.109 -0.5404 -0.1281 -0.2617
13560TIP3    H162171   2.516   2.194   2.105  0.4441 -0.0065  2.0612
13560TIP3    H262172   2.402   2.285   2.146 -0.8620 -0.1631 -1.0165
13561TIP3   OH262173   1.860   1.053   1.293  0.0853 -0.3307  0.1382
13561TIP3    H162174   1.904   0.981   1.247  2.7739  1.6269 -0.5978
13561TIP3    H262175   1.827   1.109   1.223 -0.4264  0.0481  0.6752
13562TIP3   OH262176   6.691   3.576   3.228 -0.6419  0.2237  0.2629
13562TIP3    H162177   6.648   3.629   3.295 -0.7772  0.7154 -0.2028
13562TIP3    H262178   6.759   3.634   3.193 -0.4037 -0.1196  0.1507
13563TIP3   OH262179   4.730   5.839   1.745  0.0085 -0.3956  0.3391
13563TIP3    H162180   4.721   5.902   1.673  1.0519  0.2470  0.7436
13563TIP3    H262181   4.646   5.794   1.748 -0.5956  0.6445 -0.2887
13564TIP3   OH262182   0.662   5.277   3.876  0.5554  0.3349  0.0418
13564TIP3    H162183   0.668   5.361   3.922  0.0209 -0.2235  1.1722
13564TIP3    H262184   0.568   5.262   3.866  0.5972 -0.7277  1.0243
13565TIP3   OH262185   3.178   3.384  17.093 -0.0300  0.7228 -0.7863
13565TIP3    H162186   3.264   3.366  17.054  0.2711  0.0889  0.1453
13565TIP3    H262187   3.116   3.335  17.039  0.2360  0.8686 -1.2281
13566TIP3   OH262188   1.977   5.429  13.142  0.0680  0.0413  0.0597
13566TIP3    H162189   1.920   5.504  13.158 -0.1520 -0.3770  1.3662
13566TIP3    H262190   1.921   5.366  13.095  0.2403  0.6531 -0.9944
13567TIP3   OH262191   2.478   0.079   3.025  1.2140  0.2396 -0.3460
13567TIP3    H162192   2.467   0.082   2.930 -1.6574  1.2339 -0.0961
13567TIP3    H262193   2.429   0.155   3.057  1.4437 -0.5062  1.9830
13568TIP3   OH262194   0.043   0.392   5.145 -0.0456 -0.5985 -0.1540
13568TIP3    H162195   0.124   0.399   5.195  0.4215 -0.5942 -0.9024
13568TIP3    H262196  -0.008   0.469   5.171 -0.4130 -1.3064  1.3453
13569TIP3   OH262197   2.660   1.238   5.198  0.0347 -0.5613 -0.1883
13569TIP3    H162198   2.630   1.252   5.108 -0.8124  2.4069  0.4611
13569TIP3    H262199   2.755   1.244   5.193 -0.0521  0.4248 -0.7720
13570TIP3   OH262200   0.698   5.674   6.478  0.1231 -0.3982 -0.0447
13570TIP3    H162201   0.692   5.583   6.450 -0.6236 -1.0274  1.9636
13570TIP3    H262202   0.610   5.709   6.461 -1.2371 -1.5381  3.5754
13571TIP3   OH262203   0.877   3.962  15.301 -0.1741 -0.9764 -0.4327
13571TIP3    H162204   0.832   3.986  15.382 -2.2909  0.9914 -2.0485
13571TIP3    H262205   0.968   3.991  15.314 -0.5829 -0.2577  1.0509
13572TIP3   OH262206   1.233   4.958   4.776  0.2313  0.4211 -0.3110
13572TIP3    H162207   1.188   5.035   4.809 -0.8040  0.1748 -1.0939
13572TIP3    H262208   1.321   4.963   4.814  0.0480  1.7519 -0.0218
13573TIP3   OH262209   0.196   4.399   1.190 -0.2426  0.1321  0.4489
13573TIP3    H162210   0.134   4.385   1.118  0.2741 -1.8698  0.3364
13573TIP3    H262211   0.150   4.367   1.267  0.0548  0.1324  0.6268
13574TIP3   OH262212   0.901   0.541  11.197  0.3139  0.1969 -0.2104
13574TIP3    H162213   0.945   0.461  11.168 -0.9354 -0.4657 -0.3166
13574TIP3    H262214   0.961   0.579  11.261  0.9742 -0.7602 -0.2385
13575TIP3   OH262215   1.062   1.704   5.423 -0.2820  0.0788 -0.6554
13575TIP3    H162216   0.999   1.645   5.382 -0.4694 -0.0033 -0.2560
13575TIP3    H262217   1.008   1.769   5.469 -0.0768  0.4522 -0.9408
13576TIP3   OH262218   4.113   5.310   5.612 -0.2297  0.9277  0.3490
13576TIP3    H162219   4.037   5.359   5.645 -0.4476  1.0257 -0.2853
13576TIP3    H262220   4.156   5.372   5.553  0.3534  0.8730  0.7071
13577TIP3   OH262221   2.261   1.266  16.853  0.3648 -0.2015  0.3729
13577TIP3    H162222   2.234   1.333  16.916  1.3046 -2.1308  2.9853
13577TIP3    H262223   2.190   1.264  16.789 -1.8583  0.2562  2.6555
13578TIP3   OH262224   1.392   0.439   0.544  0.6376  0.4232  0.0992
13578TIP3    H162225   1.323   0.501   0.570  0.5148  0.3359 -0.0169
13578TIP3    H262226   1.472   0.490   0.548  0.1752  1.6948 -3.5886
13579TIP3   OH262227   3.715   4.604   5.278 -0.5172  0.9005 -0.5760
13579TIP3    H162228   3.723   4.575   5.187 -0.8076  2.6057 -1.1844
13579TIP3    H262229   3.622   4.592   5.298 -1.2574  3.7063 -1.7419
13580TIP3   OH262230   5.430   4.558  13.103  0.0752 -0.2182 -0.3513
13580TIP3    H162231   5.446   4.499  13.177  1.4288 -0.8468 -1.1206
13580TIP3    H262232   5.501   4.541  13.042  2.7901  4.7196  0.9061
13581TIP3   OH262233   4.271   6.531  15.313 -0.0030  0.1694 -0.3375
13581TIP3    H162234   4.176   6.524  15.299 -0.3329  1.1587  1.1990
13581TIP3    H262235   4.284   6.507  15.404  1.1349  0.7732 -0.3195
13582TIP3   OH262236   2.262   1.928  14.275 -0.7189  0.0565 -0.2277
13582TIP3    H162237   2.324   1.937  14.202 -0.8001  0.5662 -0.2344
13582TIP3    H262238   2.313   1.883  14.343 -0.9421 -1.3568 -0.9512
13583TIP3   OH262239   1.878   6.032  14.910  0.1656  0.4394  0.5961
13583TIP3    H162240   1.888   5.944  14.874 -2.5051 -0.1363  1.0695
13583TIP3    H262241   1.920   6.089  14.845  0.9335 -1.0620 -0.2841
13584TIP3   OH262242   5.913   0.614   4.909 -0.0792 -0.2837 -0.4063
13584TIP3    H162243   5.956   0.594   4.826  0.1981  1.3256 -0.6753
13584TIP3    H262244   5.855   0.539   4.925  0.2445 -0.8448 -1.7888
13585TIP3   OH262245   1.113   5.958  12.479  0.4068 -0.6593  0.1210
13585TIP3    H162246   1.190   6.014  12.479  1.0833 -1.5309  1.2151
13585TIP3    H262247   1.045   6.010  12.521  0.4504  0.0287 -0.6322
13586TIP3   OH262248   4.916   4.776  10.566 -0.0351 -0.0832  0.0990
13586TIP3    H162249   4.954   4.823  10.640 -0.6916  2.0842 -0.8500
13586TIP3    H262250   4.958   4.815  10.489  0.9976 -2.6133 -0.7234
13587TIP3   OH262251   6.564   0.475  12.202  0.0921 -0.4170 -0.0789
13587TIP3    H162252   6.575   0.558  12.155  0.2841  0.8856  2.1468
13587TIP3    H262253   6.636   0.473  12.265 -0.8893 -1.4837  1.0565
13588TIP3   OH262254   6.039   5.225   3.088 -0.4998 -0.3345  0.1078
13588TIP3    H162255   5.994   5.144   3.112 -1.4201  0.4123  1.0468
13588TIP3    H262256   6.022   5.284   3.162  1.5157  0.2031  0.2110
13589TIP3   OH262257   0.695   3.732   2.050  0.5549  0.1363 -0.2035
13589TIP3    H162258   0.618   3.686   2.018  1.8471 -0.9741 -1.8841
13589TIP3    H262259   0.668   3.768   2.135 -1.6450 -0.5788 -0.5424
13590TIP3   OH262260   2.043   3.346  12.437 -0.0330  0.3564 -0.4110
13590TIP3    H162261   2.119   3.295  12.409 -0.0605 -0.1330  0.3745
13590TIP3    H262262   1.974   3.281  12.452 -1.2986  0.9476 -3.1420
13591TIP3   OH262263   6.027   4.842   1.166  0.5753  0.2966  0.1796
13591TIP3    H162264   6.064   4.772   1.219  1.1559  0.7265  0.3585
13591TIP3    H262265   5.934   4.842   1.186  0.8688  0.8282  1.6589
13592TIP3   OH262266   2.536   3.189  13.111 -0.4541  0.0874 -1.3829
13592TIP3    H162267   2.480   3.266  13.115  2.0577  1.9993 -0.5438
13592TIP3    H262268   2.547   3.172  13.018  1.4270  2.7986 -1.7756
13593TIP3   OH262269   1.248   4.558   1.989 -0.4108  0.2856  0.3730
13593TIP3    H162270   1.254   4.628   1.925  0.1917 -0.6126 -0.5938
13593TIP3    H262271   1.185   4.589   2.053 -0.9886  1.2348 -0.6241
13594TIP3   OH262272   3.087   4.736   1.601 -0.6717 -0.8098  0.3936
13594TIP3    H162273   3.078   4.720   1.507 -0.6825  0.0321  0.2450
13594TIP3    H262274   3.182   4.734   1.617 -0.6447 -0.4778  0.2764
13595TIP3   OH262275   0.203   4.034   0.888 -0.1424 -0.2659  1.1245
13595TIP3    H162276   0.273   4.049   0.825  1.0140 -0.2205  2.3883
13595TIP3    H262277   0.234   4.075   0.969 -3.0227  2.7195  0.9305
13596TIP3   OH262278   5.153   5.801  14.805 -0.2028 -0.0190  0.2927
13596TIP3    H162279   5.103   5.749  14.868  0.4088 -0.8418  0.1186
13596TIP3    H262280   5.226   5.744  14.780 -0.7439  0.0489 -1.5980
13597TIP3   OH262281   2.430   2.553  14.200 -0.4493 -0.8121  0.1563
13597TIP3    H162282   2.498   2.523  14.261 -0.7572 -0.6499  0.5775
13597TIP3    H262283   2.370   2.479  14.192 -1.4241 -0.2102  1.4990
13598TIP3   OH262284   2.369   5.072   2.154 -0.3219  0.3843 -0.2896
13598TIP3    H162285   2.438   5.093   2.217 -2.4609  0.9877  2.0557
13598TIP3    H262286   2.370   4.976   2.150 -1.5290  0.1295  2.5719
13599TIP3   OH262287   0.788   1.575  15.016 -0.2111 -0.6068 -0.2018
13599TIP3    H162288   0.729   1.643  15.049 -0.1359 -0.9935  0.7533
13599TIP3    H262289   0.856   1.623  14.970  0.3181  0.0404  1.2015
13600TIP3   OH262290   0.810   0.073  15.204  0.6238  0.4656 -0.2595
13600TIP3    H162291   0.717   0.091  15.189  1.0848  1.4630 -2.1834
13600TIP3    H262292   0.854   0.105  15.125  2.3820 -1.9566 -0.3911
13601TIP3   OH262293   1.524   4.336   5.642  0.0747  0.1486 -0.3724
13601TIP3    H162294   1.571   4.404   5.593 -1.1327  0.6601 -0.8602
13601TIP3    H262295   1.519   4.371   5.731  0.8884 -0.0659 -0.2305
13602TIP3   OH262296   4.062   6.049  11.255 -0.2332  0.0448 -0.0916
13602TIP3    H162297   4.111   6.017  11.179 -0.0769 -1.0635  0.4554
13602TIP3    H262298   4.086   6.141  11.263  1.3150 -0.3398 -0.1705
13603TIP3   OH262299   2.807   6.636   2.758  0.3099  0.0553  0.2448
13603TIP3    H162300   2.856   6.629   2.676  1.6278  0.4056  0.9611
13603TIP3    H262301   2.866   6.685   2.816  0.2333 -1.8210  2.0128
13604TIP3   OH262302   2.875   0.543   4.586  0.0179 -0.0142 -0.2237
13604TIP3    H162303   2.931   0.573   4.514 -0.8224  2.0080 -0.0967
13604TIP3    H262304   2.909   0.587   4.663  0.3422 -1.4592  0.4908
13605TIP3   OH262305   6.749   3.169   4.442 -0.9957  0.5168  0.2843
13605TIP3    H162306   6.727   3.077   4.428 -1.5214  0.7910 -0.7544
13605TIP3    H262307   6.771   3.174   4.535 -1.0766 -0.6286  0.3831
13606TIP3   OH262308   3.066   0.156   1.950  0.0984  0.1435  0.4150
13606TIP3    H162309   3.005   0.189   2.016  0.3936  0.7917  0.3648
13606TIP3    H262310   3.012   0.141   1.873 -0.1674 -0.2008  0.6614
13607TIP3   OH262311   6.328   2.825  11.470  0.1298 -0.1573 -0.1753
13607TIP3    H162312   6.374   2.765  11.411  0.1820 -0.0417 -0.2513
13607TIP3    H262313   6.268   2.873  11.413  1.7944  1.5948 -0.5323
13608TIP3   OH262314   1.073   6.305   6.699  0.3457  0.2767  0.4991
13608TIP3    H162315   1.159   6.266   6.716  0.1669 -0.6385 -0.5746
13608TIP3    H262316   1.014   6.230   6.695  0.0135  0.6057 -1.7803
13609TIP3   OH262317   6.068   0.773  11.644  0.0459  0.0848  0.0528
13609TIP3    H162318   6.080   0.847  11.704 -1.7545  0.0033  0.5542
13609TIP3    H262319   6.074   0.695  11.699  0.2642 -0.0825 -0.2021
13610TIP3   OH262320   1.659   0.791  16.795  0.6191 -0.1261 -0.3682
13610TIP3    H162321   1.615   0.785  16.880 -0.1522  0.4267 -0.7123
13610TIP3    H262322   1.719   0.865  16.804  0.4686 -0.0081 -0.3327
13611TIP3   OH262323   1.280   0.709   0.260  0.0033  0.8746  0.1478
13611TIP3    H162324   1.314   0.642   0.200  1.2159  0.0916  1.6454
13611TIP3    H262325   1.307   0.792   0.221 -1.2994  0.5477 -1.6025
13612TIP3   OH262326   2.722   3.026   1.213 -0.0461  0.7679 -0.5527
13612TIP3    H162327   2.674   3.108   1.200  1.1763  1.3859 -1.3416
13612TIP3    H262328   2.776   3.017   1.135  0.2791 -0.4974 -0.2018
13613TIP3   OH262329   4.464   1.237   4.207 -0.3455  0.1453  0.1505
13613TIP3    H162330   4.433   1.312   4.157  0.6912 -0.7642 -2.0433
13613TIP3    H262331   4.387   1.182   4.218 -0.9116  1.0701  0.9380
13614TIP3   OH262332   6.050   0.159  13.439  0.5577  0.1959  0.1263
13614TIP3    H162333   6.138   0.150  13.475  0.1360  1.7082  1.6733
13614TIP3    H262334   6.055   0.234  13.380  0.6761 -0.7776 -1.1342
13615TIP3   OH262335   5.351   5.005  12.287  0.1807  0.3029  0.1031
13615TIP3    H162336   5.303   5.011  12.369  0.9712  1.2698  0.5106
13615TIP3    H262337   5.436   5.045  12.305 -0.3444  2.4485 -1.7155
13616TIP3   OH262338   5.286   0.128   0.167  0.1246 -0.5191  0.3517
13616TIP3    H162339   5.292   0.124   0.072  0.6587 -0.6067  0.3861
13616TIP3    H262340   5.331   0.209   0.191 -0.3061 -0.3202  0.5102
13617TIP3   OH262341   0.273   3.063  16.362 -0.2307 -0.0630 -0.0668
13617TIP3    H162342   0.256   3.076  16.455  0.9801  1.3398  0.0134
13617TIP3    H262343   0.328   2.985  16.358 -0.2253 -0.0849  0.4148
13618TIP3   OH262344   5.696   0.369   4.905 -0.2521 -0.1383  0.2281
13618TIP3    H162345   5.672   0.411   4.823 -1.2527 -0.9123  0.1146
13618TIP3    H262346   5.660   0.426   4.973 -1.4068 -0.6858  0.0808
13619TIP3   OH262347   0.953   4.184   2.687  0.0096 -0.5666  0.1421
13619TIP3    H162348   0.929   4.138   2.768  0.3192 -1.5465 -0.3095
13619TIP3    H262349   1.047   4.171   2.679  0.2398  0.7552  0.3538
13620TIP3   OH262350   5.271   0.100   2.537  0.3000 -0.0248  0.0047
13620TIP3    H162351   5.331   0.172   2.518 -0.7837  0.5965 -1.2387
13620TIP3    H262352   5.300   0.028   2.481 -0.4634  0.4843 -1.0783
13621TIP3   OH262353   6.605   5.967   5.824  0.1415  0.1863  0.8250
13621TIP3    H162354   6.627   5.963   5.730  1.7118 -0.4118  1.1836
13621TIP3    H262355   6.679   6.013   5.864  0.2116 -0.8473  1.9513
13622TIP3   OH262356   5.716   5.919  15.444  0.2425 -0.1751 -0.0132
13622TIP3    H162357   5.713   5.830  15.481  1.8148  0.8622  2.9899
13622TIP3    H262358   5.676   5.974  15.512  1.1025  1.6498 -0.9114
13623TIP3   OH262359   5.216   0.477   3.255  0.0374  0.0733  0.3072
13623TIP3    H162360   5.188   0.569   3.257  0.2127  0.1164  0.9337
13623TIP3    H262361   5.282   0.474   3.185  1.5862  0.8973  1.6533
13624TIP3   OH262362   4.229   3.813  15.223 -0.2414  0.2933 -0.1599
13624TIP3    H162363   4.179   3.872  15.280 -1.8432 -1.9355  0.8714
13624TIP3    H262364   4.167   3.786  15.156  0.0634 -1.1589  0.1148
13625TIP3   OH262365   0.286   1.444   0.115  0.1391 -0.0150 -0.0852
13625TIP3    H162366   0.201   1.432   0.071  0.0180  0.7949 -0.0896
13625TIP3    H262367   0.333   1.506   0.060  0.7130 -0.3942 -0.0338
13626TIP3   OH262368   6.466   2.793  11.105 -0.1720 -0.0189  0.0463
13626TIP3    H162369   6.536   2.781  11.168 -1.5275 -1.6534  1.3646
13626TIP3    H262370   6.423   2.875  11.131  0.2270  0.1148  0.2818
13627TIP3   OH262371   2.267   1.619  15.008 -0.1368  0.3718 -0.1622
13627TIP3    H162372   2.173   1.627  14.990 -0.0742  0.8614 -0.2878
13627TIP3    H262373   2.277   1.656  15.095 -0.2463 -0.8408  0.3881
13628TIP3   OH262374   1.222   2.451  12.917 -0.0627 -0.0513 -0.1401
13628TIP3    H162375   1.131   2.451  12.886  0.1247  0.8089 -0.7436
13628TIP3    H262376   1.269   2.398  12.852  0.3868  2.0110 -1.5942
13629TIP3   OH262377   4.062   0.753  16.978 -0.1243  0.2044  0.1187
13629TIP3    H162378   4.049   0.847  16.979  0.1359  0.2398  0.4551
13629TIP3    H262379   4.098   0.733  17.065  2.6954  0.2192 -0.9327
13630TIP3   OH262380   4.227   3.289   0.867  0.9924  0.1305 -0.9638
13630TIP3    H162381   4.141   3.277   0.907  1.1979  1.1638 -0.1509
13630TIP3    H262382   4.275   3.209   0.887  0.0693 -0.6733 -1.8682
13631TIP3   OH262383   2.625   3.211   1.022  0.0638  0.3275 -0.0373
13631TIP3    H162384   2.557   3.181   0.960 -1.7971 -1.6239  2.6965
13631TIP3    H262385   2.599   3.300   1.044 -1.2218 -0.1131  0.3620
13632TIP3   OH262386   5.648   1.546  16.998 -0.3335  0.7121  0.0797
13632TIP3    H162387   5.670   1.486  16.927 -1.7096  0.7656 -0.4297
13632TIP3    H262388   5.711   1.526  17.067  1.5805  1.2147 -1.4301
13633TIP3   OH262389   0.695   1.102  16.444  0.1378 -0.4915  0.4584
13633TIP3    H162390   0.697   1.055  16.527  1.1307 -2.2984 -0.5412
13633TIP3    H262391   0.745   1.182  16.461  0.7389 -1.0559  1.4572
13634TIP3   OH262392   2.982   2.293   0.009  0.5265  0.0859 -0.1251
13634TIP3    H162393   3.006   2.365  -0.049  2.0423 -0.4013 -0.1553
13634TIP3    H262394   2.992   2.214  -0.045 -0.1055 -0.2183  0.1969
13635TIP3   OH262395   3.950   0.719  13.215  0.2858  0.0913 -0.2524
13635TIP3    H162396   3.928   0.664  13.140 -0.4410  0.2866 -0.1972
13635TIP3    H262397   4.016   0.779  13.183  0.3108 -0.1250 -0.6090
13636TIP3   OH262398   0.885   6.781  16.583 -0.1528 -0.2210  0.2556
13636TIP3    H162399   0.858   6.853  16.639 -1.0572 -0.2604 -0.1229
13636TIP3    H262400   0.804   6.736  16.559  0.2224 -0.3226 -0.9128
13637TIP3   OH262401   5.135   2.159   5.607 -0.0824  0.0421  0.0279
13637TIP3    H162402   5.183   2.234   5.571  0.5975  0.4190  1.6264
13637TIP3    H262403   5.197   2.119   5.668 -0.8656 -1.1183  0.0831
13638TIP3   OH262404   4.585   1.495  16.159 -0.4371  0.2232 -0.2652
13638TIP3    H162405   4.625   1.538  16.235  0.8621  0.9405 -1.3135
13638TIP3    H262406   4.513   1.444  16.196  0.9433 -0.4865  1.6200
13639TIP3   OH262407   1.833   6.666   3.923  0.4829 -0.2454 -0.5326
13639TIP3    H162408   1.816   6.577   3.891 -1.2766  0.5785 -2.0748
13639TIP3    H262409   1.884   6.707   3.852  0.4806  0.2487 -0.2537
13640TIP3   OH262410   5.332   1.986  16.536  0.0676  0.0777  0.1684
13640TIP3    H162411   5.282   1.914  16.498  0.9430 -0.3226 -0.2539
13640TIP3    H262412   5.418   1.949  16.555  1.0858  1.3842 -1.5479
13641TIP3   OH262413   2.024   2.498  12.237  0.1610 -0.6084 -0.2158
13641TIP3    H162414   2.076   2.421  12.215  1.3452 -1.2133  3.7903
13641TIP3    H262415   2.087   2.570  12.241 -0.2136 -0.2800 -0.0881
13642TIP3   OH262416   2.200   6.818   5.962 -0.7496  0.3273 -0.0238
13642TIP3    H162417   2.122   6.860   5.998 -1.0164 -0.6651  0.5919
13642TIP3    H262418   2.204   6.848   5.871 -0.1816  2.7081  0.7182
13643TIP3   OH262419   5.864   3.326  12.850  0.1483 -0.5768 -0.2738
13643TIP3    H162420   5.843   3.285  12.934 -0.6734  1.5927  0.6593
13643TIP3    H262421   5.780   3.330  12.803  0.6316 -1.9212 -1.3022
13644TIP3   OH262422   3.182   1.610  12.364  0.7169 -0.2842  0.0240
13644TIP3    H162423   3.267   1.628  12.324  0.9782 -0.9030  0.2826
13644TIP3    H262424   3.144   1.541  12.310  1.4172 -1.6879  1.2719
13645TIP3   OH262425   6.635   0.621  12.560 -0.0746  0.3710 -0.2132
13645TIP3    H162426   6.624   0.641  12.653 -0.7866 -0.4204 -0.1077
13645TIP3    H262427   6.546   0.623  12.525 -0.0999 -1.5107 -0.3909
13646TIP3   OH262428   6.563   2.939  10.478  0.1924  0.0834 -0.0916
13646TIP3    H162429   6.484   2.990  10.497  0.0568  0.1722 -0.8542
13646TIP3    H262430   6.592   2.907  10.563 -1.0259 -0.4873  0.1310
13647TIP3   OH262431   6.139   4.069  11.930 -0.3113  0.3513 -0.1798
13647TIP3    H162432   6.160   4.008  11.859  0.0155  1.6620 -1.2361
13647TIP3    H262433   6.194   4.040  12.003 -0.1437 -0.5863 -0.6579
13648TIP3   OH262434   5.569   2.257   2.046 -0.4885 -0.4825  0.1788
13648TIP3    H162435   5.592   2.225   1.959 -0.3625 -0.7433  0.3098
13648TIP3    H262436   5.530   2.182   2.090  0.8737 -0.7835  0.8893
13649TIP3   OH262437   4.784   1.555   4.191  0.0160  0.5317 -0.2416
13649TIP3    H162438   4.766   1.526   4.281 -0.8871  2.3348  0.1963
13649TIP3    H262439   4.860   1.503   4.165 -1.5411 -2.3207  0.3989
13650TIP3   OH262440   3.044   6.302   3.637  0.3671 -0.5930  0.1762
13650TIP3    H162441   3.075   6.263   3.718 -2.0985 -1.7526  0.6569
13650TIP3    H262442   3.108   6.274   3.571  0.1602 -3.2956  0.9850
13651TIP3   OH262443   5.474   4.326   3.869  0.2775  0.6049  0.3365
13651TIP3    H162444   5.400   4.387   3.873 -0.0830  0.1589  0.6063
13651TIP3    H262445   5.551   4.382   3.860 -0.1344  1.0592 -0.4366
13652TIP3   OH262446   0.304   5.352  16.704 -0.0885  0.0457 -0.5381
13652TIP3    H162447   0.339   5.278  16.755  1.4893  0.8661 -0.3744
13652TIP3    H262448   0.274   5.414  16.770 -1.2042 -0.3235 -0.6774
13653TIP3   OH262449   4.096   2.726  10.883  0.6839 -0.0913  0.3758
13653TIP3    H162450   4.026   2.744  10.945  2.9095  1.0243  2.7583
13653TIP3    H262451   4.065   2.651  10.831 -1.3235 -1.0549  2.8127
13654TIP3   OH262452   0.605   2.283   0.528 -0.2036  0.2835  0.6487
13654TIP3    H162453   0.600   2.247   0.439 -0.4808 -0.5731  0.9985
13654TIP3    H262454   0.666   2.356   0.521  0.1196 -0.0505 -0.1532
13655TIP3   OH262455   3.289   1.672   2.031  0.0930  0.9234 -0.3417
13655TIP3    H162456   3.274   1.762   2.060  0.8058  1.4549 -1.5647
13655TIP3    H262457   3.291   1.677   1.936  2.4308  0.0063 -0.4057
13656TIP3   OH262458   1.646   5.694  12.620 -0.1147 -0.2831 -0.4579
13656TIP3    H162459   1.644   5.598  12.611 -1.6333 -0.3163 -0.0423
13656TIP3    H262460   1.638   5.709  12.714 -1.3080  0.2515 -0.6280
13657TIP3   OH262461   4.023   0.403  12.379 -0.3519  0.1695  1.3661
13657TIP3    H162462   4.002   0.391  12.472  2.0731  0.5841  2.0406
13657TIP3    H262463   4.063   0.320  12.353  1.5328  0.9870  1.5157
13658TIP3   OH262464   3.937   0.481   4.408 -0.2024 -0.2368  0.4258
13658TIP3    H162465   3.859   0.535   4.398  1.0972  2.0654  1.8074
13658TIP3    H262466   4.008   0.535   4.373  0.6383 -3.1743 -3.0467
13659TIP3   OH262467   6.030   3.727  14.568  0.0616  0.3088  0.3339
13659TIP3    H162468   6.036   3.705  14.475  1.0533 -0.0471  0.4718
13659TIP3    H262469   6.083   3.661  14.612  0.7152  1.2685  1.0269
13660TIP3   OH262470   3.124   0.784   1.744  0.6443  0.3219 -0.0887
13660TIP3    H162471   3.184   0.758   1.674  0.2901 -0.6556 -0.0452
13660TIP3    H262472   3.147   0.728   1.818  1.1003  1.4370  0.6414
13661TIP3   OH262473   1.330   3.093   2.433 -0.5190 -0.0763 -0.0342
13661TIP3    H162474   1.290   3.077   2.347 -0.5433 -0.1600 -0.0076
13661TIP3    H262475   1.295   3.178   2.460  1.1539  0.9947 -1.0627
13662TIP3   OH262476   2.347   3.840  14.216  0.0356 -0.3019 -0.3598
13662TIP3    H162477   2.339   3.884  14.301 -1.8401 -3.2315  1.1622
13662TIP3    H262478   2.281   3.883  14.161 -0.6123 -0.1043  0.5379
13663TIP3   OH262479   3.937   0.234   3.235  0.7332  0.3332 -0.0609
13663TIP3    H162480   3.985   0.312   3.205 -1.2545  1.9714  0.7635
13663TIP3    H262481   3.852   0.240   3.191  1.0698 -2.3020 -1.2214
13664TIP3   OH262482   3.353   2.685   6.103  0.0585 -0.4597  0.0919
13664TIP3    H162483   3.413   2.613   6.083 -0.0383 -0.4300 -0.2993
13664TIP3    H262484   3.402   2.764   6.081 -0.4081 -0.4609 -0.9944
13665TIP3   OH262485   0.866   1.809  16.273  0.3579 -0.0482  0.2965
13665TIP3    H162486   0.859   1.783  16.365  3.1908  0.5904  0.7882
13665TIP3    H262487   0.896   1.731  16.228  2.0682  0.4208  0.5420
13666TIP3   OH262488   1.549   3.010  14.453 -0.1075  0.1595 -0.0002
13666TIP3    H162489   1.510   2.934  14.496  0.5901  0.5885  1.4650
13666TIP3    H262490   1.644   2.998  14.464 -0.0016  2.1923  2.1137
13667TIP3   OH262491   4.260   2.739  15.934  0.0649 -0.4896 -0.5010
13667TIP3    H162492   4.226   2.683  16.004  0.3912 -0.8411 -0.6184
13667TIP3    H262493   4.187   2.797  15.912 -0.5377 -1.3631 -0.8820
13668TIP3   OH262494   6.379   4.644   2.124  0.5249 -0.7754  0.6649
13668TIP3    H162495   6.289   4.656   2.095  0.8666 -0.0810 -0.1482
13668TIP3    H262496   6.380   4.679   2.213  0.1441 -0.1402  0.4282
13669TIP3   OH262497   5.634   3.880   3.378  0.1037  0.2061 -0.7066
13669TIP3    H162498   5.649   3.914   3.290  1.3141 -0.5094 -0.7921
13669TIP3    H262499   5.591   3.795   3.363 -0.5453  0.5019 -0.5673
13670TIP3   OH262500   4.673   0.315  11.733  0.2397  0.1103  0.0818
13670TIP3    H162501   4.718   0.281  11.810  0.2266  1.5357  0.7476
13670TIP3    H262502   4.743   0.343  11.674  0.2325  0.1413  0.0883
13671TIP3   OH262503   3.376   2.503  10.660  0.1560  0.0711  0.0501
13671TIP3    H162504   3.388   2.409  10.648  2.5793  0.1911  0.9199
13671TIP3    H262505   3.403   2.541  10.576 -0.7677  0.0250 -0.2810
13672TIP3   OH262506   4.865   5.381   0.179  0.0625 -0.7393 -0.1606
13672TIP3    H162507   4.873   5.469   0.217  1.4259 -0.3085 -1.3621
13672TIP3    H262508   4.772   5.359   0.188 -0.1737  0.5484  0.7534
13673TIP3   OH262509   1.329   1.594  11.103 -0.6022  0.1069  0.5068
13673TIP3    H162510   1.363   1.549  11.026 -0.0254 -1.1053  1.4293
13673TIP3    H262511   1.375   1.553  11.177 -0.7918  1.5385  1.4738
13674TIP3   OH262512   4.095   2.090  11.890  0.8222  0.1695 -0.9422
13674TIP3    H162513   4.032   2.030  11.931 -0.5977  0.5185 -2.5031
13674TIP3    H262514   4.097   2.165  11.949 -0.1285  0.0913 -0.7905
13675TIP3   OH262515   1.215   0.297   5.800  0.1659  0.5743 -0.1845
13675TIP3    H162516   1.261   0.279   5.883  0.9772 -1.0956 -0.9450
13675TIP3    H262517   1.286   0.309   5.737 -0.4349 -0.2130 -1.0257
13676TIP3   OH262518   4.638   6.808   4.406  0.1979  0.4464 -0.7731
13676TIP3    H162519   4.564   6.850   4.363  0.6269  0.8385 -1.1355
13676TIP3    H262520   4.687   6.880   4.446 -0.3181  0.0731  0.5902
13677TIP3   OH262521   4.893   1.487   2.170  0.0669  0.2327 -0.3290
13677TIP3    H162522   4.824   1.514   2.230 -0.6018 -1.5051 -0.2521
13677TIP3    H262523   4.950   1.431   2.222  0.9850  0.8550 -0.6488
13678TIP3   OH262524   5.348   1.924   1.459 -0.4259  0.1557 -0.1857
13678TIP3    H162525   5.433   1.968   1.456 -1.0976  1.5291  0.2884
13678TIP3    H262526   5.360   1.853   1.523  0.4918  0.0363 -0.4815
13679TIP3   OH262527   0.693   4.468   0.118  0.5029  0.0623 -0.3684
13679TIP3    H162528   0.777   4.461   0.074  1.1544 -1.0666  0.9651
13679TIP3    H262529   0.668   4.560   0.109  1.5649  0.2682 -1.3319
13680TIP3   OH262530   6.485   1.327   2.639 -0.4490  0.5682  0.7900
13680TIP3    H162531   6.534   1.328   2.557 -1.9705 -1.0870 -0.2087
13680TIP3    H262532   6.543   1.370   2.702  1.8481 -0.3888 -0.5433
13681TIP3   OH262533   1.178   6.227   2.191 -0.3199 -0.7716 -0.1672
13681TIP3    H162534   1.116   6.299   2.194 -0.2240 -0.6673 -0.7086
13681TIP3    H262535   1.254   6.258   2.240  0.8940  0.6211 -2.7331
13682TIP3   OH262536   2.207   6.401   5.453  0.1303 -0.3165  0.1087
13682TIP3    H162537   2.125   6.380   5.409 -0.1112  1.5676 -0.4249
13682TIP3    H262538   2.241   6.477   5.405  1.2150  0.1269  1.5178
13683TIP3   OH262539   2.085   1.230  11.516 -0.7833  0.4226 -0.1512
13683TIP3    H162540   2.162   1.188  11.478 -0.8568 -1.8015  1.9071
13683TIP3    H262541   2.016   1.217  11.451  0.1025  0.8204 -1.2097
13684TIP3   OH262542   3.050   4.553  13.042 -0.0071 -0.3729  0.2307
13684TIP3    H162543   2.985   4.515  13.101 -3.1699  2.2080 -1.3470
13684TIP3    H262544   3.079   4.632  13.087  1.6239 -1.1080  0.5690
13685TIP3   OH262545   5.770   4.725  14.610  0.1007  0.1738 -0.2680
13685TIP3    H162546   5.765   4.800  14.550  0.1353  0.4101  0.0245
13685TIP3    H262547   5.702   4.665  14.579 -1.7108  1.4540  1.0600
13686TIP3   OH262548   5.640   0.428   3.491  0.3402  0.2713 -0.3841
13686TIP3    H162549   5.717   0.433   3.548  0.3513  1.9606 -0.4917
13686TIP3    H262550   5.587   0.357   3.528  0.4603  1.1516  1.5977
13687TIP3   OH262551   5.388   6.258  16.072  0.1942  0.2360  0.0138
13687TIP3    H162552   5.386   6.300  15.986 -0.3578 -1.2232 -0.7181
13687TIP3    H262553   5.467   6.203  16.070 -0.9161 -1.4398 -0.4193
13688TIP3   OH262554   6.619   4.242  10.745  0.4668  0.0314  0.2581
13688TIP3    H162555   6.545   4.301  10.735  0.4075 -0.1296 -0.2917
13688TIP3    H262556   6.596   4.186  10.819 -0.4646 -0.7655 -0.6249
13689TIP3   OH262557   5.844   6.252   5.610 -0.2249 -0.0387  0.2718
13689TIP3    H162558   5.835   6.167   5.566 -1.4846  0.0814  0.2651
13689TIP3    H262559   5.759   6.266   5.652 -0.3610  1.6750 -0.5404
13690TIP3   OH262560   5.228   4.417   4.043 -0.4687  0.3193 -0.8465
13690TIP3    H162561   5.163   4.401   4.111  0.4711 -0.2439 -0.0583
13690TIP3    H262562   5.289   4.480   4.081  0.7647 -0.9299 -0.6503
13691TIP3   OH262563   5.818   6.244  13.278  0.3966  0.0226 -0.5426
13691TIP3    H162564   5.910   6.217  13.269  0.1496 -0.4796 -1.6618
13691TIP3    H262565   5.774   6.168  13.316  0.2916 -0.0371 -0.7809
13692TIP3   OH262566   5.769   4.287   1.388  0.6475  0.3315  0.6468
13692TIP3    H162567   5.696   4.230   1.414  1.2253  0.3478  2.4121
13692TIP3    H262568   5.734   4.338   1.315 -1.3936  0.8475  1.8901
13693TIP3   OH262569   5.633   5.951   4.957 -0.5495 -0.7398 -0.3342
13693TIP3    H162570   5.708   5.957   5.015  0.2576 -2.4916 -1.1439
13693TIP3    H262571   5.659   6.000   4.879 -0.2276 -1.3643 -0.6228
13694TIP3   OH262572   1.544   0.909   5.861  0.2556 -0.2916 -0.8358
13694TIP3    H162573   1.514   0.984   5.809 -0.5613  1.3354  1.7841
13694TIP3    H262574   1.478   0.900   5.930  0.9638 -2.7243 -0.3907
13695TIP3   OH262575   4.409   0.561  16.037 -0.0117  0.6302  0.0672
13695TIP3    H162576   4.496   0.536  16.067 -0.1336 -0.0187 -0.1020
13695TIP3    H262577   4.351   0.493  16.071 -0.5055  1.2182  0.4405
13696TIP3   OH262578   4.660   4.928  14.136 -0.3512  0.1023  0.1656
13696TIP3    H162579   4.737   4.965  14.093 -0.3460 -0.1917 -0.0780
13696TIP3    H262580   4.692   4.851  14.181 -0.4020  0.2808  0.5133
13697TIP3   OH262581   1.924   0.469  11.175  0.1801  0.2659 -0.0124
13697TIP3    H162582   1.951   0.396  11.120 -1.6238 -0.2225 -0.3045
13697TIP3    H262583   1.963   0.450  11.261 -3.7276 -3.5813  1.3161
13698TIP3   OH262584   0.454   5.106  12.600  0.0652 -0.3825 -0.2851
13698TIP3    H162585   0.505   5.187  12.598  0.7623 -0.8276 -0.8696
13698TIP3    H262586   0.472   5.068  12.686 -0.2571  0.0673 -0.0132
13699TIP3   OH262587   0.817   6.065  16.927  0.0904  0.5036  0.3840
13699TIP3    H162588   0.795   6.070  17.020 -2.4999  0.0671 -0.1491
13699TIP3    H262589   0.881   5.994  16.922 -1.1401 -0.7508  1.6188
13700TIP3   OH262590   5.566   1.584   3.814 -0.0835 -0.4082 -0.2932
13700TIP3    H162591   5.566   1.489   3.805  0.9842 -0.2741 -2.2772
13700TIP3    H262592   5.545   1.616   3.726  1.0551  1.1837 -0.0247
13701TIP3   OH262593   2.770   4.886  11.491 -0.3351 -0.3563 -0.6711
13701TIP3    H162594   2.701   4.860  11.430 -0.2758  0.2683 -1.0179
13701TIP3    H262595   2.730   4.956  11.544 -0.8408 -1.8089  0.9554
13702TIP3   OH262596   6.045   5.065   1.399  0.1854 -0.4598  0.5718
13702TIP3    H162597   6.007   4.977   1.402  0.2266 -0.5512 -0.8931
13702TIP3    H262598   6.133   5.054   1.435 -0.7986 -0.3905  3.2958
13703TIP3   OH262599   5.206   5.647  15.686  0.0397  0.3534 -0.1149
13703TIP3    H162600   5.186   5.732  15.646  0.5657 -0.2326 -1.6979
13703TIP3    H262601   5.129   5.593  15.668  0.2378  0.1149 -0.2566
13704TIP3   OH262602   0.336   1.790   1.479 -0.1382 -0.4239 -0.1613
13704TIP3    H162603   0.398   1.863   1.485 -1.2498  0.5534 -0.1433
13704TIP3    H262604   0.351   1.739   1.558 -1.9519  1.9547  1.8626
13705TIP3   OH262605   3.100   5.391   4.936  0.1452  0.4168  0.3224
13705TIP3    H162606   3.059   5.478   4.935 -1.4889 -0.2647 -1.9025
13705TIP3    H262607   3.053   5.342   5.003 -1.4158  0.2618 -0.8247
13706TIP3   OH262608   2.467   0.768   2.075 -0.7003 -0.1628  0.1856
13706TIP3    H162609   2.406   0.828   2.032 -0.0939  0.5213  0.2519
13706TIP3    H262610   2.550   0.782   2.028 -0.1276  0.3050  1.3045
13707TIP3   OH262611   2.111   1.097   4.585  0.3569 -0.0562 -0.3674
13707TIP3    H162612   2.051   1.024   4.567 -0.4671  0.8526 -1.4904
13707TIP3    H262613   2.191   1.056   4.616 -0.1211 -1.4329 -0.8917
13708TIP3   OH262614   2.445   4.486   5.823  0.0743 -0.1122  0.2239
13708TIP3    H162615   2.533   4.448   5.825  0.5544  0.9923  1.1461
13708TIP3    H262616   2.460   4.578   5.802 -1.0156 -0.2535 -1.3204
13709TIP3   OH262617   6.083   1.272  10.973 -0.2589 -0.4322 -0.4463
13709TIP3    H162618   6.144   1.271  11.046 -2.5649 -2.6318  1.6394
13709TIP3    H262619   6.058   1.364  10.964 -0.2761 -0.1559  1.9063
13710TIP3   OH262620   2.612   5.795   1.349 -0.1943  0.2457 -0.0411
13710TIP3    H162621   2.606   5.714   1.400  1.6845 -0.1341 -0.3821
13710TIP3    H262622   2.621   5.864   1.415 -1.3670  0.1748  0.2305
13711TIP3   OH262623   0.719   0.866  11.356  0.3742 -0.2418  0.0503
13711TIP3    H162624   0.643   0.864  11.414 -0.5876  0.3162 -1.1325
13711TIP3    H262625   0.759   0.780  11.365 -1.0099 -0.9326 -0.0722
13712TIP3   OH262626   4.672   2.082  13.101 -0.0302  0.2271 -0.1129
13712TIP3    H162627   4.581   2.080  13.131 -0.6321 -0.6018 -1.8421
13712TIP3    H262628   4.687   1.994  13.066  1.1722  0.6104 -0.5881
13713TIP3   OH262629   6.704   0.499  16.368  0.2172  0.4018  0.1485
13713TIP3    H162630   6.787   0.460  16.341  1.0554  1.5029  1.0280
13713TIP3    H262631   6.668   0.436  16.431  1.6865  1.0798  1.7645
13714TIP3   OH262632   5.809   6.282   0.216  0.2415 -0.1761 -0.0806
13714TIP3    H162633   5.802   6.199   0.265  0.2893 -1.1047 -1.5965
13714TIP3    H262634   5.811   6.349   0.284 -2.1815 -1.2207  1.1493
13715TIP3   OH262635   4.034   0.910   0.823 -0.8369  0.3503 -0.4818
13715TIP3    H162636   4.126   0.916   0.796 -0.4927 -0.6147  0.3965
13715TIP3    H262637   3.993   0.858   0.754 -0.8525  1.2159 -1.1423
13716TIP3   OH262638   3.646   4.208  13.197  0.6688 -0.1095  0.1647
13716TIP3    H162639   3.663   4.177  13.285 -0.4580 -0.3071  0.3153
13716TIP3    H262640   3.647   4.304  13.204 -1.3738 -0.1040  0.7980
13717TIP3   OH262641   2.270   4.707   5.287  0.5552  0.1191  0.4209
13717TIP3    H162642   2.337   4.648   5.253  0.8329  0.0135  1.1381
13717TIP3    H262643   2.203   4.709   5.219  1.0140 -0.2346 -0.0468
13718TIP3   OH262644   5.369   5.519  10.794 -0.0562  0.4450  0.1985
13718TIP3    H162645   5.284   5.542  10.758  0.1538 -0.0857 -0.6799
13718TIP3    H262646   5.416   5.602  10.801 -0.2446  0.6084 -0.4007
13719TIP3   OH262647   6.444   5.075   5.911 -0.1610  0.7030  0.0578
13719TIP3    H162648   6.495   5.058   5.990  2.3132 -1.8415 -1.8806
13719TIP3    H262649   6.399   5.158   5.929  0.3012  0.2985  4.0206
13720TIP3   OH262650   6.748   5.054   2.463 -0.6166  0.0738 -0.3161
13720TIP3    H162651   6.785   4.966   2.458 -1.3977 -0.3611  1.1183
13720TIP3    H262652   6.654   5.039   2.474 -0.7666  1.0911 -0.1821
13721TIP3   OH262653   5.981   6.254   1.572  0.2909  0.3860 -0.5470
13721TIP3    H162654   5.979   6.163   1.542 -3.1250  0.3075 -0.5454
13721TIP3    H262655   6.008   6.304   1.495  0.6970 -0.5029 -0.9993
13722TIP3   OH262656   5.921   6.105   4.856 -0.1151 -0.2384  0.3935
13722TIP3    H162657   5.940   6.179   4.913  2.7097  1.9627 -2.9488
13722TIP3    H262658   5.851   6.135   4.798 -0.4963 -1.0570  0.4120
13723TIP3   OH262659   1.687   2.207  13.642 -0.4969  0.4375  0.3441
13723TIP3    H162660   1.736   2.258  13.579 -0.2461 -0.5509 -0.2885
13723TIP3    H262661   1.750   2.188  13.712 -0.4491  0.5794  0.3385
13724TIP3   OH262662   4.325   1.517  15.656 -1.1574 -0.1247 -0.2838
13724TIP3    H162663   4.285   1.559  15.732 -1.1819  1.1836 -0.9979
13724TIP3    H262664   4.342   1.427  15.685 -1.0735  0.3727  1.2902
13725TIP3   OH262665   5.944   3.336   4.526 -1.0616  0.1367  0.1165
13725TIP3    H162666   5.949   3.432   4.528 -0.6542  0.1064  1.5837
13725TIP3    H262667   6.035   3.307   4.528 -1.2011 -0.2846  0.3816
13726TIP3   OH262668   2.610   3.009   0.491  0.1871 -0.1989 -0.2754
13726TIP3    H162669   2.668   2.950   0.443 -0.9712 -1.1289 -0.5969
13726TIP3    H262670   2.657   3.092   0.494  0.9417 -0.5353 -1.7431
13727TIP3   OH262671   4.745   4.768  12.503 -0.1744 -0.5107  0.4392
13727TIP3    H162672   4.730   4.827  12.577  1.6021  1.7682 -0.9050
13727TIP3    H262673   4.729   4.822  12.426 -0.9230 -2.5336 -0.8896
13728TIP3   OH262674   5.651   1.413   0.634  0.6804 -0.0185  0.7188
13728TIP3    H162675   5.699   1.419   0.551 -0.2101 -0.1216  0.1872
13728TIP3    H262676   5.676   1.327   0.669 -0.0161 -0.5838 -0.1348
13729TIP3   OH262677   0.228   6.271   4.205  0.0333 -0.0903  0.0826
13729TIP3    H162678   0.272   6.332   4.266  0.1496 -0.9214  0.8482
13729TIP3    H262679   0.159   6.231   4.258 -1.1834  0.6483 -0.9052
13730TIP3   OH262680   5.622   5.577  13.739  0.0162  0.5611 -0.0303
13730TIP3    H162681   5.570   5.656  13.755 -0.4364 -0.0772  2.0123
13730TIP3    H262682   5.585   5.539  13.660 -0.9314  1.4680 -0.0440
13731TIP3   OH262683   2.565   6.351   4.764  0.2868 -0.1697  0.5177
13731TIP3    H162684   2.567   6.407   4.841  2.0969  0.5238 -0.0007
13731TIP3    H262685   2.504   6.281   4.787 -1.0044  1.2719  1.6739
13732TIP3   OH262686   0.548   3.813  10.761  0.1278 -0.9410  0.4403
13732TIP3    H162687   0.573   3.722  10.744  0.8131 -0.8676  1.0024
13732TIP3    H262688   0.518   3.846  10.677 -2.7478 -2.4749  0.7566
13733TIP3   OH262689   2.414   1.771  12.766 -0.1092  0.7973  0.2089
13733TIP3    H162690   2.507   1.752  12.749 -0.7832 -0.9619 -1.9295
13733TIP3    H262691   2.404   1.863  12.740  0.5116  0.2435 -2.2465
13734TIP3   OH262692   1.121   6.050  12.129 -0.2454  0.0866  0.0819
13734TIP3    H162693   1.166   5.974  12.167 -0.2483  0.3779  0.6795
13734TIP3    H262694   1.033   6.018  12.110 -0.5176  0.1784  1.1559
13735TIP3   OH262695   4.349   2.654   2.264 -0.5350  0.5155  0.1081
13735TIP3    H162696   4.321   2.633   2.353 -0.9000  0.6172  0.0190
13735TIP3    H262697   4.342   2.750   2.260 -0.6331  0.5012 -0.0651
13736TIP3   OH262698   6.000   5.748   0.205 -0.1590  0.4994  0.7656
13736TIP3    H162699   6.018   5.703   0.288 -0.8336  1.2542  1.3437
13736TIP3    H262700   6.044   5.695   0.139  0.3540 -0.1486  1.6006
13737TIP3   OH262701   4.304   3.430   1.504 -0.2014  0.0557 -0.2027
13737TIP3    H162702   4.296   3.378   1.424 -1.7632  0.5917 -0.4322
13737TIP3    H262703   4.344   3.512   1.476  2.1341 -0.8988  0.1353
13738TIP3   OH262704   4.817   4.525  14.501 -0.3911  0.0524  0.2317
13738TIP3    H162705   4.763   4.532  14.580 -0.1706  0.5795  0.3384
13738TIP3    H262706   4.900   4.566  14.525  0.4885 -1.7514  0.4513
13739TIP3   OH262707   6.188   6.335   2.905  0.2502 -0.4304 -0.1781
13739TIP3    H162708   6.140   6.353   2.987  0.1258  0.4763 -0.4385
13739TIP3    H262709   6.157   6.249   2.878  0.5581 -0.8965  0.9204
13740TIP3   OH262710   2.748   5.012  13.503  0.1730  0.4397 -0.6347
13740TIP3    H162711   2.746   4.984  13.594 -0.2731  3.8899  0.5758
13740TIP3    H262712   2.836   5.047  13.490  0.2747 -0.1228 -1.6094
13741TIP3   OH262713   0.121   5.576   1.859  0.1415  0.0159  0.6645
13741TIP3    H162714   0.124   5.598   1.766 -1.1005  0.6992  0.7555
13741TIP3    H262715   0.175   5.497   1.867  2.1979  1.2827 -0.2065
13742TIP3   OH262716   3.579   3.138   5.036  0.1696 -0.3192  0.2125
13742TIP3    H162717   3.640   3.078   4.994  1.1751  0.0127  1.1464
13742TIP3    H262718   3.619   3.157   5.121  0.1882  2.1055 -0.2534
13743TIP3   OH262719   3.666   1.615   0.879  0.2299  0.1158 -0.1764
13743TIP3    H162720   3.574   1.599   0.901  0.3745 -0.3088  0.1375
13743TIP3    H262721   3.711   1.619   0.964  1.0497 -3.0974 -0.3151
13744TIP3   OH262722   0.613   0.713  13.895  0.6282  0.8577 -0.2119
13744TIP3    H162723   0.548   0.697  13.963  0.7437  0.9787 -0.0708
13744TIP3    H262724   0.683   0.760  13.940  1.0238  0.3165 -0.2548
13745TIP3   OH262725   5.071   6.372   1.048 -0.2745  0.3669 -0.3454
13745TIP3    H162726   5.023   6.449   1.016 -0.7162 -0.2399 -1.1945
13745TIP3    H262727   5.144   6.409   1.098 -1.0286  1.3220  0.0969
13746TIP3   OH262728   6.169   5.933  14.042  0.0503 -0.1232 -0.0659
13746TIP3    H162729   6.225   5.987  13.986 -1.4362  1.0848 -0.4636
13746TIP3    H262730   6.171   5.847  14.002 -0.3618  0.5305 -1.5331
13747TIP3   OH262731   6.424   4.975  14.604  0.5796 -0.5381 -0.2262
13747TIP3    H162732   6.466   4.898  14.643  0.5250 -0.1275  0.6791
13747TIP3    H262733   6.347   4.991  14.659  1.0543  0.6582  0.1260
13748TIP3   OH262734   1.642   3.590   4.797 -1.0072  0.2510 -0.1347
13748TIP3    H162735   1.596   3.545   4.727 -0.6719  0.1789 -0.3063
13748TIP3    H262736   1.580   3.590   4.870 -0.6520 -1.3512  0.1955
13749TIP3   OH262737   1.971   4.101   1.250 -0.5256  0.6433  0.0589
13749TIP3    H162738   1.975   4.045   1.327 -0.8559 -0.4233 -0.6625
13749TIP3    H262739   1.902   4.062   1.196  1.0771  0.0720 -1.7158
13750TIP3   OH262740   4.929   3.324  16.336  0.1786  0.3675  0.5118
13750TIP3    H162741   4.977   3.317  16.253 -0.0523  2.3345  0.1539
13750TIP3    H262742   4.841   3.349  16.310  0.3004  1.7803  1.3463
13751TIP3   OH262743   3.121   3.791  13.948  0.4574  0.3895 -0.4607
13751TIP3    H162744   3.206   3.754  13.973  0.2828  0.1369 -0.2292
13751TIP3    H262745   3.093   3.839  14.025  0.6244  0.9046 -0.7184
13752TIP3   OH262746   5.639   0.620   0.443 -0.2449  0.3829  0.6398
13752TIP3    H162747   5.708   0.682   0.465 -0.2068 -0.0299  1.7487
13752TIP3    H262748   5.620   0.637   0.351  0.8367  0.9843  0.5092
13753TIP3   OH262749   2.875   1.344  16.144 -0.0145 -0.0697  0.7439
13753TIP3    H162750   2.881   1.439  16.131 -1.5943 -0.1654 -0.9842
13753TIP3    H262751   2.800   1.317  16.092  0.0512 -2.2158  1.6643
13754TIP3   OH262752   3.909   1.468   4.305 -0.0128 -0.3205  0.0266
13754TIP3    H162753   3.839   1.448   4.367  0.7372  1.3681  1.5250
13754TIP3    H262754   3.902   1.563   4.291  1.5853 -0.2138 -0.2302
13755TIP3   OH262755   5.483   1.140   0.335 -0.0977  0.4966  0.2522
13755TIP3    H162756   5.477   1.234   0.317 -1.4671  0.1534 -1.4219
13755TIP3    H262757   5.438   1.128   0.418 -3.8945  0.8891 -1.5200
13756TIP3   OH262758   5.691   2.080   3.102 -0.3154 -0.0785  0.8470
13756TIP3    H162759   5.781   2.104   3.127 -0.1978 -2.1737  2.7986
13756TIP3    H262760   5.637   2.114   3.173 -1.0098  0.5422  0.0399
13757TIP3   OH262761   1.164   0.622  11.388  0.3731 -0.2218 -0.5311
13757TIP3    H162762   1.252   0.634  11.422 -0.1540 -1.5094  1.4667
13757TIP3    H262763   1.110   0.681  11.441 -0.1625 -0.5764 -0.6735
13758TIP3   OH262764   1.452   4.866  13.618 -0.1242 -0.1785 -0.3177
13758TIP3    H162765   1.455   4.771  13.625 -0.1482 -0.3452 -2.2027
13758TIP3    H262766   1.543   4.891  13.602 -0.3142 -0.0203 -1.1802
13759TIP3   OH262767   6.098   3.917  11.003 -0.1982 -0.2521 -0.2184
13759TIP3    H162768   6.104   3.824  11.024 -1.7748 -0.4783 -0.6396
13759TIP3    H262769   6.073   3.958  11.086  1.1312 -0.0935  0.1241
13760TIP3   OH262770   6.241   1.169   0.755 -0.8297 -0.6761  0.7305
13760TIP3    H162771   6.157   1.142   0.792 -0.6406 -0.3460  1.4133
13760TIP3    H262772   6.307   1.124   0.809 -0.5415  0.1612  1.0897
13761TIP3   OH262773   6.602   0.139   5.611  0.2655  0.4330  0.1259
13761TIP3    H162774   6.563   0.205   5.554  2.6466  0.8813 -1.1240
13761TIP3    H262775   6.624   0.067   5.551  0.8454 -0.0103  0.8558
13762TIP3   OH262776   5.793   5.857  12.358 -0.2670  0.2786 -0.3455
13762TIP3    H162777   5.722   5.850  12.422 -0.7027 -0.0273 -0.8442
13762TIP3    H262778   5.857   5.791  12.385 -0.1497  0.5883  0.1332
13763TIP3   OH262779   6.634   2.528   2.029 -0.6699  0.5403 -0.1371
13763TIP3    H162780   6.720   2.568   2.035 -0.2863 -0.3263  0.3664
13763TIP3    H262781   6.600   2.557   1.944  0.9052 -0.5909 -1.2216
13764TIP3   OH262782   2.184   5.538  15.936 -0.1444  0.1973  0.0511
13764TIP3    H162783   2.246   5.506  15.870 -0.8329 -0.7847 -0.1489
13764TIP3    H262784   2.103   5.552  15.888 -0.7636 -0.9008  0.7333
13765TIP3   OH262785   5.816   0.605  16.322 -0.7226 -0.0904 -0.0193
13765TIP3    H162786   5.749   0.610  16.391 -0.8053  0.5748 -0.1463
13765TIP3    H262787   5.887   0.660  16.354 -0.4063 -0.4655 -0.0784
13766TIP3   OH262788   3.439   4.848   1.037  0.6605  0.5563 -0.3982
13766TIP3    H162789   3.377   4.835   1.108  1.6914  0.1796  0.4556
13766TIP3    H262790   3.444   4.943   1.026  0.6645  0.6284  0.2001
13767TIP3   OH262791   0.880   4.410   5.216  0.4892 -0.1713 -0.1049
13767TIP3    H162792   0.827   4.439   5.142  0.6649 -1.0327 -0.5902
13767TIP3    H262793   0.921   4.329   5.186 -1.0332 -1.6797  1.6278
13768TIP3   OH262794   5.183   2.092   4.091  0.1696  0.5380  0.1938
13768TIP3    H162795   5.254   2.127   4.036  0.5611  0.6895  0.7875
13768TIP3    H262796   5.201   1.998   4.096 -1.0887  0.1343 -1.7066
13769TIP3   OH262797   1.669   2.178  12.675  0.7149 -0.2387  0.2287
13769TIP3    H162798   1.695   2.091  12.705  0.0646 -0.8373 -0.9026
13769TIP3    H262799   1.660   2.229  12.756  2.3185 -0.8497  0.8363
13770TIP3   OH262800   0.455   5.134  13.512  0.3073  0.5011 -0.2925
13770TIP3    H162801   0.485   5.199  13.576  2.3929 -0.1288 -0.5452
13770TIP3    H262802   0.472   5.050  13.554 -1.0872  0.0772 -0.5237
13771TIP3   OH262803   6.542   4.603   3.081 -0.1324 -0.1335 -0.5130
13771TIP3    H162804   6.616   4.587   3.023 -0.7383  0.6604 -1.5498
13771TIP3    H262805   6.564   4.685   3.126  0.6149 -1.0639  0.8775
13772TIP3   OH262806   0.993   3.786   1.303 -0.5012 -0.0065 -0.1027
13772TIP3    H162807   0.921   3.832   1.260  0.0320  1.0716  0.1256
13772TIP3    H262808   0.971   3.694   1.294 -0.5316  0.1717 -2.4926
13773TIP3   OH262809   4.116   0.118  15.260 -0.6618 -0.5324  0.2153
13773TIP3    H162810   4.150   0.163  15.183 -2.7963  0.6590 -0.1065
13773TIP3    H262811   4.101   0.188  15.324  2.3166 -1.6255  2.3282
13774TIP3   OH262812   4.146   3.479  16.552  0.1619  0.1265 -0.4858
13774TIP3    H162813   4.217   3.431  16.594 -0.0061  0.4433  0.1740
13774TIP3    H262814   4.076   3.415  16.544 -0.5560  0.5563  1.6321
13775TIP3   OH262815   6.042   5.665  12.300 -0.2757 -0.3918  0.5580
13775TIP3    H162816   6.067   5.696  12.387 -0.0573 -1.3900  0.8606
13775TIP3    H262817   6.123   5.627  12.264 -0.4616 -0.3313  0.0640
13776TIP3   OH262818   1.215   2.829   1.085 -0.4462 -0.2318 -0.3352
13776TIP3    H162819   1.197   2.922   1.077 -0.0990 -0.1067  0.2616
13776TIP3    H262820   1.231   2.815   1.179  0.8153 -0.6443 -0.5878
13777TIP3   OH262821   6.417   3.732   5.657 -0.6733 -0.1095 -0.3187
13777TIP3    H162822   6.394   3.689   5.575 -0.7493  1.2576 -1.0492
13777TIP3    H262823   6.507   3.705   5.674 -1.0670 -1.3846 -0.1826
13778TIP3   OH262824   1.807   4.446   6.290  0.1473  0.7964  0.2610
13778TIP3    H162825   1.814   4.518   6.228  0.6441  1.3496  0.9530
13778TIP3    H262826   1.887   4.395   6.277  1.4199  2.2017  2.0143
13779TIP3   OH262827   1.742   6.696  12.778 -0.3535 -0.1731  0.0849
13779TIP3    H162828   1.747   6.667  12.687 -0.2321 -0.7481  0.2744
13779TIP3    H262829   1.709   6.786  12.772 -1.3635 -0.5704 -0.4653
13780TIP3   OH262830   0.068   1.787   2.813 -0.0998  0.2535 -0.4334
13780TIP3    H162831   0.009   1.843   2.762  0.7786  2.4342  0.7844
13780TIP3    H262832   0.128   1.751   2.748  0.7029  2.5850 -1.0854
13781TIP3   OH262833   5.987   0.468   2.021 -0.0423 -0.1301  0.1897
13781TIP3    H162834   6.082   0.476   2.016 -0.2227  2.0041 -0.8775
13781TIP3    H262835   5.966   0.493   2.111  0.4634 -1.8206  0.8084
13782TIP3   OH262836   3.650   6.145  11.874 -0.4599  0.1648  0.5158
13782TIP3    H162837   3.632   6.194  11.954  2.5004 -0.4925  1.6897
13782TIP3    H262838   3.586   6.074  11.875 -3.1404  2.3658  0.0785
13783TIP3   OH262839   2.794   3.385  12.463 -0.1059 -0.1562  0.6610
13783TIP3    H162840   2.769   3.472  12.492 -1.7701 -1.2689  2.9037
13783TIP3    H262841   2.718   3.353  12.414 -0.2572 -0.9693  1.4031
13784TIP3   OH262842   0.443   5.119  12.101 -0.0264 -0.2255  0.4763
13784TIP3    H162843   0.500   5.153  12.032  0.0667 -0.3459  0.4928
13784TIP3    H262844   0.456   5.024  12.098 -2.2052 -0.5566 -1.3006
13785TIP3   OH262845   6.591   4.024  13.151  0.3859  0.2190  0.4218
13785TIP3    H162846   6.553   4.042  13.065 -0.0037 -0.2323  0.4946
13785TIP3    H262847   6.656   3.956  13.135  1.4488  1.2520  0.2385
13786TIP3   OH262848   4.456   1.094   4.854  0.6374  0.4163  0.3182
13786TIP3    H162849   4.477   1.184   4.830 -0.3527  1.0084  1.5623
13786TIP3    H262850   4.376   1.074   4.805 -0.1935  0.8978  1.4114
13787TIP3   OH262851   0.258   5.922  12.654  0.4697 -0.6478  0.5063
13787TIP3    H162852   0.212   5.930  12.738  1.1783  1.3608  0.7639
13787TIP3    H262853   0.335   5.869  12.674 -1.3489 -3.6028  0.1820
13788TIP3   OH262854   5.006   4.641  12.337 -0.3841 -0.3853  0.3578
13788TIP3    H162855   4.935   4.579  12.353 -0.8199  0.8134  3.6336
13788TIP3    H262856   4.976   4.724  12.374  1.5219  0.9792 -0.9260
13789TIP3   OH262857   5.565   2.497  11.466 -0.0700 -0.2453  0.5571
13789TIP3    H162858   5.536   2.552  11.393 -0.8133 -1.9486 -0.5069
13789TIP3    H262859   5.497   2.508  11.533 -0.2247  0.1236  0.3392
13790TIP3   OH262860   5.708   1.169  15.671  0.3776  0.0764 -0.0557
13790TIP3    H162861   5.745   1.223  15.741 -1.3159  1.0817  0.1214
13790TIP3    H262862   5.716   1.222  15.592 -0.7662  0.3775  0.0121
13791TIP3   OH262863   6.659   1.726   1.024  0.4044  0.9256  0.0360
13791TIP3    H162864   6.567   1.713   1.048  0.4543  0.6658  0.0950
13791TIP3    H262865   6.691   1.792   1.085  1.4305 -2.0146  3.0043
13792TIP3   OH262866   5.515   6.756   4.071  0.0227  0.2173 -0.6520
13792TIP3    H162867   5.589   6.767   4.012  0.7715 -1.2020 -0.0066
13792TIP3    H262868   5.488   6.665   4.059 -0.4817  0.2126  0.4156
13793TIP3   OH262869   2.962   6.022  15.081  0.0645  0.0105  0.0395
13793TIP3    H162870   2.974   6.115  15.099 -0.1989  0.3244 -1.3124
13793TIP3    H262871   2.869   6.013  15.061  0.2951 -0.3563 -0.8899
13794TIP3   OH262872   2.763   4.620   4.369 -0.0911 -0.0097  0.2548
13794TIP3    H162873   2.699   4.691   4.371 -1.3218 -1.0872  0.9994
13794TIP3    H262874   2.745   4.570   4.448 -0.2104 -1.9560 -0.9466
13795TIP3   OH262875   4.381   5.045   1.559  0.6044  0.0963  0.1792
13795TIP3    H162876   4.286   5.033   1.560  0.4027  1.5150  1.0606
13795TIP3    H262877   4.414   4.979   1.620  0.1142  0.0310  0.3807
13796TIP3   OH262878   1.396   6.714   5.836  0.5493 -0.3736  0.1540
13796TIP3    H162879   1.359   6.730   5.750  0.4107 -0.0606  0.2710
13796TIP3    H262880   1.481   6.759   5.836  0.6956 -0.6463  0.0698
13797TIP3   OH262881   2.727   1.296   3.637 -0.3487  0.2074  0.3576
13797TIP3    H162882   2.760   1.292   3.727  1.0998  1.6475 -0.0362
13797TIP3    H262883   2.664   1.368   3.639  1.3751  1.8309 -0.1770
13798TIP3   OH262884   4.515   4.643  10.868 -0.2237  0.1171  0.1940
13798TIP3    H162885   4.486   4.732  10.887 -0.1863  0.5430 -1.5696
13798TIP3    H262886   4.601   4.653  10.828 -1.0075 -0.5267 -1.7601
13799TIP3   OH262887   4.377   3.438   6.318 -0.1988 -0.3284  0.6996
13799TIP3    H162888   4.390   3.531   6.296 -2.0093  0.0444  1.0508
13799TIP3    H262889   4.430   3.424   6.396  0.7297  0.1825  0.1807
13800TIP3   OH262890   1.296   1.593   1.541  0.6247  0.1644 -0.4708
13800TIP3    H162891   1.201   1.586   1.529  0.6541  0.0270 -0.6173
13800TIP3    H262892   1.327   1.503   1.546  0.7807  0.2047 -0.6769
13801TIP3   OH262893   1.183   4.290  10.882  0.3409  0.3321  0.0512
13801TIP3    H162894   1.224   4.232  10.817  0.9467  0.8028  0.0007
13801TIP3    H262895   1.136   4.231  10.941  0.0510 -0.1298 -0.6218
13802TIP3   OH262896   3.585   1.650   0.510  0.7640 -0.1337 -0.0601
13802TIP3    H162897   3.656   1.601   0.551  0.4492 -0.4402  0.1280
13802TIP3    H262898   3.588   1.625   0.418  0.1437 -1.0783  0.1682
13803TIP3   OH262899   4.537   2.952  16.803  0.4271 -0.1158 -0.1588
13803TIP3    H162900   4.621   2.907  16.801 -0.1888 -1.2965 -1.6067
13803TIP3    H262901   4.475   2.887  16.770 -1.0437  0.7712  0.7476
13804TIP3   OH262902   0.625   1.001  12.772  0.1971  0.0057 -0.3444
13804TIP3    H162903   0.688   1.062  12.809 -1.7537  1.8670  0.1236
13804TIP3    H262904   0.672   0.918  12.765  2.2019  0.9215  1.3800
13805TIP3   OH262905   6.789   1.947  16.619 -0.4867  0.0189 -0.0279
13805TIP3    H162906   6.814   2.032  16.583 -0.0642 -0.1483 -0.1400
13805TIP3    H262907   6.776   1.963  16.712 -2.9419  0.7586 -0.4214
13806TIP3   OH262908   3.275   3.758   2.059  0.5932 -0.5111  0.0060
13806TIP3    H162909   3.309   3.701   2.128  0.4273 -0.5952  0.0173
13806TIP3    H262910   3.270   3.703   1.982 -1.5144 -1.0950  0.4959
13807TIP3   OH262911   0.089   1.465  16.064 -0.5240 -0.1750  0.5828
13807TIP3    H162912   0.045   1.390  16.025  1.3771 -0.9159 -0.2696
13807TIP3    H262913   0.173   1.431  16.095 -0.1588  1.3338  1.3537
13808TIP3   OH262914   4.766   0.882   2.612  0.2549  0.1222  0.0707
13808TIP3    H162915   4.815   0.942   2.556 -1.1720 -2.4334 -4.4107
13808TIP3    H262916   4.686   0.930   2.633  0.9143  1.2250  0.1453
13809TIP3   OH262917   1.684   3.008  11.871 -0.5607  0.3378  0.3740
13809TIP3    H162918   1.617   3.005  11.803 -0.6917  0.1004  0.5144
13809TIP3    H262919   1.649   3.067  11.937 -0.5690  0.3192  0.3858
13810TIP3   OH262920   6.107   4.601   4.314 -0.7614 -0.3052  0.0696
13810TIP3    H162921   6.164   4.636   4.383  0.4071  0.5293 -1.2536
13810TIP3    H262922   6.143   4.515   4.294 -0.4365 -0.1099 -0.2082
13811TIP3   OH262923   6.741   1.526   3.407  0.0871 -0.2781 -0.1565
13811TIP3    H162924   6.711   1.449   3.359 -0.2303  0.4544 -1.1588
13811TIP3    H262925   6.710   1.601   3.355  0.5694  0.5273  0.6834
13812TIP3   OH262926   3.888   5.045  14.583  0.8169 -0.2631 -0.0983
13812TIP3    H162927   3.795   5.023  14.589  1.4506 -2.6841  3.1091
13812TIP3    H262928   3.912   5.022  14.493 -1.5374 -0.0101 -0.8561
13813TIP3   OH262929   0.568   2.625   0.378  0.3737  0.1092 -0.6153
13813TIP3    H162930   0.624   2.561   0.421 -0.4641  1.3461  2.5967
13813TIP3    H262931   0.624   2.666   0.313  1.4821 -2.4652 -1.4201
13814TIP3   OH262932   3.573   3.852  14.212  0.2442 -0.5538 -0.0374
13814TIP3    H162933   3.604   3.868  14.302 -0.0718 -0.9078  0.1375
13814TIP3    H262934   3.645   3.882  14.157  0.8511 -1.2043  0.3604
13815TIP3   OH262935   1.500   0.335   1.502  0.1665  0.3204  0.7290
13815TIP3    H162936   1.428   0.274   1.485  0.3549 -0.4340  2.5008
13815TIP3    H262937   1.540   0.349   1.416 -1.1501 -0.4327 -0.0317
13816TIP3   OH262938   1.502   6.206   0.746  0.6160  0.1954  0.0841
13816TIP3    H162939   1.493   6.134   0.684 -0.0131  1.9457 -1.9723
13816TIP3    H262940   1.439   6.271   0.716  0.2505  1.1364  2.6301
13817TIP3   OH262941   1.172   5.664   3.226 -0.4407  0.4256 -0.1179
13817TIP3    H162942   1.110   5.680   3.155 -0.8361 -1.4418 -0.2424
13817TIP3    H262943   1.119   5.627   3.297  0.2768  0.3397  0.3869
13818TIP3   OH262944   5.529   0.283  12.195 -0.2522  0.6799 -0.1981
13818TIP3    H162945   5.599   0.223  12.219 -1.1174 -0.5659 -0.6848
13818TIP3    H262946   5.548   0.306  12.104 -0.6693  0.0316 -0.4572
13819TIP3   OH262947   0.008   1.180  13.242 -0.2456 -0.2046  0.3122
13819TIP3    H162948  -0.032   1.167  13.156  1.3364  0.0238 -0.4765
13819TIP3    H262949   0.048   1.267  13.238  0.7061 -0.5963  0.9166
13820TIP3   OH262950   6.807   1.709   4.004 -0.6345 -0.3561  0.1695
13820TIP3    H162951   6.859   1.656   4.065  2.0868  0.2978 -1.4033
13820TIP3    H262952   6.836   1.799   4.019 -2.3344  0.2257  0.1251
13821TIP3   OH262953   0.971   6.541  17.073  0.4117 -0.3124  0.2228
13821TIP3    H162954   0.977   6.585  16.989 -0.1638 -0.7400 -0.0509
13821TIP3    H262955   0.943   6.452  17.052  1.3355 -0.7551  0.7811
13822TIP3   OH262956   5.756   4.229  14.980  0.2614  0.1177  0.0329
13822TIP3    H162957   5.781   4.252  14.890  0.5003 -1.6357 -0.3886
13822TIP3    H262958   5.664   4.204  14.972  0.6451 -1.3389 -0.0015
13823TIP3   OH262959   3.906   2.018   5.216 -0.0927  0.2137 -0.5517
13823TIP3    H162960   3.904   1.925   5.239 -0.6381  0.7952  2.1063
13823TIP3    H262961   3.993   2.032   5.181  0.5278 -1.0260  0.4026
13824TIP3   OH262962   4.158   4.566   4.519  0.9300  0.0864  0.0923
13824TIP3    H162963   4.209   4.553   4.439  0.3847 -0.0064 -0.2449
13824TIP3    H262964   4.107   4.485   4.529  0.7149  0.2483  0.3248
13825TIP3   OH262965   3.966   0.095   2.895  0.1916  0.0758 -0.4130
13825TIP3    H162966   3.907   0.038   2.945 -0.2024 -0.6483 -1.6515
13825TIP3    H262967   3.939   0.184   2.918 -0.5447 -0.2477  0.0055
13826TIP3   OH262968   3.711   6.263  14.554  0.6979  0.8467 -0.2141
13826TIP3    H162969   3.712   6.357  14.572  0.1163  1.0697 -1.2360
13826TIP3    H262970   3.620   6.244  14.531  0.7927  0.0113  0.0673
13827TIP3   OH262971   0.820   2.371   3.817 -0.2858  0.3556 -0.6569
13827TIP3    H162972   0.751   2.437   3.821 -0.2945  0.2856  0.8508
13827TIP3    H262973   0.885   2.401   3.881 -0.1753 -0.9534 -0.1213
13828TIP3   OH262974   4.739   3.464   3.751 -0.1474  0.3412 -0.1866
13828TIP3    H162975   4.710   3.527   3.686  1.5893 -0.4925 -1.8627
13828TIP3    H262976   4.754   3.383   3.702  2.2537 -0.0231  0.9947
13829TIP3   OH262977   4.079   6.186   1.640 -0.0736  0.4200  0.0549
13829TIP3    H162978   4.136   6.143   1.577  0.7297  0.2785  0.8724
13829TIP3    H262979   4.138   6.222   1.706 -0.8572  1.1812  0.3578
13830TIP3   OH262980   3.563   6.002   2.441 -0.3358  0.2851  0.0411
13830TIP3    H162981   3.607   6.080   2.407  0.2075 -0.2222 -0.4487
13830TIP3    H262982   3.509   6.034   2.513  0.4277  1.0038  0.3089
13831TIP3   OH262983   2.585   5.604   2.636  0.2949  0.1599  0.5415
13831TIP3    H162984   2.515   5.567   2.690 -1.9526 -0.4147 -2.4869
13831TIP3    H262985   2.576   5.699   2.647 -1.9260  0.1675 -0.7428
13832TIP3   OH262986   5.003   5.227   1.880  0.0356 -0.6681  0.3573
13832TIP3    H162987   4.983   5.292   1.812  1.0507 -0.0728  0.6064
13832TIP3    H262988   4.973   5.144   1.844  2.3127 -0.7054 -1.6988
13833TIP3   OH262989   6.358   2.147   4.613  0.3658 -0.1595 -0.3026
13833TIP3    H162990   6.392   2.194   4.690  0.9278  2.0861 -1.8169
13833TIP3    H262991   6.263   2.155   4.621  0.4357  2.0904 -0.9090
13834TIP3   OH262992   6.469   4.290  12.702 -0.1977 -0.2654 -0.2699
13834TIP3    H162993   6.513   4.256  12.780  0.7124  1.9495  0.2684
13834TIP3    H262994   6.534   4.347  12.661 -1.3161  0.1109 -1.5795
13835TIP3   OH262995   3.106   5.642  10.296  0.7000  0.3958 -0.1902
13835TIP3    H162996   3.080   5.734  10.292 -1.5944 -0.1474  0.5641
13835TIP3    H262997   3.023   5.594  10.303  1.7847 -1.7985 -1.3632
13836TIP3   OH262998   1.732   0.034   0.115  0.0964  0.0592 -0.4019
13836TIP3    H162999   1.736  -0.002   0.026  0.4846  0.7303 -0.6672
13836TIP3    H263000   1.654  -0.005   0.153 -1.0848  1.1032 -1.6391
13837TIP3   OH263001   0.510   1.790   2.767  0.1504  0.1860  0.0545
13837TIP3    H163002   0.549   1.859   2.712  0.4500  2.0654  2.4512
13837TIP3    H263003   0.500   1.831   2.853 -1.9332 -2.0581  0.9865
13838TIP3   OH263004   5.757   3.231  13.090 -0.1003  0.3717 -0.0315
13838TIP3    H163005   5.730   3.139  13.088  0.2132  0.2848 -2.2429
13838TIP3    H263006   5.680   3.280  13.063  0.0669  0.6668  0.0192
13839TIP3   OH263007   2.105   3.562   3.845 -0.0186  0.5405  0.8501
13839TIP3    H163008   2.050   3.486   3.825  0.2521 -0.0682  2.3138
13839TIP3    H263009   2.157   3.575   3.765 -2.2914  1.2173 -0.6236
13840TIP3   OH263010   6.052   6.195   0.394  0.2395 -0.0328  0.3749
13840TIP3    H163011   6.034   6.130   0.327  1.1688 -0.3034  0.3660
13840TIP3    H263012   6.078   6.145   0.471 -0.6409  0.2820  0.8924
13841TIP3   OH263013   0.024   1.822  16.258  0.0379 -0.0331  0.4597
13841TIP3    H163014   0.084   1.759  16.218 -0.0610  0.1461  0.0208
13841TIP3    H263015  -0.063   1.793  16.232  0.0370  0.8299 -0.5843
13842TIP3   OH263016   2.798   4.117  15.190  0.2534  0.8269  0.2396
13842TIP3    H163017   2.873   4.064  15.163  0.3456  1.2820 -0.4197
13842TIP3    H263018   2.834   4.178  15.254 -0.0714 -0.6078  1.8793
13843TIP3   OH263019   3.010   2.263  15.242 -0.2695  0.1569 -0.2706
13843TIP3    H163020   3.066   2.282  15.167 -0.4188 -0.5073 -0.5601
13843TIP3    H263021   3.057   2.298  15.318  2.2152 -3.1779 -0.0193
13844TIP3   OH263022   4.408   3.026  14.219 -0.5265 -0.3484  0.1470
13844TIP3    H163023   4.407   3.014  14.124 -0.1894  0.1590  0.0714
13844TIP3    H263024   4.501   3.022  14.243 -0.5869 -0.1919  0.4155
13845TIP3   OH263025   3.743   0.891  13.062 -0.5571  0.4328  0.3844
13845TIP3    H163026   3.650   0.914  13.058 -0.3105  1.4922  0.5111
13845TIP3    H263027   3.743   0.802  13.098 -1.5217  0.3930  0.3266
13846TIP3   OH263028   4.712   0.171   4.944 -0.4699 -0.3175 -0.0998
13846TIP3    H163029   4.682   0.245   4.998 -1.6894 -1.8069  1.4144
13846TIP3    H263030   4.645   0.163   4.876 -0.4357 -0.1447 -0.1554
13847TIP3   OH263031   5.406   3.603  13.662 -0.7693  0.2256 -0.4663
13847TIP3    H163032   5.475   3.542  13.637 -2.4180 -1.0342 -2.1751
13847TIP3    H263033   5.375   3.640  13.579 -0.8531  2.2924  0.4085
13848TIP3   OH263034   4.991   2.089   3.522 -0.2102 -0.8296  0.4997
13848TIP3    H163035   4.906   2.061   3.486 -0.1260 -0.2492 -0.1487
13848TIP3    H263036   5.053   2.023   3.491 -0.2556 -0.7127  0.1643
13849TIP3   OH263037   0.640   1.461  12.478  0.0316 -0.4859 -0.4799
13849TIP3    H163038   0.647   1.427  12.567  1.7410 -0.4782 -0.5659
13849TIP3    H263039   0.731   1.466  12.447 -0.3769  1.2019 -1.5735
13850TIP3   OH263040   0.717   3.823  13.913 -0.2839  0.1684 -0.2378
13850TIP3    H163041   0.771   3.899  13.892  1.3207 -0.6966  0.5596
13850TIP3    H263042   0.691   3.788  13.828 -1.1401  1.6349 -0.6183
13851TIP3   OH263043   0.615   3.486  12.108 -0.3018  0.2510  0.5964
13851TIP3    H163044   0.551   3.500  12.177 -1.5537  1.3182 -0.7247
13851TIP3    H263045   0.683   3.551  12.124 -1.7352  2.0802 -0.4448
13852TIP3   OH263046   4.162   4.726  12.734  0.3250  0.1759 -0.2293
13852TIP3    H163047   4.237   4.777  12.702  0.9717  0.8097  2.1404
13852TIP3    H263048   4.108   4.789  12.782 -0.8835 -0.6219 -0.4818
13853TIP3   OH263049   0.508   6.262   4.855  0.3173 -0.6648 -0.3955
13853TIP3    H163050   0.517   6.291   4.945  0.1872  0.9542 -0.8756
13853TIP3    H263051   0.426   6.212   4.854 -0.2898  0.2869  0.1622
13854TIP3   OH263052   3.056   1.495  12.729  0.2081  0.0215 -0.2230
13854TIP3    H163053   3.119   1.491  12.656 -1.5093 -1.7816 -1.7182
13854TIP3    H263054   2.985   1.436  12.703 -1.2172  0.4935  2.2636
13855TIP3   OH263055   0.656   2.672  16.699  0.1057 -0.2498 -0.2595
13855TIP3    H163056   0.699   2.755  16.677  0.5247 -0.6974 -1.1665
13855TIP3    H263057   0.603   2.693  16.776  1.2655  0.5347  0.3677
13856TIP3   OH263058   3.941   4.530  11.521  0.0315  0.1125  0.0568
13856TIP3    H163059   3.928   4.621  11.497 -0.1486  0.2383  0.6304
13856TIP3    H263060   3.853   4.492  11.519 -0.3905  0.7326  2.9868
13857TIP3   OH263061   5.439   0.552  15.569  0.3813 -0.2689 -0.0508
13857TIP3    H163062   5.509   0.589  15.516 -0.8450  1.3543 -0.5952
13857TIP3    H263063   5.379   0.513  15.505  0.8248 -1.7989  0.4195
13858TIP3   OH263064   0.693   5.659  13.781  0.3099 -0.7700 -0.1024
13858TIP3    H163065   0.722   5.622  13.698 -0.1938 -0.9655 -0.1982
13858TIP3    H263066   0.721   5.596  13.847 -0.8927 -1.5515 -0.2996
13859TIP3   OH263067   1.064   2.912   3.363 -0.0644  0.4208 -0.2241
13859TIP3    H163068   1.088   2.838   3.306  0.5304  2.3285 -2.5993
13859TIP3    H263069   0.968   2.913   3.362 -0.0656  0.4160 -1.2329
13860TIP3   OH263070   4.074   5.932  15.714  0.1819  0.5233 -0.4764
13860TIP3    H163071   4.010   5.962  15.650 -1.0043  1.0398  0.9008
13860TIP3    H263072   4.044   5.844  15.738  0.9318  0.1111 -1.0032
13861TIP3   OH263073   2.661   3.865  15.169 -0.1472  0.4761 -0.3585
13861TIP3    H163074   2.736   3.806  15.174 -0.0212  0.6768  2.9625
13861TIP3    H263075   2.699   3.953  15.179 -0.5866  0.9104 -2.1736
13862TIP3   OH263076   1.722   2.665   2.909 -0.1436  0.2187 -0.1631
13862TIP3    H163077   1.805   2.664   2.863  1.1116  1.2037  1.9351
13862TIP3    H263078   1.667   2.727   2.861  0.4823 -0.0774 -1.2840
13863TIP3   OH263079   2.358   5.493  15.210  1.0405 -0.0322  0.2561
13863TIP3    H163080   2.364   5.588  15.209 -1.0292  0.1543 -1.0571
13863TIP3    H263081   2.321   5.472  15.296 -0.1386  0.5235 -0.0949
13864TIP3   OH263082   5.944   3.619   4.095  0.9400 -0.0946  0.9715
13864TIP3    H163083   5.992   3.564   4.033  0.4906  1.1176 -0.5258
13864TIP3    H263084   5.862   3.573   4.110  1.0090 -0.3512  0.5805
13865TIP3   OH263085   3.981   4.794  14.099 -0.1408  0.4358  0.3654
13865TIP3    H163086   4.073   4.800  14.075  0.5341  1.2247  2.8169
13865TIP3    H263087   3.959   4.881  14.132 -2.0422  0.5167 -0.9386
13866TIP3   OH263088   5.995   1.200   5.245 -0.1191  0.5228 -0.3179
13866TIP3    H163089   6.015   1.176   5.335  0.1153  1.6172 -0.0689
13866TIP3    H263090   5.919   1.257   5.251  0.2582  1.0769 -0.7587
13867TIP3   OH263091   4.383   4.089  11.021  0.6400 -0.2558  0.4280
13867TIP3    H163092   4.412   4.014  11.072 -0.0946  0.2507  1.6337
13867TIP3    H263093   4.297   4.112  11.057  1.0746  1.4792  0.4718
13868TIP3   OH263094   4.526   3.410   3.283 -0.2415 -0.2783  0.5897
13868TIP3    H163095   4.502   3.388   3.194 -2.9670  2.3077  0.5496
13868TIP3    H263096   4.473   3.352   3.338 -3.5791  2.3552  0.4419
13869TIP3   OH263097   1.069   4.259  13.068  0.0937 -0.2708  0.2652
13869TIP3    H163098   0.986   4.248  13.021  0.1846 -0.2072  0.0893
13869TIP3    H263099   1.119   4.181  13.048  0.3459  0.0002 -0.1829
13870TIP3   OH263100   0.976   3.629  11.350  0.6119  0.0957 -0.0981
13870TIP3    H163101   0.883   3.631  11.374  0.2803 -0.6055 -1.2694
13870TIP3    H263102   1.021   3.610  11.432 -0.4127 -1.2824  0.1713
13871TIP3   OH263103   4.620   2.534  16.576 -0.1294 -0.3191  0.1610
13871TIP3    H163104   4.699   2.489  16.606  1.3969  1.4320 -1.0400
13871TIP3    H263105   4.615   2.514  16.482 -0.2959  0.7610 -0.0698
13872TIP3   OH263106   3.480   5.792  16.386  0.1916 -0.6394  0.2798
13872TIP3    H163107   3.534   5.736  16.331  0.8740 -1.8959  2.1344
13872TIP3    H263108   3.542   5.847  16.434 -0.3274 -0.1710  0.4228
13873TIP3   OH263109   4.795   0.196   3.413  0.0589  0.0479  0.0761
13873TIP3    H163110   4.837   0.132   3.356 -0.4037  0.9170 -1.2657
13873TIP3    H263111   4.788   0.151   3.498  2.7828 -0.4581  0.1083
13874TIP3   OH263112   5.457   6.137  13.284 -0.1116 -0.3122 -0.3859
13874TIP3    H163113   5.384   6.076  13.293 -1.5427  1.4204  0.6002
13874TIP3    H263114   5.423   6.205  13.225  0.2080  1.1341  1.0231
13875TIP3   OH263115   3.622   4.992  14.620 -0.3291  0.0086 -0.2065
13875TIP3    H163116   3.647   4.942  14.697  0.1074 -0.1557 -0.4507
13875TIP3    H263117   3.578   4.928  14.563 -1.6849  0.3794  0.3856
13876TIP3   OH263118   2.450   6.267  14.150 -0.9717  0.3749  0.1240
13876TIP3    H163119   2.469   6.175  14.135 -0.2676  0.6903 -1.0515
13876TIP3    H263120   2.383   6.267  14.219  0.2058 -0.9421  1.3348
13877TIP3   OH263121   4.254   0.079  14.129 -0.1191 -0.2996 -0.5835
13877TIP3    H163122   4.231   0.150  14.069 -0.1463 -0.2833 -0.5539
13877TIP3    H263123   4.348   0.064  14.114 -0.4144 -1.2188 -1.6103
13878TIP3   OH263124   5.795   3.343   0.929  0.0473 -0.3177  0.7449
13878TIP3    H163125   5.813   3.272   0.867  0.8269  0.8575 -0.4275
13878TIP3    H263126   5.880   3.361   0.969  0.8130  2.5325 -1.8406
13879TIP3   OH263127   6.695   5.823  12.798  0.0801  0.2086 -0.4359
13879TIP3    H163128   6.624   5.842  12.858 -0.0903 -2.2458  0.2639
13879TIP3    H263129   6.774   5.825  12.851  0.0236 -1.1477 -0.2663
13880TIP3   OH263130   3.445   0.185  12.127  0.5299  0.1524  0.0075
13880TIP3    H163131   3.458   0.143  12.212  1.4823 -0.9279 -0.6377
13880TIP3    H263132   3.364   0.234  12.137  0.3468 -0.3766  1.3770
13881TIP3   OH263133   0.117   4.756  17.080  0.4556  0.2516 -0.1535
13881TIP3    H163134   0.190   4.738  17.020 -0.4246  0.2976 -1.2755
13881TIP3    H263135   0.080   4.839  17.050 -0.2646  0.0670  0.1853
13882TIP3   OH263136   3.729   0.907   6.231 -0.2486 -0.5992  0.2622
13882TIP3    H163137   3.639   0.886   6.208 -0.3947 -1.2155  1.3132
13882TIP3    H263138   3.758   0.833   6.285  1.8336 -1.8783 -2.3115
13883TIP3   OH263139   6.215   4.789  13.723 -0.2522 -0.0321 -0.1811
13883TIP3    H163140   6.250   4.701  13.710 -0.2749 -0.0903  0.1457
13883TIP3    H263141   6.265   4.825  13.796  2.8640  1.8735 -2.9477
13884TIP3   OH263142   3.741   5.367   3.718  0.5293 -0.0986 -1.0742
13884TIP3    H163143   3.692   5.352   3.638  0.4553 -1.3161 -0.8236
13884TIP3    H263144   3.694   5.317   3.785  2.0408 -1.2528 -0.8158
13885TIP3   OH263145   1.248   4.442   4.535  0.4273 -0.5165  0.3566
13885TIP3    H163146   1.213   4.453   4.624 -1.5709 -1.5654 -0.2487
13885TIP3    H263147   1.192   4.497   4.480 -0.5284 -2.4529 -0.6856
13886TIP3   OH263148   3.769   3.108   4.179 -0.4869  0.1233 -0.3633
13886TIP3    H163149   3.810   3.191   4.153 -0.9314  0.1896 -0.8779
13886TIP3    H263150   3.755   3.117   4.273  2.9001 -0.8575  0.3863
13887TIP3   OH263151   1.647   0.419  12.541  0.2494  0.4044  0.2651
13887TIP3    H163152   1.655   0.491  12.603 -0.1930 -0.1056  0.9304
13887TIP3    H263153   1.644   0.461  12.455  1.8333  1.0712  0.4989
13888TIP3   OH263154   5.692   4.130   2.522  0.0492  0.2010 -0.0384
13888TIP3    H163155   5.755   4.097   2.457 -0.9122 -0.9084 -0.4370
13888TIP3    H263156   5.636   4.055   2.541 -2.0353  1.4887 -0.7529
13889TIP3   OH263157   0.383   0.483  14.756  0.3024 -0.2526 -0.1087
13889TIP3    H163158   0.368   0.577  14.750  1.0349 -0.1761 -0.9384
13889TIP3    H263159   0.295   0.446  14.763  0.0632  0.5551  1.4644
13890TIP3   OH263160   2.908   5.450  13.112 -0.1720  0.2085  0.0417
13890TIP3    H163161   2.924   5.533  13.156 -0.1054  0.7205 -0.9237
13890TIP3    H263162   2.813   5.447  13.100 -0.1769  0.1376  0.1005
13891TIP3   OH263163   1.734   4.811   0.868 -0.9026  0.1383 -0.0426
13891TIP3    H163164   1.776   4.750   0.929 -0.7511  1.2246  0.9740
13891TIP3    H263165   1.801   4.830   0.802 -0.9386 -0.7516 -0.3445
13892TIP3   OH263166   2.067   3.071   5.835  0.0910  0.2709  0.2035
13892TIP3    H163167   2.134   3.061   5.902  0.3812 -0.5068 -0.1874
13892TIP3    H263168   2.046   3.165   5.835 -0.0035  0.2542  1.4490
13893TIP3   OH263169   5.626   5.786   4.465  0.2467  0.3631 -0.8410
13893TIP3    H163170   5.555   5.774   4.529  0.6753  1.1626 -0.1936
13893TIP3    H263171   5.628   5.881   4.449  1.1459  0.3503 -0.8689
13894TIP3   OH263172   3.127   4.457   5.007 -0.2174  0.5334  0.5124
13894TIP3    H163173   3.205   4.465   4.953  0.6635  1.1270  1.8090
13894TIP3    H263174   3.108   4.363   5.009 -0.4819  0.5231 -1.0557
13895TIP3   OH263175   4.355   4.769  14.196  0.0805 -0.6612 -0.4038
13895TIP3    H163176   4.353   4.846  14.254 -1.8363 -1.2299  0.3671
13895TIP3    H263177   4.446   4.740  14.197  0.6073  0.9345  0.1836
13896TIP3   OH263178   4.269   1.624  14.373  0.1847 -0.7351 -0.3364
13896TIP3    H163179   4.333   1.558  14.345  0.1680 -1.3128  0.9053
13896TIP3    H263180   4.223   1.582  14.446  0.8178  1.0127  1.1146
13897TIP3   OH263181   4.685   4.560  16.500 -0.2231 -0.0293  0.0431
13897TIP3    H163182   4.682   4.589  16.409 -0.4579  1.1653  0.4124
13897TIP3    H263183   4.774   4.582  16.529 -0.4193  0.4032  0.3406
13898TIP3   OH263184   5.161   1.583  15.841 -0.3518  0.2339  0.2588
13898TIP3    H163185   5.069   1.594  15.867 -0.3812  3.2327 -0.7258
13898TIP3    H263186   5.184   1.667  15.801  2.3463 -1.0446 -1.0704
13899TIP3   OH263187   6.371   2.436   1.388  0.6318  0.3318 -0.1615
13899TIP3    H163188   6.341   2.508   1.333 -0.3168  0.4966  0.5553
13899TIP3    H263189   6.397   2.368   1.326  2.0356  1.4383 -0.8811
13900TIP3   OH263190   2.162   6.684  11.443 -0.0426  0.0820  0.5795
13900TIP3    H163191   2.190   6.761  11.393 -0.5891 -1.6615 -2.6923
13900TIP3    H263192   2.066   6.692  11.447  0.0757  0.9180  2.7378
13901TIP3   OH263193   3.228   1.512   0.108  0.5391  0.1950  0.2691
13901TIP3    H163194   3.166   1.573   0.068 -0.0339 -0.1130  0.6739
13901TIP3    H263195   3.313   1.555   0.099  0.3512  0.3790 -0.7876
13902TIP3   OH263196   1.273   1.153  16.898 -0.0815  0.0677  0.6226
13902TIP3    H163197   1.363   1.124  16.883 -0.2514 -0.0293 -0.2643
13902TIP3    H263198   1.220   1.096  16.842 -0.5841  0.8949  0.2353
13903TIP3   OH263199   5.937   3.420  13.188  0.0305 -0.5815 -0.1346
13903TIP3    H163200   5.901   3.419  13.277  0.7555 -2.6959  0.1838
13903TIP3    H263201   5.883   3.357  13.140  1.7177 -2.0040 -0.2685
13904TIP3   OH263202   2.481   2.227   3.808  0.0180 -0.3008  0.9396
13904TIP3    H163203   2.509   2.245   3.898 -1.1350  0.1160  1.2301
13904TIP3    H263204   2.534   2.285   3.754  2.3424 -2.0958  1.0921
13905TIP3   OH263205   4.972   0.627  16.491 -0.2491 -0.3461 -0.0985
13905TIP3    H163206   4.943   0.715  16.466 -0.5022 -1.2643 -3.4944
13905TIP3    H263207   5.067   0.635  16.500 -0.2369  0.2403 -0.6548
13906TIP3   OH263208   1.353   2.360   3.011 -0.1930  0.1179 -0.4537
13906TIP3    H163209   1.425   2.416   2.982  1.2760 -1.6327 -0.3735
13906TIP3    H263210   1.353   2.286   2.949 -0.5770 -0.9384  0.7649
13907TIP3   OH263211   5.911   1.852  14.911 -0.4833  0.3683  0.6496
13907TIP3    H163212   5.970   1.906  14.858  0.2908  0.1370  1.2736
13907TIP3    H263213   5.959   1.833  14.991 -0.0438 -2.6155 -0.1765
13908TIP3   OH263214   0.678   3.104   0.061  0.1701  0.5072  0.3536
13908TIP3    H163215   0.702   3.014   0.039  0.1869  0.3731  0.9216
13908TIP3    H263216   0.582   3.105   0.052 -0.0045 -0.0013  1.8949
13909TIP3   OH263217   5.222   1.404  14.918 -0.1592 -0.4987 -0.0522
13909TIP3    H163218   5.171   1.359  14.985  0.5636 -0.4355  0.5562
13909TIP3    H263219   5.195   1.496  14.925 -0.9382 -0.6713 -0.6509
13910TIP3   OH263220   3.183   3.340  11.871 -0.1411  0.1098  0.0528
13910TIP3    H163221   3.246   3.409  11.889  0.3276 -0.5393  1.0115
13910TIP3    H263222   3.126   3.376  11.803  1.6809  0.4534 -1.3681
13911TIP3   OH263223   0.598   5.834  16.152  0.2430  0.8095 -0.2640
13911TIP3    H163224   0.648   5.825  16.071  0.5986  2.9736 -0.3297
13911TIP3    H263225   0.528   5.769  16.143  2.4880 -1.7228 -0.5094
13912TIP3   OH263226   2.467   5.965  15.876  0.0696 -0.4718  0.0021
13912TIP3    H163227   2.462   6.052  15.838  0.1964 -0.5872 -0.2881
13912TIP3    H263228   2.442   5.976  15.968  1.0766  0.0340  0.2185
13913TIP3   OH263229   2.339   4.124  14.279 -0.1209  0.3601 -0.3135
13913TIP3    H163230   2.246   4.145  14.284  0.4921  3.1764  0.8442
13913TIP3    H263231   2.366   4.158  14.193 -0.1871 -0.8388 -0.8356
13914TIP3   OH263232   0.054   5.412  10.740  0.1841  0.2028 -0.3703
13914TIP3    H163233   0.059   5.482  10.806 -0.6186 -1.0301  1.0559
13914TIP3    H263234  -0.039   5.409  10.716  0.4525  0.5546 -1.4862
13915TIP3   OH263235   4.119   6.632   4.078 -0.3232 -0.2641  0.5071
13915TIP3    H163236   4.031   6.657   4.052 -0.1223  0.2762  0.3321
13915TIP3    H263237   4.135   6.682   4.159 -0.2885 -0.5787  0.6932
13916TIP3   OH263238   4.595   5.454  13.801 -0.0461  0.2256  0.7686
13916TIP3    H163239   4.584   5.485  13.891 -0.3798  1.0893  0.4373
13916TIP3    H263240   4.689   5.434  13.794  0.8362  3.9240  0.1760
13917TIP3   OH263241   4.774   3.265  15.212  1.3443 -0.5942 -0.0207
13917TIP3    H163242   4.706   3.323  15.245  1.2007 -1.2831  0.9544
13917TIP3    H263243   4.830   3.248  15.288  0.7349 -2.6238  0.0379
13918TIP3   OH263244   6.144   0.421   5.688  0.4670 -0.5007 -0.2801
13918TIP3    H163245   6.180   0.501   5.727 -1.2714  0.0445  0.3057
13918TIP3    H263246   6.126   0.446   5.597  0.1689 -0.3023 -0.1682
13919TIP3   OH263247   1.117   5.768  17.113 -0.1438  0.3406  0.0572
13919TIP3    H163248   1.030   5.808  17.117 -0.3515  0.0545 -1.3691
13919TIP3    H263249   1.106   5.683  17.156 -0.7903 -0.0739 -0.9133
13920TIP3   OH263250   6.015   4.209  17.007 -0.1885  0.0383  0.6084
13920TIP3    H163251   6.012   4.279  17.073 -0.9115 -0.5235  1.1808
13920TIP3    H263252   6.092   4.230  16.954 -0.1097  0.9951  1.0768
13921TIP3   OH263253   2.956   1.669  15.763  0.1663 -0.1915  0.0257
13921TIP3    H163254   2.936   1.579  15.738 -0.2356  0.0228 -0.4218
13921TIP3    H263255   2.883   1.720  15.730  0.6833  0.3818 -0.2408
13922TIP3   OH263256   0.047   2.459  16.394 -0.7032  0.2331  0.0521
13922TIP3    H163257   0.001   2.441  16.312  0.6454 -0.4090 -0.5999
13922TIP3    H263258   0.134   2.488  16.366  0.2351 -1.2722  1.2519
13923TIP3   OH263259   4.942   5.783  13.618  0.2754  0.3247  0.0802
13923TIP3    H163260   4.956   5.816  13.529  0.1377 -1.6879 -0.7387
13923TIP3    H263261   4.943   5.862  13.673  1.2425  1.5363 -1.5752
13924TIP3   OH263262   5.043   1.231   0.896  0.3632  0.3272 -0.0191
13924TIP3    H163263   5.024   1.154   0.950  0.0466  0.1225 -0.4171
13924TIP3    H263264   4.958   1.276   0.890  0.2538  0.0198 -0.8562
13925TIP3   OH263265   3.202   1.709  16.355  0.1609 -0.3352 -0.0436
13925TIP3    H163266   3.252   1.725  16.435  0.0733  1.4413 -0.3117
13925TIP3    H263267   3.179   1.796  16.322  2.5247 -0.7752 -3.4751
13926TIP3   OH263268   3.894   2.428  16.426  0.1111 -0.1161 -0.2780
13926TIP3    H163269   3.928   2.401  16.511  0.2896 -0.7170 -0.5332
13926TIP3    H263270   3.948   2.502  16.401  1.2182 -1.0077 -0.6457
13927TIP3   OH263271   6.110   4.796  14.196 -0.3534  0.0807  0.0824
13927TIP3    H163272   6.190   4.813  14.246 -0.3121 -0.2225  0.1237
13927TIP3    H263273   6.048   4.763  14.261 -0.3088 -0.2855 -0.0591
13928TIP3   OH263274   2.942   4.124   6.102 -0.1978  0.2250 -0.1413
13928TIP3    H163275   2.978   4.186   6.165  0.3904 -2.3113  2.2138
13928TIP3    H263276   2.944   4.170   6.018 -0.4892  3.5628  1.5573
13929TIP3   OH263277   0.891   0.052   7.115 -0.1443  0.3675  0.2637
13929TIP3    H163278   0.951   0.002   7.060 -0.5270  0.2814 -0.0809
13929TIP3    H263279   0.808   0.003   7.112 -0.6597  1.2558 -0.4510
13930TIP3   OH263280   6.430   4.570   0.536  0.9882  0.2165 -0.4583
13930TIP3    H163281   6.503   4.511   0.557  0.9314 -0.0684 -1.0308
13930TIP3    H263282   6.379   4.522   0.471 -0.4346 -0.1489  0.8595
13931TIP3   OH263283   1.590   0.105  16.359 -0.1412 -0.3172  0.3600
13931TIP3    H163284   1.595   0.045  16.433  1.1747  1.1639  1.5047
13931TIP3    H263285   1.678   0.108  16.323 -0.3642  0.3498 -0.1646
13932TIP3   OH263286   3.350   3.279   2.224  0.2815 -0.4690  0.2280
13932TIP3    H163287   3.344   3.230   2.306  1.2495  0.8029  1.1087
13932TIP3    H263288   3.444   3.283   2.205  0.2995  1.4511  0.4948
13933TIP3   OH263289   6.372   0.118   3.068 -0.9947 -0.7451 -0.2941
13933TIP3    H163290   6.340   0.030   3.088  0.1152 -1.0145  0.4231
13933TIP3    H263291   6.342   0.172   3.141  0.7753 -1.1693  0.8247
13934TIP3   OH263292   0.697   4.024   5.453  0.1007 -0.5228 -0.3312
13934TIP3    H163293   0.726   4.093   5.512 -0.1464 -0.3049 -0.4624
13934TIP3    H263294   0.775   3.972   5.436 -0.3096 -2.1408  2.2307
13935TIP3   OH263295   1.682   1.835  14.722  0.0133 -0.2484 -0.0197
13935TIP3    H163296   1.647   1.920  14.696  1.1443  0.0119 -0.7815
13935TIP3    H263297   1.777   1.845  14.715  0.1935 -1.3803  0.5172
13936TIP3   OH263298   2.384   1.666   4.614  0.1415  0.1719 -0.0211
13936TIP3    H163299   2.308   1.617   4.582  0.3364  0.2651 -0.6402
13936TIP3    H263300   2.371   1.670   4.709 -0.0745 -0.7429  0.0039
13937TIP3   OH263301   6.812   6.262  11.605 -0.4587 -0.2203  0.1032
13937TIP3    H163302   6.724   6.245  11.570 -0.6979 -0.5000  0.8235
13937TIP3    H263303   6.845   6.335  11.552 -1.2188  0.0476 -0.0134
13938TIP3   OH263304   5.334   5.008   3.546  0.0818 -0.0202 -0.4141
13938TIP3    H163305   5.389   4.933   3.524  1.0555  0.5086  0.1246
13938TIP3    H263306   5.346   5.069   3.473  1.7792  0.9097  0.5719
13939TIP3   OH263307   0.897   2.387   2.803 -0.3193  0.4592 -0.0768
13939TIP3    H163308   0.963   2.373   2.871  0.8093  1.9626 -0.8199
13939TIP3    H263309   0.847   2.463   2.834 -1.0872 -0.0532 -0.0124
13940TIP3   OH263310   5.276   1.280   4.805  0.3714 -0.2035 -0.1315
13940TIP3    H163311   5.279   1.322   4.891 -1.4349 -2.4570  1.1498
13940TIP3    H263312   5.197   1.315   4.764 -0.5247 -1.4258  0.4871
13941TIP3   OH263313   1.097   5.404  16.920  0.2329  0.5879  0.1758
13941TIP3    H163314   1.060   5.450  16.844 -0.4289 -0.6814 -0.2975
13941TIP3    H263315   1.091   5.311  16.897  0.4476  0.2012  1.5969
13942TIP3   OH263316   5.731   4.677   5.337 -0.1576 -0.0371  0.0084
13942TIP3    H163317   5.708   4.735   5.265 -2.3051 -2.4213 -1.4146
13942TIP3    H263318   5.792   4.614   5.298 -0.9422 -1.0457  0.3590
13943TIP3   OH263319   2.756   2.550  16.079 -0.1265 -0.2436 -0.4186
13943TIP3    H163320   2.685   2.536  16.141  0.2512 -1.1938 -0.1667
13943TIP3    H263321   2.714   2.581  15.999 -0.9259 -1.4815 -0.5090
13944TIP3   OH263322   5.145   0.263   1.700 -0.3703  0.0567 -0.5966
13944TIP3    H163323   5.133   0.327   1.770 -0.4308  1.3793 -1.7792
13944TIP3    H263324   5.239   0.259   1.687 -0.1719 -1.7525  0.9115
13945TIP3   OH263325   2.449   3.582  14.254 -0.7735 -0.0587 -0.5774
13945TIP3    H163326   2.471   3.584  14.347  1.1410 -3.1354 -0.8439
13945TIP3    H263327   2.436   3.674  14.230 -1.9792  0.7778  2.8061
13946TIP3   OH263328   5.044   2.885   3.828 -0.5047  0.0329  0.1188
13946TIP3    H163329   5.033   2.790   3.836  1.5902 -0.1739  1.0202
13946TIP3    H263330   5.126   2.904   3.873 -1.1719  2.3772  0.4749
13947TIP3   OH263331   5.808   6.088   2.581  0.5311 -0.1942 -0.4549
13947TIP3    H163332   5.753   6.164   2.600  0.6040 -0.1505 -0.4179
13947TIP3    H263333   5.882   6.123   2.531  0.9032 -0.1328  0.1201
13948TIP3   OH263334   1.116   5.156   1.684  0.0305  0.1848 -0.0621
13948TIP3    H163335   1.193   5.185   1.635  0.0360  1.7095  0.7577
13948TIP3    H263336   1.104   5.065   1.660  2.7991 -0.4421  0.6537
13949TIP3   OH263337   2.429   1.208  14.020  0.6072  0.1757  0.0215
13949TIP3    H163338   2.475   1.220  13.936 -2.2952  1.5144 -1.5341
13949TIP3    H263339   2.425   1.296  14.057  2.3471 -0.4907  1.9397
13950TIP3   OH263340   3.137   1.666   4.626  0.0616 -0.5960  0.2486
13950TIP3    H163341   3.218   1.707   4.658  0.7558  1.5400 -3.6337
13950TIP3    H263342   3.166   1.594   4.571 -0.7302 -0.5826 -0.2008
13951TIP3   OH263343   1.489   2.425  16.992 -0.1368 -0.1306  0.4286
13951TIP3    H163344   1.512   2.339  17.027  0.8116 -0.0414  0.0374
13951TIP3    H263345   1.568   2.479  17.005 -0.1301  0.2068 -0.8562
13952TIP3   OH263346   6.769   0.419  16.778  0.1477  0.0177  0.5573
13952TIP3    H163347   6.718   0.338  16.773 -0.0800  0.0945  1.4841
13952TIP3    H263348   6.704   0.488  16.786  0.2926  0.4278 -1.2838
13953TIP3   OH263349   2.821   0.035  11.085 -0.0288  0.3991 -0.2072
13953TIP3    H163350   2.805  -0.021  11.161  2.3917 -0.5235 -0.2771
13953TIP3    H263351   2.746   0.020  11.027 -1.5207  0.5123  1.6110
13954TIP3   OH263352   4.979   1.471   5.394 -0.5282 -0.2743  0.1862
13954TIP3    H163353   4.933   1.547   5.431  0.6444  0.6616 -0.2210
13954TIP3    H263354   5.060   1.465   5.444  0.1133 -0.2824 -0.8445
13955TIP3   OH263355   4.144   6.168   4.319  0.1676 -0.0906  0.3593
13955TIP3    H163356   4.119   6.261   4.325  1.8282  0.4091 -0.0697
13955TIP3    H263357   4.238   6.167   4.336  0.4813 -1.5021 -1.2135
13956TIP3   OH263358   5.748   4.712  16.001 -0.1517 -0.7997 -0.0863
13956TIP3    H163359   5.734   4.720  15.907  1.6402 -0.3754 -0.3604
13956TIP3    H263360   5.838   4.744  16.015 -0.3135 -1.0100  1.7409
13957TIP3   OH263361   0.467   0.243  13.598  0.0990  0.2923 -0.3274
13957TIP3    H163362   0.460   0.322  13.546  0.8236  0.8248  0.3485
13957TIP3    H263363   0.398   0.186  13.566  0.4238  0.6623 -1.7452
13958TIP3   OH263364   3.959   2.862   1.179  0.0211  0.0950 -0.2269
13958TIP3    H163365   3.977   2.863   1.273  2.4361 -2.6795 -0.5022
13958TIP3    H263366   3.865   2.878   1.172 -0.0750  1.2097  2.5637
13959TIP3   OH263367   3.861   2.629  14.245  0.5967  0.5269  0.1772
13959TIP3    H163368   3.774   2.656  14.216  0.2634  0.5575  1.1831
13959TIP3    H263369   3.872   2.668  14.331  0.9484 -0.8020  0.7622
13960TIP3   OH263370   0.833   2.061  11.670  0.1082 -0.1965  0.1944
13960TIP3    H163371   0.794   2.080  11.756  0.4759 -0.5620  0.4493
13960TIP3    H263372   0.793   2.124  11.611 -0.7659 -0.4678  0.4785
13961TIP3   OH263373   6.608   2.414   0.043  0.4641  0.1378 -0.1562
13961TIP3    H163374   6.680   2.385   0.099  1.0253  0.6354 -0.6037
13961TIP3    H263375   6.555   2.336   0.029  2.4934 -0.9793 -2.1790
13962TIP3   OH263376   5.596   2.497  15.059 -0.3765  0.1876 -0.4388
13962TIP3    H163377   5.522   2.557  15.074 -0.8862 -0.2873 -1.0266
13962TIP3    H263378   5.601   2.488  14.964  0.0600 -0.2562 -0.3758
13963TIP3   OH263379   2.398   4.747   0.380 -0.0882 -0.2332  0.3125
13963TIP3    H163380   2.460   4.713   0.316 -0.2490 -0.1718  0.1221
13963TIP3    H263381   2.418   4.700   0.461  0.7138  0.3316  0.4539
13964TIP3   OH263382   3.014   0.134  11.769  0.0450 -0.0083 -0.2453
13964TIP3    H163383   2.929   0.147  11.811  0.1887 -0.5577  0.2177
13964TIP3    H263384   3.077   0.128  11.841  0.0693 -2.7786 -0.3753
13965TIP3   OH263385   1.568   1.581   3.355 -0.4587  0.1554  0.3994
13965TIP3    H163386   1.638   1.606   3.295 -0.9758 -1.4053 -0.9482
13965TIP3    H263387   1.605   1.594   3.442  1.1709  0.2776 -0.2719
13966TIP3   OH263388   2.637   0.969  16.567  0.0705  0.0142  0.1619
13966TIP3    H163389   2.729   0.984  16.547 -0.0136 -0.7940 -0.9093
13966TIP3    H263390   2.593   1.047  16.535  0.2677 -0.0324 -0.2212
13967TIP3   OH263391   4.020   2.192  11.397  0.4069 -0.1873  0.6121
13967TIP3    H163392   4.046   2.274  11.355 -1.2622 -0.3993 -0.9399
13967TIP3    H263393   4.020   2.212  11.490  2.2808  0.8863  0.4342
13968TIP3   OH263394   0.640   5.583   5.177  0.3182  0.3503 -0.4818
13968TIP3    H163395   0.723   5.625   5.199  0.3514 -0.1894  0.4696
13968TIP3    H263396   0.601   5.640   5.111 -0.8395  3.2852  2.5108
13969TIP3   OH263397   2.852   6.277   3.016  0.6016  0.1239 -0.2451
13969TIP3    H163398   2.919   6.236   2.961  1.8844  0.8063  0.7226
13969TIP3    H263399   2.903   6.332   3.077 -0.7661 -0.3567  1.3888
13970TIP3   OH263400   2.354   4.759   4.577  0.5662 -0.6164  0.1306
13970TIP3    H163401   2.271   4.775   4.620  1.4301  0.1317  1.5933
13970TIP3    H263402   2.396   4.845   4.574  1.1224 -0.9022 -0.9781
13971TIP3   OH263403   3.122   5.366  11.638  0.3060 -0.7975  0.1516
13971TIP3    H163404   3.119   5.276  11.606 -0.7557 -0.2170 -1.5473
13971TIP3    H263405   3.153   5.417  11.563  2.9852  0.0414  1.7276
13972TIP3   OH263406   2.335   0.320  15.484  0.3533 -0.4599 -0.5035
13972TIP3    H163407   2.308   0.410  15.501  0.8544 -0.3508 -0.2728
13972TIP3    H263408   2.404   0.327  15.417  0.4294 -0.6649 -0.4487
13973TIP3   OH263409   6.369   2.913   0.336  0.3826  0.2970  0.3835
13973TIP3    H163410   6.275   2.930   0.331  0.0092 -1.8269 -1.5684
13973TIP3    H263411   6.410   2.999   0.325 -1.2827  1.2916  1.4753
13974TIP3   OH263412   6.472   2.132   2.704  0.5020 -0.3433  0.7171
13974TIP3    H163413   6.522   2.161   2.628  0.9710 -0.6327  0.9103
13974TIP3    H263414   6.394   2.090   2.668 -0.2375  1.2258  0.4305
13975TIP3   OH263415   0.422   1.426  14.795 -0.5706 -0.3290 -0.4806
13975TIP3    H163416   0.448   1.381  14.715 -1.4051 -0.4622 -0.6820
13975TIP3    H263417   0.466   1.511  14.790 -2.8516  0.8541 -2.4990
13976TIP3   OH263418   6.070   2.756   3.218 -0.0292 -0.1652 -0.1568
13976TIP3    H163419   5.987   2.766   3.264  0.6957  0.6823  1.0517
13976TIP3    H263420   6.078   2.835   3.165  0.1684 -0.0642  0.0207
13977TIP3   OH263421   6.487   3.056   1.312  0.1937 -0.5597 -0.1191
13977TIP3    H163422   6.556   3.122   1.326  1.7670 -2.3961  1.3735
13977TIP3    H263423   6.450   3.078   1.227  0.8385  2.0539  0.1807
13978TIP3   OH263424   1.905   0.467   0.136 -0.0815 -0.2011 -0.1140
13978TIP3    H163425   1.934   0.552   0.101  1.4410 -0.3167  0.7946
13978TIP3    H263426   1.971   0.445   0.202 -0.2777 -2.2553 -0.5657
13979TIP3   OH263427   2.946   5.363  11.870  0.1435 -0.2473  0.1447
13979TIP3    H163428   3.024   5.388  11.820  0.7342  0.5138  1.3883
13979TIP3    H263429   2.973   5.286  11.919  1.0585  1.4723  2.5734
13980TIP3   OH263430   1.669   3.389  13.869 -0.2418 -0.3219  0.4640
13980TIP3    H163431   1.756   3.403  13.832 -0.7546 -0.0223 -0.6669
13980TIP3    H263432   1.629   3.322  13.814 -1.6900  1.4115 -0.7701
13981TIP3   OH263433   0.458   6.294  14.409 -0.0890  0.0874 -0.3958
13981TIP3    H163434   0.542   6.282  14.364 -0.3810 -3.3081 -0.3074
13981TIP3    H263435   0.440   6.388  14.401  2.7566  0.6272 -2.0888
13982TIP3   OH263436   6.069   1.913   1.678 -0.0973 -0.0886 -0.0829
13982TIP3    H163437   6.094   1.859   1.603 -0.0600 -0.3864  0.1416
13982TIP3    H263438   5.976   1.931   1.664 -0.2403 -0.6462  0.1018
13983TIP3   OH263439   4.819   4.249   1.543 -0.5951  0.2382 -0.5103
13983TIP3    H163440   4.828   4.229   1.450  0.9105  1.5447 -0.6868
13983TIP3    H263441   4.791   4.340   1.546  0.0429  0.4243  0.3148
13984TIP3   OH263442   3.912   3.352  12.054  0.4920 -0.4743 -0.0212
13984TIP3    H163443   3.986   3.292  12.062  1.0566  0.2127 -0.0123
13984TIP3    H263444   3.842   3.310  12.104  1.1967 -0.6330  0.8627
13985TIP3   OH263445   2.408   5.573   1.244 -0.1422 -0.2268 -0.1423
13985TIP3    H163446   2.435   5.663   1.261 -1.5381  0.3947 -0.9688
13985TIP3    H263447   2.357   5.548   1.321  0.6588 -0.4916  0.3044
13986TIP3   OH263448   5.279   6.363   5.927 -0.2734 -0.0875  0.8120
13986TIP3    H163449   5.308   6.344   5.838 -0.4755  0.9186  0.5230
13986TIP3    H263450   5.351   6.332   5.983  0.6035  0.7877  0.2036
13987TIP3   OH263451   2.557   3.055  12.563  0.0798 -0.4625  0.6954
13987TIP3    H163452   2.552   3.066  12.468 -1.2867  2.2415  0.9905
13987TIP3    H263453   2.588   2.965  12.575 -1.2298 -1.4410 -2.2778
13988TIP3   OH263454   4.132   5.542  10.774 -0.2666  0.0357 -0.1951
13988TIP3    H163455   4.120   5.450  10.797 -0.6551  0.1789  0.1924
13988TIP3    H263456   4.189   5.577  10.842 -1.8971  0.6036  0.9436
13989TIP3   OH263457   0.407   1.778   4.999  0.4001  0.1405  0.0760
13989TIP3    H163458   0.380   1.698   4.953  0.6982 -0.1897  0.4720
13989TIP3    H263459   0.358   1.777   5.081  0.4671  0.3215  0.1199
13990TIP3   OH263460   1.855   3.747   2.167  0.8480  0.5849 -0.2010
13990TIP3    H163461   1.941   3.713   2.191  0.8378  0.2110 -0.6876
13990TIP3    H263462   1.801   3.734   2.246  0.3069 -2.3647 -0.9494
13991TIP3   OH263463   1.086   2.531   6.116 -0.3125 -0.0594  0.2018
13991TIP3    H163464   1.181   2.547   6.112 -0.1986 -0.8143 -0.3356
13991TIP3    H263465   1.047   2.618   6.124  0.4700  0.2080  1.5224
13992TIP3   OH263466   0.644   3.833  15.222 -0.3008 -0.2010 -0.2569
13992TIP3    H163467   0.718   3.879  15.261 -0.2376  1.0944 -1.8281
13992TIP3    H263468   0.674   3.810  15.134 -1.7389  0.3055 -0.9039
13993TIP3   OH263469   1.238   5.121   0.974 -0.0072  0.2113  0.5838
13993TIP3    H163470   1.260   5.055   0.908 -0.9016  1.1115 -0.6592
13993TIP3    H263471   1.144   5.137   0.961  0.1835  1.6879  0.8911
13994TIP3   OH263472   4.846   5.573  12.744 -0.2416  0.0851 -0.5979
13994TIP3    H163473   4.888   5.628  12.810 -0.0833 -0.7166 -0.0310
13994TIP3    H263474   4.869   5.484  12.768 -2.3925 -0.3977 -0.1796
13995TIP3   OH263475   5.020   1.661  13.653 -0.0542  0.4706  0.0015
13995TIP3    H163476   4.949   1.597  13.652 -2.4176  2.8631 -0.0986
13995TIP3    H263477   5.063   1.648  13.738  0.3296 -1.9163 -0.4961
13996TIP3   OH263478   3.468   4.802  12.634 -0.2623  0.5288  0.4807
13996TIP3    H163479   3.528   4.802  12.709  0.2715  0.7491  0.0587
13996TIP3    H263480   3.522   4.832  12.560 -0.7031  0.0156 -0.0564
13997TIP3   OH263481   2.381   5.000  12.234 -0.1735 -0.3913 -0.1060
13997TIP3    H163482   2.465   5.039  12.261 -1.1964  0.5547  2.0038
13997TIP3    H263483   2.385   4.911  12.269  0.1784 -0.5641 -0.5673
13998TIP3   OH263484   0.191   6.623  12.641  0.1095  0.0099  0.1504
13998TIP3    H163485   0.216   6.561  12.572  0.9063 -0.5854  0.9564
13998TIP3    H263486   0.124   6.678  12.600  0.6174 -0.2755 -1.1286
13999TIP3   OH263487   3.320   5.635   1.383  0.7645  0.2510 -0.3373
13999TIP3    H163488   3.354   5.547   1.368  0.7612  0.1750  0.0809
13999TIP3    H263489   3.380   5.693   1.336 -0.1165 -0.0786 -1.9165
14000TIP3   OH263490   5.377   1.799  17.048  0.2275 -0.7705 -0.8759
14000TIP3    H163491   5.296   1.848  17.067  0.7595 -0.5695  1.1626
14000TIP3    H263492   5.347   1.712  17.023 -0.6713 -1.4768  2.2343
14001TIP3   OH263493   1.637   2.363  12.883  0.3954 -0.1128  0.2215
14001TIP3    H163494   1.662   2.452  12.859 -1.3411  0.5541  0.7238
14001TIP3    H263495   1.580   2.373  12.959 -0.3309 -1.5954 -0.0735
14002TIP3   OH263496   0.690   5.684  12.965 -0.0453 -0.2260  0.3832
14002TIP3    H163497   0.731   5.648  12.886 -0.1308 -1.0130  0.6898
14002TIP3    H263498   0.764   5.712  13.019  0.0309 -0.1793  0.2547
14003TIP3   OH263499   0.129   1.540  13.028 -0.2157 -0.5656 -0.3060
14003TIP3    H163500   0.192   1.555  12.957  1.5638 -0.4009  1.2278
14003TIP3    H263501   0.100   1.627  13.053 -3.1090 -0.7090 -2.6455
14004TIP3   OH263502   1.984   4.417  11.673 -0.6290  0.2338  0.1844
14004TIP3    H163503   1.992   4.429  11.578  1.3603 -1.2060  0.1192
14004TIP3    H263504   1.986   4.323  11.686  0.7163  0.4249  1.7341
14005TIP3   OH263505   5.906   5.925   4.274  0.1471  0.0672  0.4495
14005TIP3    H163506   5.821   5.969   4.271 -1.0196 -2.0675  0.7987
14005TIP3    H263507   5.922   5.910   4.367  0.3881 -0.5242  0.3150
14006TIP3   OH263508   6.161   6.050  14.813  0.1669  0.1811  0.0177
14006TIP3    H163509   6.087   6.062  14.753 -0.5838 -1.0463  0.6513
14006TIP3    H263510   6.207   6.134  14.812 -0.8023  0.7257 -0.9636
14007TIP3   OH263511   3.910   3.770  17.198  0.0488  0.2193 -0.1067
14007TIP3    H163512   3.854   3.775  17.276 -0.0361 -0.0129 -0.1517
14007TIP3    H263513   3.913   3.860  17.166  0.9918  0.5276  0.7899
14008TIP3   OH263514   0.291   2.929   3.747  0.0351  0.1511  1.1778
14008TIP3    H163515   0.320   2.946   3.836  0.5734 -2.0866  1.5026
14008TIP3    H263516   0.343   2.853   3.719 -1.8925 -0.7891 -0.0924
14009TIP3   OH263517   0.819   0.418   2.182  0.0931 -0.2960 -0.3679
14009TIP3    H163518   0.831   0.337   2.231  1.6419  1.4619  2.3757
14009TIP3    H263519   0.906   0.441   2.151 -0.4770 -0.0645 -1.9158
14010TIP3   OH263520   3.005   3.969   3.488  0.3272 -0.7952 -0.6617
14010TIP3    H163521   2.976   4.038   3.548 -0.3773 -1.2581 -0.4619
14010TIP3    H263522   3.012   3.891   3.543  2.2890 -0.6435 -0.6289
14011TIP3   OH263523   1.472   6.268   4.377  0.1933  0.3826  0.0083
14011TIP3    H163524   1.525   6.203   4.424 -0.9241 -0.3534  0.2797
14011TIP3    H263525   1.500   6.352   4.414  1.3638  0.0464 -0.0556
14012TIP3   OH263526   3.927   2.686   0.369 -0.2518  0.7110 -0.3561
14012TIP3    H163527   4.023   2.681   0.362 -0.2855  0.8215 -0.9949
14012TIP3    H263528   3.898   2.596   0.357 -0.2010  0.5742  0.4758
14013TIP3   OH263529   0.990   1.085   1.459 -0.1596  0.3078 -0.3630
14013TIP3    H163530   0.966   1.016   1.522 -1.0453 -0.0439 -1.0673
14013TIP3    H263531   0.938   1.161   1.486 -0.2585  0.2673 -0.4369
14014TIP3   OH263532   2.562   5.656   4.381 -0.2118  0.1022  0.0157
14014TIP3    H163533   2.568   5.580   4.324  0.0696 -0.8914  1.3103
14014TIP3    H263534   2.476   5.648   4.423 -0.1950  0.5239  0.1347
14015TIP3   OH263535   0.037   4.783   2.473  0.5226 -0.2800 -0.3611
14015TIP3    H163536   0.087   4.747   2.400  0.3854 -1.7821  0.2362
14015TIP3    H263537   0.089   4.762   2.551  0.1377  0.3121  0.0656
14016TIP3   OH263538   1.703   6.271  11.813 -0.0408  0.7233  0.4229
14016TIP3    H163539   1.629   6.255  11.754  0.5398 -2.7186  0.3919
14016TIP3    H263540   1.777   6.285  11.754 -0.1697  1.3900  0.4149
14017TIP3   OH263541   5.853   3.859  10.831  0.3860 -0.4609 -0.6044
14017TIP3    H163542   5.829   3.947  10.859  1.4097 -0.4867  0.4831
14017TIP3    H263543   5.949   3.858  10.835  0.5568 -0.8425 -3.1450
14018TIP3   OH263544   0.508   1.132  16.915 -0.0474 -0.1759 -0.8533
14018TIP3    H163545   0.509   1.049  16.868 -1.6135 -0.6042 -0.1795
14018TIP3    H263546   0.589   1.131  16.967 -0.0752 -1.3066 -0.8046
14019TIP3   OH263547   0.074   6.019   5.022 -0.0186  0.1816  0.2749
14019TIP3    H163548   0.160   5.997   4.988 -0.8021 -0.6821 -1.2852
14019TIP3    H263549   0.083   6.017   5.117  1.9218  1.1974  0.1436
14020TIP3   OH263550   2.123   0.083   3.989  0.4891  0.3893 -0.1550
14020TIP3    H163551   2.128   0.140   4.066 -0.3313  1.0930 -0.6087
14020TIP3    H263552   2.108   0.142   3.916  0.6721 -0.3259 -0.7822
14021TIP3   OH263553   1.730   6.658  14.721 -0.0951  0.3919  0.1550
14021TIP3    H163554   1.702   6.641  14.810 -0.4256  1.5746  0.2919
14021TIP3    H263555   1.815   6.701  14.730  0.5832 -0.8276 -0.1677
14022TIP3   OH263556   0.781   2.291  15.444  0.3577 -1.0510  0.4350
14022TIP3    H163557   0.843   2.243  15.389  0.6309 -1.8810  1.4238
14022TIP3    H263558   0.709   2.230  15.457  0.0511 -0.6643  0.5510
14023TIP3   OH263559   0.174   0.481  13.161  0.2802 -0.3383  0.3813
14023TIP3    H163560   0.245   0.507  13.103 -0.1292 -0.7606 -0.3311
14023TIP3    H263561   0.161   0.557  13.218  1.4328 -0.3415  0.6719
14024TIP3   OH263562   1.971   3.274  17.257  0.0220  0.4785  0.3752
14024TIP3    H163563   1.924   3.194  17.277  1.4967 -0.7528 -0.7939
14024TIP3    H263564   1.923   3.343  17.303 -1.9696 -0.8913  0.4590
14025TIP3   OH263565   3.437   6.385   5.309  0.6534  0.8334  0.6616
14025TIP3    H163566   3.507   6.447   5.326 -0.9970  3.4156 -1.1449
14025TIP3    H263567   3.381   6.389   5.386  0.3339  1.9730  0.3808
14026TIP3   OH263568   3.879   5.604  15.380  0.1410  0.0779  0.1097
14026TIP3    H163569   3.945   5.623  15.312 -0.7164  0.3183 -0.6719
14026TIP3    H263570   3.841   5.520  15.353 -1.5831  1.1124 -0.8401
14027TIP3   OH263571   2.218   3.351  14.644  0.8115 -0.4372  0.2193
14027TIP3    H163572   2.172   3.408  14.705  0.9731 -0.5698  0.4659
14027TIP3    H263573   2.300   3.397  14.627  0.2590  0.1919 -0.8424
14028TIP3   OH263574   4.205   1.619   0.554  0.0841 -0.0735  0.1395
14028TIP3    H163575   4.151   1.674   0.498  1.6882  1.0104 -0.3954
14028TIP3    H263576   4.217   1.670   0.634  1.6208  0.4222 -0.3765
14029TIP3   OH263577   6.013   0.395   6.055  0.0040 -0.5277 -0.1375
14029TIP3    H163578   6.071   0.471   6.049  1.6763 -1.8244 -1.2367
14029TIP3    H263579   6.055   0.339   6.121 -0.1179 -1.3689 -0.7666
14030TIP3   OH263580   5.909   6.397   2.816 -0.0133 -0.0455 -0.4685
14030TIP3    H163581   5.893   6.349   2.734 -0.4078 -0.8860  0.0900
14030TIP3    H263582   6.002   6.382   2.834 -0.3715 -1.5820  0.2866
14031TIP3   OH263583   0.087   2.726   3.612  0.4019  0.4098  0.0655
14031TIP3    H163584   0.126   2.660   3.555  1.5254  0.3362  0.8683
14031TIP3    H263585   0.051   2.676   3.685 -0.6419  0.5347 -0.3517
14032TIP3   OH263586   4.580   5.925   3.120 -0.2576 -0.4178 -0.0644
14032TIP3    H163587   4.548   5.846   3.075  0.8178 -0.2234 -1.2068
14032TIP3    H263588   4.660   5.949   3.073 -1.2970  2.1942 -0.6729
14033TIP3   OH263589   5.093   2.257  16.840  0.0802 -0.1185  0.2273
14033TIP3    H163590   5.038   2.286  16.913 -0.2227 -0.9446  0.3366
14033TIP3    H263591   5.145   2.186  16.876  0.2869 -0.2028 -0.2341
14034TIP3   OH263592   6.818   1.668  12.191  0.4300 -0.2344 -0.0360
14034TIP3    H163593   6.865   1.733  12.140  0.8287 -0.6030 -0.1469
14034TIP3    H263594   6.887   1.611  12.227  0.1339 -0.1867  0.6184
14035TIP3   OH263595   0.036   3.986  17.023 -0.1690  0.0370 -0.3041
14035TIP3    H163596  -0.040   4.043  17.022 -0.4982 -0.3699  0.3426
14035TIP3    H263597   0.074   3.998  17.110  0.1512 -0.2115 -0.4055
14036TIP3   OH263598   1.610   5.243  16.727  0.2106 -0.0358 -0.4693
14036TIP3    H163599   1.518   5.263  16.715  0.1253 -0.7955 -1.2001
14036TIP3    H263600   1.630   5.181  16.657  1.2647  0.0886 -0.2980
14037TIP3   OH263601   2.328   0.404   5.913  0.2833  0.2903  0.1118
14037TIP3    H163602   2.235   0.388   5.898  0.6086 -1.1848 -0.5319
14037TIP3    H263603   2.358   0.448   5.833  0.5412 -1.1588 -0.6355
14038TIP3   OH263604   3.851   6.731   4.709 -0.0759  0.0475 -0.1755
14038TIP3    H163605   3.780   6.723   4.646 -0.4290  0.2600  0.1899
14038TIP3    H263606   3.901   6.807   4.680 -0.0715 -0.0288 -0.3644
14039TIP3   OH263607   6.783   5.260  15.877 -0.2638 -0.1697  0.3115
14039TIP3    H163608   6.858   5.232  15.825 -0.2773  1.3512 -0.5672
14039TIP3    H263609   6.722   5.186  15.871  0.9901 -1.3042  0.7881
14040TIP3   OH263610   2.914   1.538   1.337 -0.0006 -0.0841  0.8369
14040TIP3    H163611   2.875   1.457   1.305  1.9304 -0.8723  0.3637
14040TIP3    H263612   2.864   1.607   1.292  1.3726 -1.1134 -2.6163
14041TIP3   OH263613   4.583   2.893   4.882  0.2180  0.3136 -0.0010
14041TIP3    H163614   4.534   2.882   4.801 -0.7795  2.5720  0.2080
14041TIP3    H263615   4.666   2.848   4.866 -0.5525 -0.6198 -1.6704
14042TIP3   OH263616   4.192   3.363  12.231  0.0870 -0.0661 -0.6240
14042TIP3    H163617   4.164   3.305  12.160 -2.9467 -1.3451  1.3880
14042TIP3    H263618   4.246   3.308  12.288  0.1723  0.1331 -0.5090
14043TIP3   OH263619   5.483   2.448  14.058  0.2083  0.5223 -0.0140
14043TIP3    H163620   5.476   2.362  14.100 -1.9382  0.7329  0.1462
14043TIP3    H263621   5.479   2.428  13.964 -0.1137  0.4378  0.0177
14044TIP3   OH263622   4.050   2.769   3.369  0.2005 -0.0121  0.3532
14044TIP3    H163623   4.011   2.852   3.340 -0.2084 -0.7535 -1.3055
14044TIP3    H263624   4.050   2.776   3.465 -0.9850  1.3819  0.3043
14045TIP3   OH263625   3.857   6.039  11.693  0.1748 -0.1218 -0.2403
14045TIP3    H163626   3.772   5.998  11.675 -0.1895  0.9089 -0.9474
14045TIP3    H263627   3.834   6.121  11.737  0.5929  1.6616 -3.1314
14046TIP3   OH263628   4.355   6.323  11.146 -0.6630 -0.2123 -0.1595
14046TIP3    H163629   4.329   6.315  11.238 -1.2409  0.3394 -0.2618
14046TIP3    H263630   4.274   6.306  11.098 -1.1452  2.5376 -0.4680
14047TIP3   OH263631   2.226   4.286  11.140  0.6314 -0.1750  0.1627
14047TIP3    H163632   2.210   4.371  11.100  1.9992 -0.0375 -0.1216
14047TIP3    H263633   2.317   4.289  11.168  0.8228 -1.6975 -0.2158
14048TIP3   OH263634   3.042   6.715  14.414 -0.4579 -0.0804  0.6620
14048TIP3    H163635   3.042   6.800  14.458 -0.6511 -0.6660  1.8506
14048TIP3    H263636   3.135   6.694  14.403 -0.3421 -0.6927  2.4142
14049TIP3   OH263637   4.277   4.366  12.385  0.8077  0.0317  0.6327
14049TIP3    H163638   4.211   4.359  12.453  1.7867 -2.6242  1.4450
14049TIP3    H263639   4.347   4.417  12.425  0.1256  1.1157  0.4821
14050TIP3   OH263640   5.682   4.744  16.790  0.8837  0.3369  0.0934
14050TIP3    H163641   5.723   4.830  16.775 -0.6739  1.0984  0.0219
14050TIP3    H263642   5.602   4.764  16.838  0.6089 -1.1178  0.2823
14051TIP3   OH263643   3.490   1.454   2.493 -0.1741 -0.6350  0.2713
14051TIP3    H163644   3.546   1.523   2.527 -0.3768 -0.0823 -0.4946
14051TIP3    H263645   3.483   1.391   2.565 -1.4818  0.9957  1.6790
14052TIP3   OH263646   5.544   0.914  13.382  0.7588  0.2578  0.1769
14052TIP3    H163647   5.610   0.854  13.418 -0.8816 -0.7644  1.6236
14052TIP3    H263648   5.587   1.000  13.385  1.9931 -0.3514  1.1672
14053TIP3   OH263649   3.759   0.913   1.473  0.0756 -0.0590  0.2387
14053TIP3    H163650   3.774   0.864   1.392  0.2563  1.4686 -0.7033
14053TIP3    H263651   3.827   0.980   1.473 -0.3454  0.3915  1.3126
14054TIP3   OH263652   2.979   0.294  13.144 -0.1495  0.8293 -0.3368
14054TIP3    H163653   2.982   0.335  13.231  0.4684  0.1285 -0.0115
14054TIP3    H263654   2.966   0.201  13.162 -0.9944  0.8034 -1.0382
14055TIP3   OH263655   0.307   3.312  14.488 -0.4629 -0.4253 -0.5385
14055TIP3    H163656   0.300   3.258  14.409  2.1888  0.0998 -1.2281
14055TIP3    H263657   0.399   3.338  14.491 -0.5561 -0.1326  2.5791
14056TIP3   OH263658   1.913   6.424   3.122  0.0050  0.1701 -0.6430
14056TIP3    H163659   1.836   6.376   3.154  0.6687 -1.2705 -1.1217
14056TIP3    H263660   1.911   6.507   3.170 -2.9127  1.0372 -2.0271
14057TIP3   OH263661   3.184   4.546   1.934 -0.4177 -0.5981  0.0461
14057TIP3    H163662   3.222   4.516   1.851 -0.7540 -0.6766 -0.0825
14057TIP3    H263663   3.112   4.485   1.951 -0.3208 -0.6109  0.4226
14058TIP3   OH263664   0.395   2.311   3.220 -0.6463 -0.2208  0.1956
14058TIP3    H163665   0.473   2.366   3.223 -1.0984  0.3908  1.3055
14058TIP3    H263666   0.325   2.369   3.192 -0.7348 -0.7465 -0.7104
14059TIP3   OH263667   0.994   3.292   2.759  0.3976  0.3295  0.0742
14059TIP3    H163668   0.958   3.265   2.843  1.7960 -0.2276  0.5229
14059TIP3    H263669   0.928   3.265   2.694 -0.8665  1.1098  0.9952
14060TIP3   OH263670   3.523   0.233  11.384 -0.1620  0.3935  0.2261
14060TIP3    H163671   3.555   0.159  11.434 -1.7262  0.3406  1.2093
14060TIP3    H263672   3.583   0.240  11.310  1.1379 -0.6418  1.1436
14061TIP3   OH263673   2.146   1.791  12.394  0.2466 -0.2206 -0.7503
14061TIP3    H163674   2.211   1.779  12.325  1.2593 -1.3702  0.3585
14061TIP3    H263675   2.119   1.703  12.419 -1.2918  0.2169 -0.7371
14062TIP3   OH263676   1.419   0.236  15.234  0.2463 -0.1709 -0.6416
14062TIP3    H163677   1.439   0.173  15.164  0.1307 -1.2437  0.2739
14062TIP3    H263678   1.465   0.202  15.310  1.1869  1.5353 -0.4166
14063TIP3   OH263679   1.044   5.747   4.977 -0.2461 -0.9850 -0.2385
14063TIP3    H163680   1.055   5.683   4.907 -1.1351 -1.5846  0.1580
14063TIP3    H263681   1.029   5.830   4.932 -1.4259 -1.4711 -0.7732
14064TIP3   OH263682   6.204   1.399   4.920 -0.3324 -0.3446  0.0835
14064TIP3    H163683   6.246   1.430   4.840  0.0882 -1.5759 -0.2113
14064TIP3    H263684   6.125   1.451   4.928 -1.8397 -1.9622 -2.6455
14065TIP3   OH263685   2.137   1.661  12.094  0.0949  0.2902 -0.2312
14065TIP3    H163686   2.068   1.601  12.122  3.5311 -4.0717 -0.0485
14065TIP3    H263687   2.146   1.645  12.000  0.4204  1.3527 -0.3946
14066TIP3   OH263688   0.436   6.653   1.496  0.3960 -0.0610  0.5006
14066TIP3    H163689   0.442   6.590   1.568 -1.3429 -0.6392  0.1913
14066TIP3    H263690   0.343   6.659   1.478  0.7631  0.3192 -1.4827
14067TIP3   OH263691   2.848   2.884   4.223 -0.9803 -0.0659 -0.2676
14067TIP3    H163692   2.791   2.847   4.290 -2.4324  0.3882 -1.2158
14067TIP3    H263693   2.813   2.851   4.140 -1.8268  2.6453 -1.1039
14068TIP3   OH263694   1.587   4.629  14.132  0.7982  0.0259  0.2792
14068TIP3    H163695   1.580   4.711  14.084  1.0477 -0.8653 -1.3698
14068TIP3    H263696   1.497   4.598  14.139  0.9164 -1.9910 -3.7395
14069TIP3   OH263697   0.988   3.171   1.584  0.1899  0.2349 -0.3789
14069TIP3    H163698   1.014   3.259   1.612  1.3600 -0.7254  1.7857
14069TIP3    H263699   0.906   3.154   1.629  0.8799 -0.4298  0.6639
14070TIP3   OH263700   0.773   2.409  16.650 -0.4418  0.0309 -0.0950
14070TIP3    H163701   0.711   2.481  16.661 -1.1778 -0.6236  0.0681
14070TIP3    H263702   0.783   2.372  16.738 -0.8180 -0.6782 -0.3419
14071TIP3   OH263703   2.532   3.499   1.021  0.0201  0.4189 -0.1892
14071TIP3    H163704   2.543   3.576   0.966 -1.4039  1.3702  0.7604
14071TIP3    H263705   2.487   3.532   1.099 -1.3519 -1.4910 -0.0859
14072TIP3   OH263706   3.707   3.727   1.496  0.2891 -0.0418  0.1702
14072TIP3    H163707   3.650   3.778   1.438 -1.1736 -1.1506  0.5459
14072TIP3    H263708   3.676   3.749   1.584  0.8527 -0.2210  0.4140
14073TIP3   OH263709   1.404   1.575  11.787 -0.0697  0.0974 -0.0669
14073TIP3    H163710   1.386   1.552  11.879 -1.1378 -0.4956 -0.4111
14073TIP3    H263711   1.453   1.499  11.753  0.0866  0.1967 -0.0644
14074TIP3   OH263712   0.405   5.574   0.386 -0.0790  0.1875 -0.1113
14074TIP3    H163713   0.474   5.639   0.402  0.2431 -0.4701  1.2743
14074TIP3    H263714   0.433   5.496   0.434 -1.2594 -0.4464 -0.4114
14075TIP3   OH263715   2.995   3.036  13.553 -0.2737  0.2196 -0.0882
14075TIP3    H163716   3.011   2.978  13.478 -1.3307 -0.2270  0.0121
14075TIP3    H263717   3.081   3.066  13.579  0.2300 -0.6987 -0.6372
14076TIP3   OH263718   2.305   3.824   4.878 -0.1118  0.7712  0.3398
14076TIP3    H163719   2.321   3.836   4.785 -0.5192  0.9406  0.2874
14076TIP3    H263720   2.382   3.778   4.911  0.7160  2.0283  0.2099
14077TIP3   OH263721   1.056   4.163   0.111 -0.2380  0.0146  0.0895
14077TIP3    H163722   0.992   4.124   0.051 -1.4869 -0.4555  1.6638
14077TIP3    H263723   1.044   4.115   0.193  1.1361  0.9189  0.8498
14078TIP3   OH263724   2.355   1.617   3.858 -0.2595  0.0533 -0.2980
14078TIP3    H163725   2.286   1.669   3.818 -1.8166  0.2111  2.3385
14078TIP3    H263726   2.348   1.635   3.952  1.8524 -1.7454  0.3065
14079TIP3   OH263727   6.460   4.729   1.270 -0.3773  0.0625  0.0690
14079TIP3    H163728   6.416   4.663   1.324 -1.8818 -0.6017 -1.8496
14079TIP3    H263729   6.457   4.693   1.181  2.0115  1.1137 -0.5133
14080TIP3   OH263730   4.348   2.777  10.886 -0.4853  0.1999  0.0817
14080TIP3    H163731   4.373   2.689  10.856 -0.2412  0.9514 -2.0749
14080TIP3    H263732   4.254   2.783  10.867 -0.0611  1.1721 -1.9964
14081TIP3   OH263733   2.898   6.002   0.056 -0.2821  0.5277  0.8281
14081TIP3    H163734   2.807   6.021   0.078 -0.5171  0.8042 -0.3183
14081TIP3    H263735   2.892   5.945  -0.021  0.5076  0.0746  1.0965
14082TIP3   OH263736   0.784   3.104  14.882 -0.0440  0.0111 -0.0370
14082TIP3    H163737   0.799   3.191  14.845  2.2680 -0.1152  0.4575
14082TIP3    H263738   0.791   3.044  14.808 -0.9717  0.1581 -0.2632
14083TIP3   OH263739   5.307   3.769  11.789  0.6692 -0.5635 -0.7418
14083TIP3    H163740   5.306   3.853  11.743  2.1383 -0.7997 -1.2411
14083TIP3    H263741   5.269   3.707  11.727 -1.1482 -0.1811 -0.0941
14084TIP3   OH263742   2.328   5.051  10.649  1.1397 -0.7340 -0.2565
14084TIP3    H163743   2.276   5.129  10.631  1.5310 -0.1812  0.9200
14084TIP3    H263744   2.349   5.016  10.563 -0.8281 -0.7589 -0.7854
14085TIP3   OH263745   5.624   0.663   4.778  0.0970  0.4397  0.1444
14085TIP3    H163746   5.617   0.656   4.873  1.9640  0.0847  0.2892
14085TIP3    H263747   5.585   0.748   4.757 -1.4719 -0.0200  1.0620
14086TIP3   OH263748   5.164   5.511   2.716 -0.1876  0.4793  0.1974
14086TIP3    H163749   5.096   5.579   2.716 -0.2483  0.4778 -1.7362
14086TIP3    H263750   5.116   5.429   2.727 -0.3759  0.5706  0.0666
14087TIP3   OH263751   4.490   5.563  11.475 -0.1882  0.7299  0.0770
14087TIP3    H163752   4.457   5.520  11.553 -1.0531  0.5784 -0.3582
14087TIP3    H263753   4.527   5.493  11.422  1.5970  0.9954  0.9055
14088TIP3   OH263754   6.364   6.248  14.636  0.0333  0.7823  0.1122
14088TIP3    H163755   6.402   6.264  14.549 -1.2484  0.2533 -0.5792
14088TIP3    H263756   6.336   6.334  14.666  2.1548  1.2641  0.8576
14089TIP3   OH263757   1.418   0.559   4.678  0.1301 -0.1918 -0.2495
14089TIP3    H163758   1.406   0.654   4.681 -1.8816 -0.2981 -2.1800
14089TIP3    H263759   1.456   0.537   4.763 -1.0499  2.1120  0.9676
14090TIP3   OH263760   6.087   3.445  17.041  0.2417  0.4550 -0.0507
14090TIP3    H163761   6.170   3.433  17.087 -0.5329 -3.2817  0.7400
14090TIP3    H263762   6.020   3.434  17.109 -0.8790 -1.4726 -1.3638
14091TIP3   OH263763   4.118   5.327  17.070  0.4089 -0.1220  0.1206
14091TIP3    H163764   4.059   5.322  17.145 -1.0476 -0.1989 -0.9920
14091TIP3    H263765   4.110   5.417  17.040  0.2022 -0.3616 -0.5456
14092TIP3   OH263766   6.390   0.916   1.939  0.5193  0.2574  0.5595
14092TIP3    H163767   6.439   0.985   1.893  0.7389 -1.3025 -1.7093
14092TIP3    H263768   6.312   0.903   1.886  1.3835 -2.4972 -0.2059
14093TIP3   OH263769   6.388   3.390   2.076  0.1969 -0.0256  0.0899
14093TIP3    H163770   6.479   3.394   2.107 -0.0100  0.3903  0.6594
14093TIP3    H263771   6.351   3.314   2.121  0.8186 -1.4455 -1.7017
14094TIP3   OH263772   0.341   1.461  11.316  0.2074  0.0231 -0.1693
14094TIP3    H163773   0.295   1.495  11.393 -0.8987  0.1256 -0.8488
14094TIP3    H263774   0.408   1.527  11.298  1.8159 -0.9676  1.8568
14095TIP3   OH263775   4.966   3.854  11.688  0.3276 -0.2369 -0.0512
14095TIP3    H163776   4.973   3.782  11.751 -1.2928 -0.1041  0.3084
14095TIP3    H263777   4.930   3.815  11.609  0.8918 -0.0991 -0.3852
14096TIP3   OH263778   3.073   1.274  11.564  0.1985  0.6149  0.2958
14096TIP3    H163779   3.071   1.332  11.488 -1.4542 -1.1859 -1.1447
14096TIP3    H263780   3.041   1.328  11.637 -1.1329  1.5843 -0.9538
14097TIP3   OH263781   3.998   2.927  11.111 -0.3399  0.0683 -0.6850
14097TIP3    H163782   3.934   2.860  11.089  0.6501 -0.8595 -0.7917
14097TIP3    H263783   4.021   2.910  11.202 -0.0957  0.2847 -0.7042
14098TIP3   OH263784   3.489   3.418   5.374 -0.6364 -0.0950 -0.2614
14098TIP3    H163785   3.468   3.466   5.454 -0.8867  0.2430 -0.5260
14098TIP3    H263786   3.408   3.371   5.353 -0.5800 -0.1598 -0.3355
14099TIP3   OH263787   5.284   0.604  13.130  0.4903  0.7740 -0.5693
14099TIP3    H163788   5.340   0.558  13.067  2.1197  0.9691  0.6519
14099TIP3    H263789   5.317   0.694  13.131  0.7134  0.7072  0.7417
14100TIP3   OH263790   3.405   4.515  15.134 -0.1263  0.3345  0.1218
14100TIP3    H163791   3.354   4.440  15.167 -0.1583  0.6121  0.7099
14100TIP3    H263792   3.340   4.584  15.121  0.0439  0.5714  0.5172
14101TIP3   OH263793   4.725   4.152  16.973  0.1322 -0.1854 -0.0407
14101TIP3    H163794   4.708   4.093  17.046 -1.6462 -1.2143 -1.2018
14101TIP3    H263795   4.737   4.095  16.898  0.7410  0.8880 -0.7909
14102TIP3   OH263796   4.341   6.022   4.421  0.4910 -0.0418 -0.4378
14102TIP3    H163797   4.429   6.024   4.383 -0.3766  2.1318 -2.5584
14102TIP3    H263798   4.341   6.092   4.486  1.1151 -1.9609  1.7826
14103TIP3   OH263799   5.495   3.639   2.161  0.0428 -0.2468 -0.3069
14103TIP3    H163800   5.469   3.550   2.137 -2.3525  0.6991 -1.5904
14103TIP3    H263801   5.454   3.654   2.247  2.3929 -1.0826  1.0605
14104TIP3   OH263802   1.257   4.579  10.989 -0.0454 -0.0459  0.2934
14104TIP3    H163803   1.216   4.494  10.972 -1.5238  0.7027 -0.0492
14104TIP3    H263804   1.197   4.643  10.951  0.6509  1.2031  1.2080
14105TIP3   OH263805   6.087   3.749  12.716 -0.1841  0.2544 -0.6532
14105TIP3    H163806   6.002   3.749  12.671 -1.3302  0.5069  1.3520
14105TIP3    H263807   6.101   3.658  12.741  0.6245  0.0518 -1.7800
14106TIP3   OH263808   0.569   4.084   0.936  0.0687  1.2761  0.4153
14106TIP3    H163809   0.644   4.117   0.985  2.6362 -2.9542 -0.1637
14106TIP3    H263810   0.598   4.083   0.844 -1.9171  2.3732 -0.2821
14107TIP3   OH263811   3.986   6.465  15.245  0.3201 -0.1964 -0.4762
14107TIP3    H163812   3.945   6.484  15.161  1.0706 -0.0430 -0.8143
14107TIP3    H263813   3.986   6.548  15.292  2.4637  0.4241 -1.4601
14108TIP3   OH263814   2.352   3.566  11.594  0.8161  0.0875  0.5262
14108TIP3    H163815   2.402   3.613  11.660 -0.0817 -0.9346  2.0059
14108TIP3    H263816   2.261   3.572  11.624  0.4902 -1.1375 -0.1312
14109TIP3   OH263817   3.549   1.934   4.865 -0.0271 -0.4415  0.7639
14109TIP3    H163818   3.533   2.028   4.862 -0.1213 -0.4693  0.3950
14109TIP3    H263819   3.616   1.923   4.933  1.0999  0.0552 -0.2439
14110TIP3   OH263820   5.171   2.174   2.060  0.0139 -0.0020  0.3029
14110TIP3    H163821   5.093   2.143   2.013 -0.0938 -1.5305  1.3991
14110TIP3    H263822   5.202   2.248   2.009 -2.7266  1.3025  0.3506
14111TIP3   OH263823   2.522   1.890  16.540  0.0203  0.7856  0.0814
14111TIP3    H163824   2.512   1.795  16.543 -0.9057  0.8231 -0.9566
14111TIP3    H263825   2.593   1.905  16.478 -1.0541  0.7816 -1.2151
14112TIP3   OH263826   1.179   5.700  14.996 -0.0115 -0.2304  0.2620
14112TIP3    H163827   1.117   5.770  15.016 -0.0741 -0.0246 -0.6170
14112TIP3    H263828   1.135   5.647  14.930  0.4546 -0.5182  0.1779
14113TIP3   OH263829   5.173   4.068  12.676  0.6189 -0.2263  0.0353
14113TIP3    H163830   5.081   4.040  12.680  0.9497 -1.3254  0.3661
14113TIP3    H263831   5.169   4.163  12.666 -0.5744 -0.4400 -2.0598
14114TIP3   OH263832   3.783   5.656  13.157  0.4017 -0.7335  0.5512
14114TIP3    H163833   3.732   5.596  13.211  0.2646 -0.8991  0.2388
14114TIP3    H263834   3.791   5.735  13.210 -2.0551  0.1356 -0.2312
14115TIP3   OH263835   4.363   3.637   5.552  0.8449 -0.3956  0.3242
14115TIP3    H163836   4.372   3.621   5.458 -0.0403  0.9285 -0.0200
14115TIP3    H263837   4.269   3.630   5.567  1.1254 -2.1707  1.4421
14116TIP3   OH263838   3.315   6.060   5.673  0.6980 -0.2297 -0.3414
14116TIP3    H163839   3.333   6.022   5.759  0.4703  1.6160  0.5680
14116TIP3    H263840   3.227   6.030   5.651  0.3694  0.0575  0.5338
14117TIP3   OH263841   6.343   5.670   0.117 -0.6428 -0.3695  0.3206
14117TIP3    H163842   6.365   5.583   0.150 -1.0106 -0.3961  0.5031
14117TIP3    H263843   6.269   5.655   0.058  0.1421 -0.3531 -0.7102
14118TIP3   OH263844   2.996   5.627   4.988  0.1536 -0.3615  0.2614
14118TIP3    H163845   2.920   5.676   5.020 -0.2609 -0.4168 -0.6039
14118TIP3    H263846   3.050   5.692   4.943  0.3628 -0.4177  0.4289
14119TIP3   OH263847   4.882   5.000   2.349 -0.9130  0.4254  0.1344
14119TIP3    H163848   4.865   4.921   2.297  0.4853 -0.3248  0.7631
14119TIP3    H263849   4.932   5.057   2.291 -2.2690  1.0539 -0.4578
14120TIP3   OH263850   3.974   0.137   4.608  0.0667  0.4220 -0.7000
14120TIP3    H163851   3.908   0.187   4.656  0.7128  0.0222  0.6579
14120TIP3    H263852   3.986   0.186   4.526 -0.4325  1.6419 -0.0758
14121TIP3   OH263853   4.542   1.234   5.199  0.8666  0.0131 -0.1726
14121TIP3    H163854   4.523   1.252   5.291  0.4035 -2.4535  0.2874
14121TIP3    H263855   4.611   1.168   5.201  1.3610  0.4438 -1.6348
14122TIP3   OH263856   4.956   4.028  11.394 -0.1325  0.2213 -0.9073
14122TIP3    H163857   4.933   4.120  11.412  0.0413  0.1382 -0.2470
14122TIP3    H263858   5.048   4.031  11.368  0.6237 -0.0113  1.4812
14123TIP3   OH263859   1.173   3.581  16.106 -0.0539  0.3279 -0.2330
14123TIP3    H163860   1.199   3.503  16.057  0.5388  0.4116 -0.0587
14123TIP3    H263861   1.255   3.617  16.140 -0.2979  1.1332 -0.4658
14124TIP3   OH263862   3.142   2.904  16.764  0.0756  0.7472  0.4384
14124TIP3    H163863   3.105   2.972  16.708 -0.6313 -1.0385 -1.4062
14124TIP3    H263864   3.233   2.896  16.735 -0.6302 -1.0869 -1.5469
14125TIP3   OH263865   4.987   4.454   5.775  0.0203 -0.1526 -0.0779
14125TIP3    H163866   4.995   4.416   5.687 -1.3860 -0.2050 -0.2000
14125TIP3    H263867   4.895   4.443   5.798 -0.7051  3.8387 -0.4352
14126TIP3   OH263868   5.057   3.067   5.386 -0.3214  0.7173  0.0226
14126TIP3    H163869   5.098   3.016   5.457 -0.4857  1.3976  0.6244
14126TIP3    H263870   5.018   3.001   5.329 -2.6854  0.1687  2.0723
14127TIP3   OH263871   4.299   1.829  13.715  0.3112 -0.3708 -0.3692
14127TIP3    H163872   4.217   1.780  13.709 -0.8928  1.4512  0.3224
14127TIP3    H263873   4.363   1.764  13.745 -0.8090 -1.8835 -1.1102
14128TIP3   OH263874   1.870   4.713  14.888 -0.2446  0.6386 -0.6567
14128TIP3    H163875   1.860   4.698  14.794 -1.8040 -2.7615 -0.0977
14128TIP3    H263876   1.855   4.807  14.899 -0.8035  1.0150 -3.6721
14129TIP3   OH263877   6.557   3.094   2.594 -0.2176 -0.0009 -0.4651
14129TIP3    H163878   6.538   3.187   2.609 -0.2450  0.0523 -0.8130
14129TIP3    H263879   6.517   3.049   2.668 -0.0946  0.2756 -0.2273
14130TIP3   OH263880   2.559   2.328   0.128  0.3196  0.0789  0.0565
14130TIP3    H163881   2.544   2.374   0.211  1.1732  1.4170 -0.4962
14130TIP3    H263882   2.553   2.397   0.061  1.8121 -0.5746 -0.7964
14131TIP3   OH263883   0.354   2.627  12.175 -0.1977  0.4830  0.5097
14131TIP3    H163884   0.417   2.572  12.128  0.5240  0.8509  1.0380
14131TIP3    H263885   0.406   2.673  12.240 -1.2454 -0.3749  2.0128
14132TIP3   OH263886   1.670   0.053  13.231  0.0302 -0.1728  0.0051
14132TIP3    H163887   1.667   0.075  13.138  0.9178 -2.9481 -0.7576
14132TIP3    H263888   1.609  -0.020  13.241 -0.6104  0.5409  1.7874
14133TIP3   OH263889   4.265   0.075   0.311  0.0800  0.1322  0.0887
14133TIP3    H163890   4.331   0.033   0.366  1.9883  2.6134 -0.1427
14133TIP3    H263891   4.199   0.107   0.373 -0.4722 -1.5321  0.4068
14134TIP3   OH263892   2.028   4.283   1.037 -0.1904 -0.7426  0.0002
14134TIP3    H163893   2.078   4.243   0.966  0.0869  0.0417 -0.2529
14134TIP3    H263894   2.038   4.221   1.110  2.6435  0.1831  0.5426
14135TIP3   OH263895   3.474   2.020   1.259 -0.5483  1.1214  0.0993
14135TIP3    H163896   3.397   2.066   1.224 -0.6762  1.5636  0.9323
14135TIP3    H263897   3.545   2.083   1.254 -0.5032  1.0955  0.3675
14136TIP3   OH263898   4.044   2.234  12.134 -0.3169 -0.6339 -0.1903
14136TIP3    H163899   4.098   2.309  12.161 -2.1027  0.8514 -0.5246
14136TIP3    H263900   3.975   2.230  12.200 -1.4494 -0.6129 -1.3532
14137TIP3   OH263901   3.456   2.048   6.113  0.1200  0.0242  0.3553
14137TIP3    H163902   3.374   2.089   6.140  0.0506 -0.0116  0.2040
14137TIP3    H263903   3.439   1.954   6.120 -0.4516 -0.0368 -1.3557
14138TIP3   OH263904   1.352   1.980   6.022 -0.0763  0.2070  0.3759
14138TIP3    H163905   1.347   2.054   6.082 -0.7084 -0.9048  1.7247
14138TIP3    H263906   1.408   1.916   6.066  1.7369  0.4296 -1.4369
14139TIP3   OH263907   2.729   5.873  16.054  0.7036 -0.0336 -0.3031
14139TIP3    H163908   2.822   5.866  16.031  0.4621  1.7593 -2.0947
14139TIP3    H263909   2.690   5.925  15.983 -1.8572 -1.4389 -0.0495
14140TIP3   OH263910   4.907   2.322  11.392 -0.2967  0.0819 -0.1632
14140TIP3    H163911   4.898   2.233  11.426 -0.3609 -0.3436 -1.2609
14140TIP3    H263912   4.953   2.312  11.308  0.5881  1.1842  0.1620
14141TIP3   OH263913   4.331   3.520   6.023  0.5243  0.5846  0.0789
14141TIP3    H163914   4.380   3.484   6.097  1.0417 -0.2479 -0.6551
14141TIP3    H263915   4.383   3.498   5.946 -1.3963 -1.1409 -0.8432
14142TIP3   OH263916   1.533   0.201   6.492  0.0060  0.4866  0.4757
14142TIP3    H163917   1.498   0.141   6.557 -0.4590 -0.9958 -1.0763
14142TIP3    H263918   1.466   0.269   6.484  0.8455  1.6850  2.7373
14143TIP3   OH263919   5.325   3.489   1.714  0.0120  0.1648  0.1115
14143TIP3    H163920   5.251   3.535   1.675  0.8288  0.6831 -0.8806
14143TIP3    H263921   5.313   3.398   1.689  0.1567  0.3841 -0.8044
14144TIP3   OH263922   2.820   3.035   2.268 -0.1923  0.1783 -0.1187
14144TIP3    H163923   2.759   3.063   2.200 -0.8516  0.8743  0.7322
14144TIP3    H263924   2.766   2.987   2.331  0.1543  0.6963  0.5847
14145TIP3   OH263925   1.518   2.814  13.760 -0.2948 -0.4033  0.5248
14145TIP3    H163926   1.548   2.775  13.678 -0.4634  2.4772 -1.0736
14145TIP3    H263927   1.591   2.870  13.788 -0.6039 -0.6194  1.8433
14146TIP3   OH263928   1.388   6.423  14.389 -0.4385 -0.1246  0.2377
14146TIP3    H163929   1.463   6.479  14.407 -1.1156  1.2587 -0.9934
14146TIP3    H263930   1.368   6.382  14.473 -0.0771  1.6884  1.2655
14147TIP3   OH263931   1.940   0.923   1.860  0.5930 -0.6072 -0.0265
14147TIP3    H163932   1.879   0.867   1.812  3.1373 -2.0419 -1.8145
14147TIP3    H263933   1.937   1.007   1.814  0.0525 -0.6678 -0.1187
14148TIP3   OH263934   6.183   5.386  15.860  0.4225  0.4505 -1.0100
14148TIP3    H163935   6.227   5.301  15.862  0.6415  0.5807 -0.1348
14148TIP3    H263936   6.254   5.449  15.844  0.5898  0.6693  0.4825
14149TIP3   OH263937   5.514   3.133  16.924  0.4128 -0.6704  0.0264
14149TIP3    H163938   5.604   3.105  16.908 -0.0326 -2.5306  0.5781
14149TIP3    H263939   5.494   3.191  16.850  2.4945  0.9520  0.6437
14150TIP3   OH263940   3.252   3.091   3.594  0.3518  0.3791  0.0960
14150TIP3    H163941   3.227   3.095   3.502 -1.6183 -0.6539  0.5386
14150TIP3    H263942   3.240   3.180   3.626 -1.2612  0.2565 -0.1074
14151TIP3   OH263943   1.417   2.111  13.045  0.0964 -0.5488 -0.2446
14151TIP3    H163944   1.484   2.066  13.097 -0.1795  0.6999  1.2717
14151TIP3    H263945   1.432   2.204  13.063 -0.3209 -0.0977 -2.0633
14152TIP3   OH263946   5.881   1.823  11.233 -0.1996  0.1331 -0.2827
14152TIP3    H163947   5.828   1.780  11.166 -0.9540 -1.1548  1.0772
14152TIP3    H263948   5.922   1.896  11.187 -0.8589 -0.5526 -2.0835
14153TIP3   OH263949   0.547   4.705   0.026 -0.1858 -0.2900  0.0669
14153TIP3    H163950   0.602   4.729  -0.048  1.2844 -2.1217  0.4968
14153TIP3    H263951   0.463   4.747   0.008  0.6502  0.7202 -1.7512
14154TIP3   OH263952   4.787   4.705   2.489 -0.6073  0.2722 -0.0116
14154TIP3    H163953   4.745   4.621   2.507 -2.3189  0.9348 -0.7236
14154TIP3    H263954   4.877   4.694   2.522 -0.8726 -1.7032  0.2052
14155TIP3   OH263955   3.193   5.015  15.095  0.3792  0.2591 -0.3970
14155TIP3    H163956   3.169   5.098  15.054 -1.5222 -0.5995 -1.1323
14155TIP3    H263957   3.240   4.966  15.027  0.9794  0.4920 -0.1544
14156TIP3   OH263958   5.929   0.981   4.796 -0.2021 -0.5456 -0.4474
14156TIP3    H163959   5.914   0.961   4.703 -0.6495  1.7689 -0.9442
14156TIP3    H263960   6.017   1.019   4.798 -0.7680  0.8394 -0.2384
14157TIP3   OH263961   2.100   5.957  17.032  0.1701 -0.4887  0.2384
14157TIP3    H163962   2.067   5.881  16.984  0.4141 -0.8543  0.6466
14157TIP3    H263963   2.053   6.031  16.994  1.2670 -0.6063 -1.4717
14158TIP3   OH263964   2.881   5.039   2.059  0.1142  0.3657  0.0593
14158TIP3    H163965   2.857   4.995   1.977 -1.5485 -1.3307  1.3588
14158TIP3    H263966   2.830   5.120   2.058  0.0383  0.3180 -0.5418
14159TIP3   OH263967   4.883   1.836  14.867  0.2204  0.1590 -0.8746
14159TIP3    H163968   4.924   1.891  14.933 -0.8887  0.5016 -0.4464
14159TIP3    H263969   4.802   1.882  14.844 -0.3056 -0.8619 -1.1377
14160TIP3   OH263970   3.106   5.430   5.840 -0.4491  0.1432 -0.4724
14160TIP3    H163971   3.051   5.366   5.885  0.0442  0.3126  0.4099
14160TIP3    H263972   3.079   5.426   5.749 -1.2273 -0.4861 -0.2239
14161TIP3   OH263973   5.942   2.055  17.288  0.4715 -0.0439 -0.6177
14161TIP3    H163974   5.896   1.971  17.287 -1.7355  1.0957 -0.8717
14161TIP3    H263975   5.971   2.068  17.197 -0.8403  0.2776 -1.0180
14162TIP3   OH263976   0.250   1.587  12.235  0.1563  0.3966 -0.2807
14162TIP3    H163977   0.329   1.540  12.263 -0.5422 -0.3935  0.3856
14162TIP3    H263978   0.270   1.615  12.145 -0.0122 -2.5834 -1.3396
14163TIP3   OH263979   5.302   3.758   1.831 -0.6115 -0.7846  0.0526
14163TIP3    H163980   5.311   3.664   1.843 -0.7177 -0.5753  2.3782
14163TIP3    H263981   5.384   3.795   1.865  0.1308 -0.0726 -2.3405
14164TIP3   OH263982   2.378   3.936   2.387 -0.5070  0.0123 -0.0496
14164TIP3    H163983   2.473   3.947   2.384  0.0648 -3.5979 -0.5112
14164TIP3    H263984   2.352   3.932   2.294 -0.9884  0.3426  0.0711
14165TIP3   OH263985   4.934   5.613  13.912 -0.8060  0.2993  0.4067
14165TIP3    H163986   4.882   5.534  13.899  1.6010 -1.1172 -1.3534
14165TIP3    H263987   4.922   5.662  13.830  0.3307  0.1035  0.1094
14166TIP3   OH263988   3.960   4.326   2.748  0.6512  0.5695 -0.5864
14166TIP3    H163989   3.972   4.420   2.734 -0.0726  0.9830  1.2763
14166TIP3    H263990   3.873   4.318   2.787  0.5148 -0.9278 -1.1229
14167TIP3   OH263991   1.217   0.676  11.689 -0.5952  0.1260  0.9201
14167TIP3    H163992   1.197   0.603  11.747 -3.1895  0.5440  0.6663
14167TIP3    H263993   1.159   0.747  11.718  1.8340  2.1680  1.1898
14168TIP3   OH263994   0.872   1.661  12.216  0.4809 -0.0323 -0.3589
14168TIP3    H163995   0.942   1.628  12.159 -0.1797 -0.9382 -0.6806
14168TIP3    H263996   0.851   1.586  12.272 -0.3179  0.1849 -0.3637
14169TIP3   OH263997   1.261   3.176  12.077 -0.8580 -0.0619 -0.1802
14169TIP3    H163998   1.281   3.157  12.168 -0.5287  0.2996 -0.1742
14169TIP3    H263999   1.183   3.231  12.081 -1.1843 -0.5276 -0.1464
14170TIP3   OH264000   5.252   6.571  14.379  0.5130 -0.1395  0.3840
14170TIP3    H164001   5.306   6.498  14.349 -0.3682 -0.2889 -0.9177
14170TIP3    H264002   5.178   6.573  14.317  0.0640  1.2882  0.9376
14171TIP3   OH264003   2.561   5.763   5.585 -1.0661 -0.1058  0.0985
14171TIP3    H164004   2.633   5.768   5.523  0.0947  1.5709  1.4808
14171TIP3    H264005   2.554   5.670   5.606  0.6832 -0.3284 -0.1167
14172TIP3   OH264006   2.591   0.853  17.062 -0.3237 -0.0213 -0.5646
14172TIP3    H164007   2.546   0.903  17.130 -0.5132  0.3581 -0.9629
14172TIP3    H264008   2.536   0.862  16.985  0.6686  0.8765 -1.2035
14173TIP3   OH264009   2.863   4.291  15.394 -0.0628  0.5875  0.0992
14173TIP3    H164010   2.779   4.332  15.417 -1.2097 -0.1643 -2.3066
14173TIP3    H264011   2.907   4.357  15.340  0.1748  0.3947  0.0591
14174TIP3   OH264012   3.163   2.418   2.076 -0.7451  0.3935  0.0011
14174TIP3    H164013   3.184   2.512   2.079 -0.4107  0.2944  1.7669
14174TIP3    H264014   3.069   2.414   2.094 -1.3198  0.5017 -2.6101
14175TIP3   OH264015   1.330   5.851   2.578 -0.1806 -0.4733  0.0225
14175TIP3    H164016   1.310   5.929   2.527 -2.1108  0.7639  2.4457
14175TIP3    H264017   1.290   5.779   2.529 -0.1557  0.3312 -1.2284
14176TIP3   OH264018   2.575   4.634   1.003 -0.0593 -0.2480  0.1516
14176TIP3    H164019   2.657   4.683   1.005 -0.4921  0.5160 -0.0389
14176TIP3    H264020   2.585   4.574   0.929  0.5932 -0.6551  0.5632
14177TIP3   OH264021   6.021   2.422   0.799 -0.3221 -0.2249 -0.1195
14177TIP3    H164022   6.047   2.513   0.818 -0.2760 -0.1611 -0.4789
14177TIP3    H264023   6.095   2.386   0.750 -0.4258 -0.3957 -0.1488
14178TIP3   OH264024   1.292   1.034  14.290 -0.2037  0.2168  0.1508
14178TIP3    H164025   1.202   1.063  14.303  0.4332  1.5135  2.1050
14178TIP3    H264026   1.342   1.077  14.360  2.1369  0.4531 -1.5314
14179TIP3   OH264027   5.713   2.801  10.671  0.3726 -0.0766  0.6548
14179TIP3    H164028   5.708   2.724  10.728  0.7633 -0.6179 -0.0251
14179TIP3    H264029   5.626   2.808  10.632 -0.1395  0.7561  1.8761
14180TIP3   OH264030   1.261   5.793   1.121 -0.5022  0.0069  0.1017
14180TIP3    H164031   1.323   5.836   1.179 -2.7698  0.3033  2.5194
14180TIP3    H264032   1.266   5.843   1.039  2.7068 -0.3289 -0.0388
14181TIP3   OH264033   3.213   4.175  10.686 -0.1065  0.0597  0.1888
14181TIP3    H164034   3.200   4.263  10.720 -1.4336 -0.5375  1.3388
14181TIP3    H264035   3.139   4.125  10.720 -0.6578 -0.9941 -2.2868
14182TIP3   OH264036   2.832   5.590  10.971  0.7059 -0.4808 -0.5181
14182TIP3    H164037   2.896   5.525  10.998  0.8077 -0.4642 -0.7243
14182TIP3    H264038   2.832   5.587  10.876  0.5020 -0.3824 -0.5228
14183TIP3   OH264039   1.241   3.476   3.267  0.6150 -0.3585  0.7272
14183TIP3    H164040   1.319   3.525   3.295  0.8968 -0.2303 -0.2217
14183TIP3    H264041   1.256   3.387   3.298  2.2024 -0.8690 -1.2525
14184TIP3   OH264042   5.273   5.294   0.408  0.2956 -0.4598 -0.4725
14184TIP3    H164043   5.190   5.258   0.377 -0.1682  1.6433 -1.8560
14184TIP3    H264044   5.247   5.365   0.468  1.0601  0.4945 -1.2498
14185TIP3   OH264045   5.425   3.019  11.283  0.1709 -0.5705  0.1137
14185TIP3    H164046   5.420   3.113  11.267  1.8299 -0.1936  1.5190
14185TIP3    H264047   5.498   2.989  11.229  0.4363 -0.8189  0.6022
14186TIP3   OH264048   4.746   2.313   3.510  0.2075  0.5028 -0.5666
14186TIP3    H164049   4.726   2.406   3.512  1.7885  0.8635 -0.8718
14186TIP3    H264050   4.660   2.271   3.498 -0.6536  1.8313  0.6339
14187TIP3   OH264051   4.117   0.034  11.060  0.1677  0.1199 -0.3036
14187TIP3    H164052   4.163   0.103  11.011  0.8087 -1.2878 -1.7560
14187TIP3    H264053   4.044   0.080  11.103 -1.4540  1.2398 -3.8649
14188TIP3   OH264054   6.295   2.045  17.120 -0.0539 -0.1890 -0.3626
14188TIP3    H164055   6.201   2.034  17.106 -0.5219 -3.3646  3.5109
14188TIP3    H264056   6.336   1.979  17.064 -0.2165  0.1931 -0.9408
14189TIP3   OH264057   4.604   4.471  16.176 -0.3189  0.1358  0.4481
14189TIP3    H164058   4.688   4.486  16.133 -0.1978 -0.5156  0.4518
14189TIP3    H264059   4.606   4.379  16.201 -1.2543 -0.0241 -0.0312
14190TIP3   OH264060   1.965   0.070   6.029  0.0914 -0.2078  0.3162
14190TIP3    H164061   1.887   0.018   6.014  0.3101 -0.5804  0.4543
14190TIP3    H264062   1.942   0.128   6.102 -0.4847  0.5977 -0.4750
14191TIP3   OH264063   5.881   1.512   1.987 -0.5253 -0.3113 -0.6357
14191TIP3    H164064   5.973   1.538   1.987 -0.0885 -1.7450 -0.1733
14191TIP3    H264065   5.837   1.577   2.042  0.3245  0.0112 -0.3270
14192TIP3   OH264066   3.258   0.941   1.979  0.0069 -0.4674 -0.7112
14192TIP3    H164067   3.238   1.022   2.025 -0.6337 -1.5867  1.0480
14192TIP3    H264068   3.304   0.888   2.043 -0.4886 -1.9070 -1.5121
14193TIP3   OH264069   2.196   4.462   3.235 -0.6546  0.2294 -0.2748
14193TIP3    H164070   2.190   4.504   3.321  1.0174 -0.6882  0.3535
14193TIP3    H264071   2.212   4.370   3.255  2.9630  0.4210 -1.4069
14194TIP3   OH264072   2.283   3.710   0.264 -0.2944 -0.5432 -0.2911
14194TIP3    H164073   2.221   3.778   0.237 -0.9186 -0.6674  0.7530
14194TIP3    H264074   2.341   3.698   0.188 -0.8359  0.3885 -0.8712
14195TIP3   OH264075   6.525   1.282  12.078 -0.0278  0.5098 -0.0438
14195TIP3    H164076   6.577   1.285  12.159 -1.8523  0.2622  1.1801
14195TIP3    H264077   6.435   1.291  12.107 -0.6523  1.8109 -2.1930
14196TIP3   OH264078   2.626   0.926   4.112 -0.5722  0.3699  0.3360
14196TIP3    H164079   2.532   0.915   4.127 -0.3357 -0.1417  1.6204
14196TIP3    H264080   2.655   0.986   4.181 -0.0826  1.1530 -0.5321
14197TIP3   OH264081   0.053   2.636  11.177 -0.1432  0.6125 -0.4987
14197TIP3    H164082  -0.024   2.691  11.161 -0.6463  0.5279  1.4538
14197TIP3    H264083   0.115   2.694  11.223 -0.1237 -0.0525  0.3253
14198TIP3   OH264084   3.343   6.795   1.588  0.2471 -0.0823  0.0534
14198TIP3    H164085   3.249   6.775   1.582  0.4975 -1.2805 -0.2558
14198TIP3    H264086   3.358   6.812   1.680  0.0688 -1.9090  0.4677
14199TIP3   OH264087   2.202   0.338  13.160 -0.2907  0.2043  0.0108
14199TIP3    H164088   2.236   0.420  13.125  1.0354 -0.5037 -0.4236
14199TIP3    H264089   2.257   0.270  13.120 -0.9962 -0.8650  0.7933
14200TIP3   OH264090   2.303   3.113   0.189  0.0252  0.5394 -0.4921
14200TIP3    H164091   2.212   3.101   0.165  0.0962 -1.4568  0.0554
14200TIP3    H264092   2.339   3.171   0.122 -1.6107  1.3280 -0.7256
14201TIP3   OH264093   5.690   3.475  12.676  0.9774 -0.6604 -0.1844
14201TIP3    H164094   5.731   3.532  12.611  1.0723  0.1396  0.5497
14201TIP3    H264095   5.707   3.519  12.760 -0.3512 -0.9325  0.2472
14202TIP3   OH264096   6.714   3.716  14.135 -0.2040  0.3239  0.7607
14202TIP3    H164097   6.637   3.762  14.169  0.0128  2.9628 -1.9211
14202TIP3    H264098   6.722   3.746  14.045  2.0034 -2.5747 -0.1644
14203TIP3   OH264099   4.053   2.079   2.598 -0.5503 -0.0186  0.0556
14203TIP3    H164100   4.059   1.984   2.595 -0.2075 -0.0155  0.6018
14203TIP3    H264101   3.968   2.096   2.639 -1.1780 -0.0709 -1.1461
14204TIP3   OH264102   0.144   5.958   1.644  0.1145  0.4404  0.3389
14204TIP3    H164103   0.144   5.990   1.735  0.4708 -0.3575  0.6274
14204TIP3    H264104   0.065   5.995   1.606 -1.2897 -1.0700  1.6414
14205TIP3   OH264105   5.165   4.043   2.582  0.1646  0.0773  0.1950
14205TIP3    H164106   5.198   3.987   2.652  0.3637  2.1056  1.8213
14205TIP3    H264107   5.232   4.037   2.514  0.1050 -1.7145  0.2438
14206TIP3   OH264108   5.301   4.221   2.738  0.3801  0.1156  0.7284
14206TIP3    H164109   5.253   4.154   2.690  4.3697 -2.1446 -0.4889
14206TIP3    H264110   5.311   4.293   2.676 -0.4160  0.1784  0.6556
14207TIP3   OH264111   4.546   0.986   6.399  0.4691 -0.4854  0.2177
14207TIP3    H164112   4.486   1.056   6.374  1.4794  0.1296 -0.5531
14207TIP3    H264113   4.613   1.029   6.453  0.2595 -1.1535  1.0412
14208TIP3   OH264114   5.397   4.382  13.363  0.0800 -0.1025 -0.3322
14208TIP3    H164115   5.338   4.442  13.409 -0.7311 -0.6273 -0.6621
14208TIP3    H264116   5.339   4.316  13.325  0.8938 -0.6814 -0.5954
14209TIP3   OH264117   5.478   4.807  16.035  0.4723  0.7594 -0.0001
14209TIP3    H164118   5.558   4.755  16.021  0.1146  0.2339 -0.1111
14209TIP3    H264119   5.461   4.849  15.950  0.3608  0.4863 -0.1143
14210TIP3   OH264120   5.351   0.064  12.314 -0.1648 -0.3175 -0.2275
14210TIP3    H164121   5.370   0.152  12.284 -0.2619 -0.4602 -0.7233
14210TIP3    H264122   5.352   0.011  12.235 -0.7987 -0.6405 -0.0292
14211TIP3   OH264123   1.808   5.835   3.112 -0.4407 -0.6079  0.1477
14211TIP3    H164124   1.793   5.804   3.022  0.6237 -2.3590  0.5249
14211TIP3    H264125   1.723   5.822   3.156 -0.7808 -0.3554 -0.4175
14212TIP3   OH264126   5.517   5.332  15.547 -0.1228 -0.2197 -0.1527
14212TIP3    H164127   5.526   5.364  15.637  0.1437 -0.9725  0.0959
14212TIP3    H264128   5.583   5.263  15.539 -0.1877 -0.2070 -0.9094
14213TIP3   OH264129   3.174   4.193  16.276  0.0473  0.7318  0.2875
14213TIP3    H164130   3.171   4.237  16.361  1.1267  1.3174  0.0396
14213TIP3    H264131   3.264   4.163  16.268 -0.4391 -0.7593  0.0450
14214TIP3   OH264132   0.034   4.507  10.707  0.2727  0.3702 -0.0756
14214TIP3    H164133   0.114   4.476  10.748 -0.1704  0.0626  0.5721
14214TIP3    H264134   0.007   4.582  10.759 -1.0252 -0.8365  1.0878
14215TIP3   OH264135   4.032   0.686  14.263 -0.4041 -0.4394  0.2301
14215TIP3    H164136   3.965   0.676  14.195 -0.5506 -0.1728  0.3328
14215TIP3    H264137   3.984   0.677  14.345 -0.3523 -0.0270  0.3075
14216TIP3   OH264138   6.678   3.538  11.791  0.2762 -0.3157  0.1419
14216TIP3    H164139   6.756   3.581  11.756  0.9053 -1.5659 -0.0682
14216TIP3    H264140   6.662   3.465  11.732  0.5417 -1.6570  1.6515
14217TIP3   OH264141   1.677   4.900   0.511  0.2277 -0.0699  0.6173
14217TIP3    H164142   1.634   4.829   0.558  1.6155 -1.9869 -0.8191
14217TIP3    H264143   1.748   4.927   0.569  0.7532 -1.1012  0.4918
14218TIP3   OH264144   4.647   0.415   1.970  0.7424  0.1187 -0.1479
14218TIP3    H164145   4.677   0.482   1.909  2.9133  2.0047  2.6779
14218TIP3    H264146   4.553   0.429   1.978  1.2359  3.7051  1.0932
14219TIP3   OH264147   1.039   5.090  14.787  0.1664 -0.3310  0.7812
14219TIP3    H164148   0.982   5.166  14.784 -1.6341 -1.5969 -2.1223
14219TIP3    H264149   1.118   5.117  14.739 -0.0588  0.0172  0.6050
14220TIP3   OH264150   6.510   1.050   5.009 -0.6935 -0.4401 -0.7093
14220TIP3    H164151   6.415   1.043   5.002 -0.6453 -0.8834 -0.9605
14220TIP3    H264152   6.533   0.998   5.085 -0.5101 -1.6321 -1.5438
14221TIP3   OH264153   6.704   2.907   2.739 -0.3408 -0.4700 -0.1261
14221TIP3    H164154   6.678   2.975   2.676 -0.9713 -1.3803 -0.8852
14221TIP3    H264155   6.744   2.839   2.685  2.3313  0.1910  0.8383
14222TIP3   OH264156   3.618   4.893   4.272 -0.3189  0.5000 -0.2193
14222TIP3    H164157   3.698   4.940   4.294  0.8887 -1.5723  0.1022
14222TIP3    H264158   3.645   4.828   4.207 -1.2024 -1.7410  1.5182
14223TIP3   OH264159   2.382   6.707  11.609 -0.0264 -0.3281  0.2380
14223TIP3    H164160   2.452   6.654  11.571  0.4101 -0.5953  1.3585
14223TIP3    H264161   2.302   6.671  11.573  0.3078 -1.2781  0.4100
14224TIP3   OH264162   6.174   5.481   3.455  0.5458  0.2852 -0.6056
14224TIP3    H164163   6.178   5.466   3.550 -0.9178  3.6125  0.1115
14224TIP3    H264164   6.264   5.500   3.430  0.4790  3.5075  1.0630
14225TIP3   OH264165   4.112   5.865   0.161  0.4256 -0.1153 -0.2160
14225TIP3    H164166   4.083   5.946   0.203 -1.3045 -1.4680  1.3832
14225TIP3    H264167   4.207   5.872   0.156  0.3413  1.8228  0.2319
14226TIP3   OH264168   5.025   0.885  11.275 -0.0924 -0.0013 -0.4220
14226TIP3    H164169   5.008   0.952  11.341  2.9823 -0.2512  0.7950
14226TIP3    H264170   5.022   0.802  11.324 -1.4038 -0.5456 -1.3893
14227TIP3   OH264171   1.653   1.360  15.642  0.1636  0.1374 -0.3121
14227TIP3    H164172   1.681   1.444  15.678  2.1522 -0.1662 -1.0024
14227TIP3    H264173   1.572   1.379  15.595  0.3178  1.5589 -0.0573
14228TIP3   OH264174   4.776   0.636  11.512 -0.2758  0.1404  0.0604
14228TIP3    H164175   4.715   0.563  11.501 -0.5637  0.5808 -1.4460
14228TIP3    H264176   4.862   0.600  11.489 -0.1351 -0.1584  1.0034
14229TIP3   OH264177   0.168   6.385   0.350  0.1866  0.1512  0.3641
14229TIP3    H164178   0.078   6.385   0.320 -0.1468  2.6780  1.1369
14229TIP3    H264179   0.208   6.461   0.307  2.5113 -1.8601 -1.3226
14230TIP3   OH264180   5.556   2.779   3.900  0.4281  0.1990  0.2165
14230TIP3    H164181   5.651   2.770   3.905  0.5526  0.1288 -1.5850
14230TIP3    H264182   5.541   2.850   3.838 -0.6799 -0.7209 -0.6301
14231TIP3   OH264183   4.069   0.469   0.650 -0.1276  0.0899 -0.1053
14231TIP3    H164184   4.051   0.498   0.560 -1.1394  0.6364  0.2501
14231TIP3    H264185   3.982   0.462   0.690  0.2233 -1.5478  0.4141
14232TIP3   OH264186   2.120   4.959   0.926 -0.1079 -0.0721 -0.4943
14232TIP3    H164187   2.210   4.941   0.953 -0.5529 -0.3080  0.9159
14232TIP3    H264188   2.127   5.030   0.862  0.9860  0.8666  0.6248
14233TIP3   OH264189   5.051   1.763   6.301 -0.6938  0.5059 -0.0913
14233TIP3    H164190   5.099   1.843   6.281 -1.1743  0.3645 -1.9768
14233TIP3    H264191   4.998   1.786   6.377  0.7123  1.3138  0.7017
14234TIP3   OH264192   5.216   2.326   3.565 -0.2702 -0.6826  0.0095
14234TIP3    H164193   5.141   2.323   3.507 -0.3056 -1.6241  0.0864
14234TIP3    H264194   5.179   2.342   3.652 -0.1233  2.0617 -0.3496
14235TIP3   OH264195   3.959   1.929  11.608 -0.2857  0.0354  0.4462
14235TIP3    H164196   3.947   1.949  11.515  0.1364 -0.6135  0.2479
14235TIP3    H264197   3.869   1.923  11.642 -0.4607 -0.4878 -0.0882
14236TIP3   OH264198   5.557   1.554   2.544 -0.3657 -0.7369 -0.8433
14236TIP3    H164199   5.518   1.573   2.459 -0.2371  0.8313 -0.5825
14236TIP3    H264200   5.636   1.505   2.525  0.1220  0.3533 -1.6907
14237TIP3   OH264201   3.552   3.433  12.778  0.1004  0.0536 -0.5319
14237TIP3    H164202   3.634   3.409  12.821 -0.1775  0.1230  0.0488
14237TIP3    H264203   3.561   3.399  12.689 -0.3501 -2.3901  0.2967
14238TIP3   OH264204   2.979   0.129  16.502 -0.2925 -0.1801  0.2642
14238TIP3    H164205   2.914   0.197  16.516  0.6032  0.7027  0.2370
14238TIP3    H264206   2.968   0.070  16.577 -0.2844  0.6479  0.9329
14239TIP3   OH264207   6.418   2.391  15.875  0.0025 -0.0778  0.2720
14239TIP3    H164208   6.360   2.460  15.842 -0.2699  0.0253  0.9511
14239TIP3    H264209   6.361   2.313  15.881  0.9579 -1.2613 -3.3693
14240TIP3   OH264210   3.349   2.815  10.467  0.1530 -0.1847 -0.2191
14240TIP3    H164211   3.320   2.896  10.509 -0.3074  0.7838 -2.2884
14240TIP3    H264212   3.299   2.810  10.385  2.6801 -0.6867 -1.8613
14241TIP3   OH264213   3.499   2.261  16.481 -0.5335  0.2680 -0.4825
14241TIP3    H164214   3.411   2.288  16.506 -0.0871  1.6409 -0.2993
14241TIP3    H264215   3.554   2.282  16.557  0.0004 -0.3238 -0.6919
14242TIP3   OH264216   3.559   2.155   1.872 -0.6553 -0.1977  0.3631
14242TIP3    H164217   3.560   2.225   1.937 -0.1770  0.7815 -0.6708
14242TIP3    H264218   3.487   2.177   1.814 -0.0331 -0.1382 -0.4020
14243TIP3   OH264219   5.443   3.230  14.657 -0.4163 -0.2193  0.0301
14243TIP3    H164220   5.432   3.161  14.591 -2.1999  1.0810 -1.1280
14243TIP3    H264221   5.455   3.182  14.739  1.8500 -1.8860 -1.1731
14244TIP3   OH264222   3.681   5.961   3.682 -0.5726  0.4336 -0.4165
14244TIP3    H164223   3.676   5.871   3.648  1.8224  0.5091 -1.1063
14244TIP3    H264224   3.600   6.002   3.652 -1.6613 -1.4135 -0.2110
14245TIP3   OH264225   0.353   0.441   0.117 -0.0095  0.1355 -0.1527
14245TIP3    H164226   0.311   0.493   0.048  1.7355  0.9320 -0.6814
14245TIP3    H264227   0.388   0.364   0.071  3.1008  1.7179 -0.7355
14246TIP3   OH264228   2.552   4.777   1.270  0.0931 -0.5250  0.0014
14246TIP3    H164229   2.467   4.781   1.226 -0.1130 -0.5354  0.3930
14246TIP3    H264230   2.564   4.864   1.308  0.1565 -0.5894  0.1299
14247TIP3   OH264231   3.716   0.833  13.639  0.0262  0.4189  0.2614
14247TIP3    H164232   3.806   0.825  13.669  0.2238 -0.8676 -0.6062
14247TIP3    H264233   3.724   0.874  13.552 -0.2103  0.1659  0.1198
14248TIP3   OH264234   2.461   5.011   4.548  0.0708 -0.6480 -0.1074
14248TIP3    H164235   2.533   5.075   4.546  1.2439 -1.9262 -1.9066
14248TIP3    H264236   2.397   5.045   4.486 -0.0265 -0.4355  0.1088
14249TIP3   OH264237   2.471   6.049   2.066 -0.1165  0.3310  0.1072
14249TIP3    H164238   2.481   6.111   2.137  1.6053 -0.7167  0.8458
14249TIP3    H264239   2.453   5.965   2.109 -1.2004  0.0553 -0.8090
14250TIP3   OH264240   4.425   2.383   5.125  0.6482 -0.2166 -0.1665
14250TIP3    H164241   4.440   2.465   5.171  3.1226 -0.8358  0.2617
14250TIP3    H264242   4.446   2.402   5.034  1.3392 -0.3617 -0.0477
14251TIP3   OH264243   1.162   0.180   0.999 -0.5418 -0.6870  0.8197
14251TIP3    H164244   1.076   0.190   1.039 -0.4294  0.2632  0.8522
14251TIP3    H264245   1.152   0.215   0.911 -0.4751 -1.6548  0.4152
14252TIP3   OH264246   0.509   4.963  13.728 -0.1098 -0.0118  0.6934
14252TIP3    H164247   0.592   4.988  13.766 -0.3833 -0.5764  1.7044
14252TIP3    H264248   0.514   4.868  13.720 -1.1275 -0.1969  1.9639
14253TIP3   OH264249   5.378   0.943  11.846  0.2549  0.3889  0.8792
14253TIP3    H164250   5.415   1.004  11.909  0.8568  1.6450 -0.6083
14253TIP3    H264251   5.359   0.997  11.769 -2.0694 -0.7380  0.5584
14254TIP3   OH264252   3.041   0.914   5.540 -0.3674 -0.6185  0.2654
14254TIP3    H164253   2.998   0.922   5.455 -1.0103 -0.6987  0.5797
14254TIP3    H264254   3.081   0.827   5.538  0.4935 -0.2256 -0.3443
14255TIP3   OH264255   3.306   3.535   2.251  0.6485 -0.6230  0.2565
14255TIP3    H164256   3.324   3.448   2.218  0.4663 -1.1358  1.4639
14255TIP3    H264257   3.232   3.524   2.312 -0.2864  0.5861 -0.5934
14256TIP3   OH264258   1.316   6.356  15.126 -0.1759 -0.4945  0.4264
14256TIP3    H164259   1.257   6.329  15.056 -0.0916 -2.2222  0.9701
14256TIP3    H264260   1.258   6.393  15.193 -0.2164  1.5925 -0.6672
14257TIP3   OH264261   6.257   0.736  12.139 -0.1688 -0.4899 -0.0196
14257TIP3    H164262   6.266   0.654  12.090 -0.0648 -0.4848 -0.0101
14257TIP3    H264263   6.275   0.805  12.076 -0.3853 -0.4694 -0.0575
14258TIP3   OH264264   0.463   2.324   4.809  0.3687 -0.2486 -0.0364
14258TIP3    H164265   0.372   2.331   4.837  0.7778 -0.5126  1.4124
14258TIP3    H264266   0.458   2.309   4.715 -1.0108  3.7771 -0.8135
14259TIP3   OH264267   3.769   1.292   1.222 -0.0806  0.1944 -0.4787
14259TIP3    H164268   3.782   1.354   1.295  0.0588  0.9108 -1.1024
14259TIP3    H264269   3.686   1.249   1.243  0.0681  0.2238  0.2233
14260TIP3   OH264270   3.526   0.460   2.316 -0.4949 -0.5787  0.1650
14260TIP3    H164271   3.485   0.500   2.393  0.3004  1.1756 -0.2636
14260TIP3    H264272   3.620   0.473   2.330 -0.3742  0.5567 -1.4857
14261TIP3   OH264273   0.345   4.421   2.137  0.1140 -0.0333  0.3658
14261TIP3    H164274   0.374   4.398   2.225  2.7683  0.4400 -0.2832
14261TIP3    H264275   0.357   4.341   2.086 -0.8614 -0.1455  0.3002
14262TIP3   OH264276   5.871   1.206   2.021 -0.3182  0.0824  0.3420
14262TIP3    H164277   5.858   1.140   2.089  2.8046  1.0976  2.1294
14262TIP3    H264278   5.835   1.287   2.057  1.3143  0.6165  0.8846
14263TIP3   OH264279   3.112   6.432  17.193 -0.3294  0.3417  0.2572
14263TIP3    H164280   3.109   6.351  17.245 -0.2534  0.5432  0.5762
14263TIP3    H264281   3.126   6.501  17.257  2.7777  0.3284 -0.2486
14264TIP3   OH264282   1.839   6.608   5.148  0.4448  1.4980  0.1297
14264TIP3    H164283   1.889   6.539   5.190 -1.3963 -0.6378 -0.9589
14264TIP3    H264284   1.850   6.592   5.054 -2.6149  0.5231 -0.1864
14265TIP3   OH264285   2.289   3.146   4.057 -0.2368 -0.0407 -0.0340
14265TIP3    H164286   2.321   3.056   4.049  2.3803  0.7090  0.8709
14265TIP3    H264287   2.241   3.147   4.140 -0.2688 -0.5783 -0.0412
14266TIP3   OH264288   1.366   1.902  15.215  0.0368  0.2587  0.2652
14266TIP3    H164289   1.406   1.988  15.203  0.4166 -0.0556 -0.9218
14266TIP3    H264290   1.275   1.921  15.240 -0.4344  1.0797 -1.7964
14267TIP3   OH264291   4.456   4.548  12.172 -0.6984 -0.1408  0.7595
14267TIP3    H164292   4.520   4.537  12.102  1.2951  2.1772  2.0455
14267TIP3    H264293   4.440   4.460  12.205  1.6631 -0.8291  0.2031
14268TIP3   OH264294   5.400   0.318  14.653 -0.3955 -0.1115 -0.2709
14268TIP3    H164295   5.483   0.315  14.605  0.0421  2.1208  0.2270
14268TIP3    H264296   5.399   0.237  14.703  1.4956 -0.2104 -0.3077
14269TIP3   OH264297   1.267   2.982   0.140  0.4877 -0.7959 -0.3011
14269TIP3    H164298   1.186   3.010   0.182  1.5625  1.9461  0.1471
14269TIP3    H264299   1.331   3.050   0.163  2.4353 -1.8544 -2.2170
14270TIP3   OH264300   2.282   1.085   1.642 -0.2309 -0.2495  0.2336
14270TIP3    H164301   2.339   1.149   1.600 -2.1476  0.6136 -1.2098
14270TIP3    H264302   2.204   1.135   1.667  0.3392 -0.9160  4.0185
14271TIP3   OH264303   4.510   1.196  12.988 -0.3900  0.0036  0.3210
14271TIP3    H164304   4.449   1.155  13.048  1.3623 -0.4136  1.9109
14271TIP3    H264305   4.552   1.123  12.942 -0.8814  0.2700 -0.5718
14272TIP3   OH264306   5.878   0.440   3.600 -0.3251 -0.6647  0.0473
14272TIP3    H164307   5.942   0.512   3.600 -1.1784  0.1142  0.1261
14272TIP3    H264308   5.901   0.389   3.522 -1.5947  1.4671 -1.8659
14273TIP3   OH264309   0.981   5.261  13.817  0.2416  0.7412  0.0860
14273TIP3    H164310   0.932   5.302  13.746  0.9996  2.5080  0.5297
14273TIP3    H264311   0.929   5.184  13.841 -0.6421  0.7912 -1.5533
14274TIP3   OH264312   1.867   0.798   2.101 -0.0052  0.5780  0.3701
14274TIP3    H164313   1.889   0.878   2.053 -0.1336  1.2957  1.4873
14274TIP3    H264314   1.772   0.791   2.093 -0.1316  1.1733  1.2263
14275TIP3   OH264315   4.928   3.645   4.103  0.0460 -0.5014  0.8812
14275TIP3    H164316   4.969   3.729   4.082 -0.1709 -0.0732  2.0724
14275TIP3    H264317   4.937   3.593   4.023 -0.2367  0.8087 -0.0311
14276TIP3   OH264318   3.425   6.031  15.273 -0.5690 -0.2820 -0.1804
14276TIP3    H164319   3.444   6.020  15.366 -1.3787 -0.3434 -0.0139
14276TIP3    H264320   3.391   5.946  15.245  1.1940 -0.7961 -0.9406
14277TIP3   OH264321   1.776   3.073   5.556 -0.2610  0.6302 -0.1866
14277TIP3    H164322   1.792   2.988   5.598  0.5808  0.7762 -0.1939
14277TIP3    H264323   1.858   3.121   5.567 -0.1177  0.7926 -1.7110
14278TIP3   OH264324   5.988   6.237  11.436  0.2837  0.2043  0.8199
14278TIP3    H164325   5.913   6.179  11.423 -0.1551  0.1185  3.3456
14278TIP3    H264326   6.063   6.189  11.400 -0.2801 -1.3694  1.6863
14279TIP3   OH264327   0.587   6.660  12.371 -0.2961 -0.3071 -0.0856
14279TIP3    H164328   0.558   6.657  12.462  0.9282 -0.1007  0.3248
14279TIP3    H264329   0.624   6.748  12.360  0.7215 -0.7642 -0.4067
14280TIP3   OH264330   1.926   6.455  14.586 -0.1718  0.4713  0.1075
14280TIP3    H164331   1.881   6.516  14.644 -0.2068  0.7348 -0.1915
14280TIP3    H264332   2.014   6.446  14.623 -0.8491 -1.0565  1.4391
14281TIP3   OH264333   4.215   0.299  15.498 -0.1549 -0.0878 -0.6813
14281TIP3    H164334   4.139   0.300  15.557  0.5113 -0.3963  0.2235
14281TIP3    H264335   4.270   0.228  15.533  0.5202  0.0975 -1.3525
14282TIP3   OH264336   5.491   1.228   2.529  0.0850  0.0802 -0.4386
14282TIP3    H164337   5.423   1.282   2.569 -3.0872 -2.4448 -1.9468
14282TIP3    H264338   5.477   1.236   2.435  0.9592 -1.5839 -0.7590
14283TIP3   OH264339   4.112   4.861   1.395 -0.5016  0.3169  0.3833
14283TIP3    H164340   4.109   4.766   1.382 -2.8556  0.5076 -0.9396
14283TIP3    H264341   4.030   4.882   1.440  0.3300  1.6619  1.3519
14284TIP3   OH264342   3.901   2.660  13.825 -0.6686 -0.0469 -0.5528
14284TIP3    H164343   3.968   2.727  13.809 -2.3733  2.3967  1.7352
14284TIP3    H264344   3.943   2.599  13.886  0.1097  0.2981 -0.7254
14285TIP3   OH264345   5.324   5.833  12.386 -0.1289  0.6457 -0.0264
14285TIP3    H164346   5.320   5.779  12.465 -0.9961  1.1339  0.2764
14285TIP3    H264347   5.242   5.882  12.386  1.3483  3.3330  0.6835
14286TIP3   OH264348   3.598   6.819  15.504  0.5069 -0.5036 -0.1169
14286TIP3    H164349   3.559   6.838  15.589  0.8872 -0.4209  0.0413
14286TIP3    H264350   3.690   6.843  15.514  0.2823  0.8249 -0.9761
14287TIP3   OH264351   3.961   2.436  14.059  0.4309  0.1922 -0.8891
14287TIP3    H164352   4.004   2.516  14.087  1.2461  0.1096 -1.8565
14287TIP3    H264353   3.980   2.373  14.128  2.4382 -0.0211 -1.5712
14288TIP3   OH264354   4.216   5.268  16.133  0.3437  0.3506 -0.0952
14288TIP3    H164355   4.161   5.289  16.208  2.2439  0.3372  1.4039
14288TIP3    H264356   4.291   5.221  16.171  0.0132 -2.2662 -2.3744
14289TIP3   OH264357   4.573   2.757  14.560 -0.0945  0.5545  0.5557
14289TIP3    H164358   4.560   2.851  14.546  0.2930  0.6961  1.1122
14289TIP3    H264359   4.651   2.736  14.509 -1.1659  0.1622 -0.9852
14290TIP3   OH264360   5.494   1.918  15.790  0.0274 -0.1118  0.3230
14290TIP3    H164361   5.497   1.862  15.867  1.1455 -1.7664 -0.8563
14290TIP3    H264362   5.525   2.003  15.821 -1.5133 -0.1402  2.1081
14291TIP3   OH264363   5.289   3.318   3.571  0.3363 -0.5392  0.2340
14291TIP3    H164364   5.317   3.405   3.597 -2.2013  0.6182 -0.5605
14291TIP3    H264365   5.349   3.259   3.616  3.1655  1.5882 -0.4313
14292TIP3   OH264366   1.836   2.590  14.498 -0.3257  0.7627 -0.3966
14292TIP3    H164367   1.759   2.575  14.443 -0.3524  0.1333 -0.1998
14292TIP3    H264368   1.807   2.563  14.586 -0.1285  1.2814 -0.1701
14293TIP3   OH264369   2.426   5.949  13.711 -0.5626  0.4478  0.1110
14293TIP3    H164370   2.388   6.019  13.763  1.7017  2.5028 -0.8086
14293TIP3    H264371   2.485   5.904  13.772 -0.9689  0.2097  0.3368
14294TIP3   OH264372   0.653   3.810   3.095  0.1528 -0.1056 -0.2540
14294TIP3    H164373   0.731   3.797   3.040  1.1547  0.3185  1.0205
14294TIP3    H264374   0.598   3.734   3.078  1.5019 -1.1445 -0.1088
14295TIP3   OH264375   1.344   3.735  14.882  0.1589 -0.2367  0.3876
14295TIP3    H164376   1.319   3.787  14.806  1.8711 -0.8617 -0.6451
14295TIP3    H264377   1.401   3.793  14.933  1.2026 -0.7252 -0.2134
14296TIP3   OH264378   4.968   1.083   5.616 -0.3162 -0.0278  0.5048
14296TIP3    H164379   4.982   0.990   5.599  0.1222  0.1167  0.0862
14296TIP3    H264380   4.999   1.127   5.537  0.2975  0.5365  1.0558
14297TIP3   OH264381   1.894   0.195  12.376  0.2207 -0.3588  0.7183
14297TIP3    H164382   1.958   0.266  12.382  0.8669 -0.7842 -0.6412
14297TIP3    H264383   1.919   0.134  12.445  1.1187 -0.3809  0.3923
14298TIP3   OH264384   0.854   1.697   1.618 -0.1850 -0.5812  0.2955
14298TIP3    H164385   0.927   1.745   1.659 -1.1322  0.7970  0.4253
14298TIP3    H264386   0.895   1.651   1.545  0.7129  0.7677 -0.0992
14299TIP3   OH264387   1.852   5.176  11.679  0.1105  0.2166  0.1183
14299TIP3    H164388   1.915   5.221  11.735 -0.9294  2.2088 -0.1947
14299TIP3    H264389   1.903   5.148  11.603  1.1271 -0.6531  1.0957
14300TIP3   OH264390   1.424   5.201   4.301  0.3269 -0.0138 -0.2936
14300TIP3    H164391   1.492   5.179   4.237 -0.4035 -1.1340 -0.7267
14300TIP3    H264392   1.351   5.234   4.248  0.6804  1.6475  0.2040
14301TIP3   OH264393   1.993   4.552  16.168 -0.3025  0.3249 -0.0586
14301TIP3    H164394   1.996   4.615  16.097  0.7470  0.4198  0.0558
14301TIP3    H264395   1.951   4.599  16.240  1.4986  1.3134  0.3977
14302TIP3   OH264396   6.616   6.501  11.763  0.1909 -0.1049 -0.2883
14302TIP3    H164397   6.547   6.539  11.818 -0.1410 -1.1540  0.0419
14302TIP3    H264398   6.606   6.544  11.678  0.8608  1.7242  0.5056
14303TIP3   OH264399   6.514   1.886  15.960 -0.0219  0.0189  0.1411
14303TIP3    H164400   6.424   1.861  15.939 -0.1031  0.2809  0.1814
14303TIP3    H264401   6.562   1.803  15.960 -0.3778 -0.1874  0.7130
14304TIP3   OH264402   3.155   1.353   5.522  0.5255 -0.8881  0.0631
14304TIP3    H164403   3.247   1.326   5.517  0.5126 -0.7301 -2.6523
14304TIP3    H264404   3.154   1.425   5.584  2.2031 -1.0336  0.3010
14305TIP3   OH264405   4.875   4.478  13.368 -0.3716 -0.2574  0.1854
14305TIP3    H164406   4.970   4.468  13.377 -0.3068  1.2718  1.7928
14305TIP3    H264407   4.841   4.467  13.457 -1.6292 -0.1153 -0.2523
14306TIP3   OH264408   6.477   3.221   4.462  0.5064  0.6405 -0.4931
14306TIP3    H164409   6.570   3.199   4.455  0.3802  0.2421 -1.0213
14306TIP3    H264410   6.475   3.317   4.457  1.1090  0.8945  2.4427
14307TIP3   OH264411   6.066   2.462   0.374  0.6112  0.2232  0.0810
14307TIP3    H164412   6.086   2.371   0.355 -0.0086  0.2636 -0.8790
14307TIP3    H264413   6.148   2.509   0.360  0.2777  0.2044 -2.4069
14308TIP3   OH264414   3.636   0.818   0.469 -0.4880 -0.1494  0.2619
14308TIP3    H164415   3.599   0.729   0.470  0.9749 -0.7884  0.6440
14308TIP3    H264416   3.608   0.854   0.385 -0.9257 -1.0516  0.0048
14309TIP3   OH264417   0.169   2.352   0.765 -0.0134 -0.0849 -0.6333
14309TIP3    H164418   0.120   2.292   0.709 -0.4936 -1.1455  0.8596
14309TIP3    H264419   0.259   2.346   0.734  0.0040 -1.8223 -0.3318
14310TIP3   OH264420   2.037   1.159   3.191 -0.3963 -0.1829 -0.3482
14310TIP3    H164421   2.110   1.170   3.251 -1.0926  0.2215  0.4466
14310TIP3    H264422   2.028   1.243   3.148 -0.0162 -0.4161 -0.8927
14311TIP3   OH264423   3.643   1.199  14.166  0.5175  0.4668  0.1325
14311TIP3    H164424   3.613   1.241  14.086 -0.9351 -3.4917 -1.6298
14311TIP3    H264425   3.568   1.204  14.226  0.3893  0.4600 -0.0270
14312TIP3   OH264426   4.223   1.166   4.340 -0.2459 -0.4969 -0.3998
14312TIP3    H164427   4.256   1.178   4.429 -1.2520 -2.1969  0.2605
14312TIP3    H264428   4.138   1.211   4.340 -0.1231 -0.2599 -0.6026
14313TIP3   OH264429   3.631   0.172  13.512 -0.2328 -0.6068  0.5831
14313TIP3    H164430   3.636   0.106  13.442  0.6503  0.4925 -0.4284
14313TIP3    H264431   3.538   0.175  13.535 -1.0841  0.9566 -2.5054
14314TIP3   OH264432   6.371   1.882  15.105 -0.3234  0.7240 -0.1079
14314TIP3    H164433   6.339   1.923  15.185 -1.3740 -0.0163 -0.1207
14314TIP3    H264434   6.457   1.922  15.090 -0.2942  1.1841  1.1411
14315TIP3   OH264435   3.065   2.207  11.605 -0.3099 -0.2023 -0.0198
14315TIP3    H164436   3.065   2.286  11.552  2.6934  0.7197  1.1190
14315TIP3    H264437   3.016   2.230  11.684 -0.3806  0.1565 -0.1698
14316TIP3   OH264438   2.489   4.837   2.712  0.0639  0.2463 -0.5830
14316TIP3    H164439   2.407   4.854   2.758  1.3097 -0.1700  1.9804
14316TIP3    H264440   2.469   4.853   2.620 -3.1554 -0.8574 -0.1995
14317TIP3   OH264441   2.245   0.920  15.887  0.3657 -0.0062  0.8079
14317TIP3    H164442   2.214   1.002  15.926  0.2483 -0.3886  1.5485
14317TIP3    H264443   2.272   0.867  15.962 -0.7905 -1.1570  0.4602
14318TIP3   OH264444   4.119   3.859  14.129  0.0792  0.0850 -0.0541
14318TIP3    H164445   4.104   3.771  14.096  0.4580 -0.2476  0.6428
14318TIP3    H264446   4.106   3.852  14.224 -2.3606  1.2941 -0.2035
14319TIP3   OH264447   1.454   1.150   5.758  0.3395  0.3715 -0.5062
14319TIP3    H164448   1.384   1.151   5.693  0.5361 -0.3480 -0.7438
14319TIP3    H264449   1.480   1.241   5.769  0.0627  0.5282 -1.1806
14320TIP3   OH264450   2.457   2.613  16.436  0.4271  0.1360  0.3183
14320TIP3    H164451   2.474   2.641  16.346  2.3720  0.5064  0.7377
14320TIP3    H264452   2.452   2.518  16.432  2.8977 -0.0475  0.0812
14321TIP3   OH264453   1.140   2.196  12.164  0.0259  0.1107 -0.2887
14321TIP3    H164454   1.120   2.169  12.075  0.9757 -1.4036 -0.0717
14321TIP3    H264455   1.064   2.170  12.216  0.5565 -1.3983 -0.2361
14322TIP3   OH264456   4.483   1.767   1.890 -0.1349 -0.2849 -0.2341
14322TIP3    H164457   4.434   1.690   1.860 -0.3209  0.1960 -1.2083
14322TIP3    H264458   4.574   1.738   1.893 -0.4163 -1.0916  1.2737
14323TIP3   OH264459   2.552   6.717   4.024 -0.1637  0.1475 -0.1550
14323TIP3    H164460   2.478   6.659   4.006 -1.0684  1.6882 -1.6212
14323TIP3    H264461   2.622   6.685   3.968 -0.1035 -0.5417  0.3001
14324TIP3   OH264462   2.011   6.701   3.700  0.3015 -0.2688 -0.1150
14324TIP3    H164463   2.042   6.774   3.647 -1.1694  0.0262 -0.6044
14324TIP3    H264464   2.082   6.636   3.694 -0.3283 -0.8760 -3.6751
14325TIP3   OH264465   5.347   5.239   2.258  0.2003  0.4479 -0.6956
14325TIP3    H164466   5.261   5.225   2.218 -0.0691 -0.4942  0.1581
14325TIP3    H264467   5.362   5.333   2.251 -1.2796  0.7557 -0.1261
14326TIP3   OH264468   0.477   4.589   5.097  0.0420 -0.3745  0.1547
14326TIP3    H164469   0.493   4.638   5.178  1.2305  0.0827 -0.3312
14326TIP3    H264470   0.412   4.640   5.050 -1.1235 -0.9576  1.0640
14327TIP3   OH264471   3.048   6.103  16.645  0.0462 -0.1301 -0.1722
14327TIP3    H164472   3.016   6.059  16.567  0.4783 -1.9045  0.6018
14327TIP3    H264473   3.023   6.195  16.633  1.7442  0.0640 -3.2550
14328TIP3   OH264474   4.226   4.301   2.455  0.2286  0.3666  0.1093
14328TIP3    H164475   4.203   4.369   2.519 -0.4747 -0.3425  0.6321
14328TIP3    H264476   4.315   4.275   2.479 -0.1227 -0.0757  0.9907
14329TIP3   OH264477   0.347   5.001  11.786  0.5540 -1.0601 -0.4729
14329TIP3    H164478   0.407   5.071  11.810  0.4666 -0.4932 -1.8138
14329TIP3    H264479   0.343   5.004  11.690 -0.1480 -2.3161 -0.5106
14330TIP3   OH264480   4.401   0.838  14.904 -0.2479  0.1817  0.1245
14330TIP3    H164481   4.425   0.929  14.920 -0.6839  0.8987 -2.6335
14330TIP3    H264482   4.464   0.787  14.954  0.4271  1.9811  1.2154
14331TIP3   OH264483   0.869   4.872  16.119 -0.3845  0.1512 -0.4534
14331TIP3    H164484   0.862   4.783  16.084  0.6829  0.6225 -1.9859
14331TIP3    H264485   0.783   4.912  16.100 -0.4086 -0.1488 -1.0029
14332TIP3   OH264486   0.417   3.059  12.899  0.5079  0.3373  0.6633
14332TIP3    H164487   0.492   3.110  12.866 -0.3231  1.7138  0.8035
14332TIP3    H264488   0.456   2.997  12.961  1.7244 -0.1891 -0.5834
14333TIP3   OH264489   3.045   4.226  15.762 -0.1892 -0.2410  0.1297
14333TIP3    H164490   3.100   4.224  15.840  0.3067  0.7813 -0.1740
14333TIP3    H264491   2.968   4.276  15.788  0.2111  0.5563 -0.1548
14334TIP3   OH264492   3.505   4.509  14.650 -0.4518 -0.7296 -0.2626
14334TIP3    H164493   3.423   4.528  14.604 -0.3833 -0.3989 -0.2486
14334TIP3    H264494   3.500   4.563  14.730 -0.1158 -0.5296 -0.3777
14335TIP3   OH264495   1.228   2.133  16.856  0.0973 -0.1518 -0.3516
14335TIP3    H164496   1.275   2.114  16.775  1.1250  0.2397  0.1295
14335TIP3    H264497   1.200   2.224  16.847  1.6200  0.4120  0.3791
14336TIP3   OH264498   2.583   6.731   1.164  0.3132  0.0712  0.3215
14336TIP3    H164499   2.542   6.657   1.119 -0.2783  0.5955 -0.0083
14336TIP3    H264500   2.652   6.691   1.217  1.0309 -0.5588 -1.0428
14337TIP3   OH264501   0.868   5.876   1.420  0.2040 -0.3578  0.0296
14337TIP3    H164502   0.959   5.851   1.402 -0.3204 -1.7774 -0.7277
14337TIP3    H264503   0.825   5.794   1.444 -0.9696  0.2511  0.0450
14338TIP3   OH264504   3.338   2.379   0.440  0.1294  0.5239  0.5257
14338TIP3    H164505   3.269   2.352   0.380 -0.5782  2.3560  0.4618
14338TIP3    H264506   3.416   2.388   0.385 -0.0432  0.3048  0.2459
14339TIP3   OH264507   5.919   5.537   1.520 -0.1444  0.1269  0.6884
14339TIP3    H164508   5.913   5.478   1.444  4.1797  2.2040 -1.7110
14339TIP3    H264509   5.945   5.480   1.592  1.6380 -1.3303 -0.9665
14340TIP3   OH264510   3.923   3.920   1.418 -0.1897 -0.2143 -0.0151
14340TIP3    H164511   3.939   3.963   1.503  0.9421 -0.1209 -0.2550
14340TIP3    H264512   3.869   3.844   1.440  0.9428 -0.7730  0.9487
14341TIP3   OH264513   6.300   2.412  14.972 -0.5718 -0.8877  0.1185
14341TIP3    H164514   6.318   2.380  15.061  0.0559 -1.4482 -0.2045
14341TIP3    H264515   6.307   2.335  14.917  0.1293 -0.3496 -0.5667
14342TIP3   OH264516   3.387   0.619  13.008 -0.0761 -0.6601 -0.4071
14342TIP3    H164517   3.317   0.678  12.981  0.6502  0.1553 -0.5246
14342TIP3    H264518   3.342   0.536  13.024 -0.7138 -0.9313 -3.0853
14343TIP3   OH264519   0.834   1.321  16.530  0.5258 -0.3069 -0.0562
14343TIP3    H164520   0.884   1.343  16.609  1.7179 -0.9619 -0.5960
14343TIP3    H264521   0.868   1.381  16.463  0.4007 -0.5882 -0.3731
14344TIP3   OH264522   2.098   5.088  11.115  0.3870 -0.3652 -0.3260
14344TIP3    H164523   2.055   5.017  11.067 -0.3338  0.6730 -1.2514
14344TIP3    H264524   2.138   5.142  11.047  0.3088  0.5069  0.3088
14345TIP3   OH264525   5.743   3.432   0.260  0.2272 -0.3245  0.2259
14345TIP3    H164526   5.820   3.377   0.253  0.4398  0.1371 -2.0182
14345TIP3    H264527   5.672   3.372   0.281  1.0758 -0.8341  1.7566
14346TIP3   OH264528   3.497   2.104   0.521 -0.3653 -0.6129 -0.2482
14346TIP3    H164529   3.499   2.059   0.436  2.7359 -1.6572  0.2346
14346TIP3    H264530   3.524   2.193   0.501 -1.1483 -0.4318 -0.5285
14347TIP3   OH264531   3.668   4.280  13.904  0.4953 -0.0208 -0.0481
14347TIP3    H164532   3.728   4.211  13.875  1.4629  1.2388 -1.1726
14347TIP3    H264533   3.704   4.310  13.988  0.4176 -0.4568  0.1436
14348TIP3   OH264534   6.214   1.451   2.492  0.4143 -0.4087 -0.3175
14348TIP3    H164535   6.217   1.367   2.539 -2.6658 -1.3650 -1.5242
14348TIP3    H264536   6.214   1.517   2.561  2.3516 -1.3950  0.6969
14349TIP3   OH264537   4.766   6.328  10.942  0.1228 -0.1878 -0.6231
14349TIP3    H164538   4.714   6.256  10.905  1.0324 -1.3944  0.3653
14349TIP3    H264539   4.796   6.378  10.866  1.0523 -1.9745 -1.4985
14350TIP3   OH264540   6.145   0.996  13.860 -0.5036 -0.1077 -0.3463
14350TIP3    H164541   6.084   0.934  13.820  1.1171 -0.8991 -1.7398
14350TIP3    H264542   6.221   0.996  13.801  0.3807  1.6791  0.7149
14351TIP3   OH264543   3.284   2.308   2.901 -0.6431  0.5871  0.3154
14351TIP3    H164544   3.280   2.378   2.836 -1.0797  0.9487  0.7294
14351TIP3    H264545   3.307   2.230   2.850  1.3465  1.2803  0.0403
14352TIP3   OH264546   5.464   0.885   4.745  0.2228 -0.0729 -0.6414
14352TIP3    H164547   5.504   0.967   4.776 -0.0500  0.5799 -1.9594
14352TIP3    H264548   5.457   0.896   4.651 -2.1524 -0.5699 -0.5727
14353TIP3   OH264549   4.712   3.476  12.523 -0.3885  0.0979 -0.6542
14353TIP3    H164550   4.623   3.506  12.503 -0.5352  0.6019  0.5882
14353TIP3    H264551   4.730   3.408  12.459 -2.2832 -1.1423  0.0210
14354TIP3   OH264552   6.493   3.523  16.384 -0.4802  0.3133 -0.0564
14354TIP3    H164553   6.569   3.512  16.442 -0.2666  1.1515 -0.1683
14354TIP3    H264554   6.430   3.459  16.415  1.6202 -3.2079 -2.2692
14355TIP3   OH264555   2.500   0.444   5.690  0.0463  0.2941  0.2376
14355TIP3    H164556   2.505   0.511   5.622  1.9106 -0.9149 -0.8608
14355TIP3    H264557   2.586   0.444   5.731  0.5677 -2.3798 -0.7244
14356TIP3   OH264558   0.622   1.537   5.592  0.0819  0.5287  0.1762
14356TIP3    H164559   0.665   1.521   5.676  0.6740  1.6691  0.1076
14356TIP3    H264560   0.575   1.619   5.605 -2.0522 -0.6128  0.2244
14357TIP3   OH264561   0.661   1.563   1.760  0.2167 -0.1404 -0.0094
14357TIP3    H164562   0.711   1.613   1.695  0.8879  0.6908  1.0882
14357TIP3    H264563   0.727   1.507   1.801 -0.0106  0.0069  0.5592
14358TIP3   OH264564   3.566   6.566   3.846 -0.1897  0.0678 -0.0404
14358TIP3    H164565   3.587   6.601   3.759  2.6712 -0.3579  0.3892
14358TIP3    H264566   3.554   6.472   3.831  2.2585 -0.3583  0.1976
14359TIP3   OH264567   6.207   2.080   2.579  0.4443  0.0103  0.5323
14359TIP3    H164568   6.167   2.161   2.610  0.8042  1.0278 -1.4658
14359TIP3    H264569   6.190   2.016   2.648 -0.8629  1.4883  1.6425
14360TIP3   OH264570   5.827   4.988  12.739 -0.0298  0.0600  0.5635
14360TIP3    H164571   5.911   5.005  12.782 -0.6655  1.1485  1.4456
14360TIP3    H264572   5.834   4.899  12.707  2.1295  0.6907 -0.9362
14361TIP3   OH264573   1.059   0.426   5.488  0.1427  0.0347  0.5582
14361TIP3    H164574   0.986   0.373   5.521 -0.0657 -0.3422 -0.4676
14361TIP3    H264575   1.136   0.370   5.500 -0.0730 -0.5131 -0.4955
14362TIP3   OH264576   1.508   0.537  17.133 -0.2236  0.1081 -0.4043
14362TIP3    H164577   1.588   0.525  17.183  0.0605 -0.3563 -0.9603
14362TIP3    H264578   1.438   0.526  17.196  0.1432  0.3695  0.0569
14363TIP3   OH264579   2.728   6.715   0.198 -0.2455 -0.1354 -0.1320
14363TIP3    H164580   2.711   6.705   0.291 -0.3862  0.2257 -0.1167
14363TIP3    H264581   2.762   6.804   0.189 -2.6897  0.8351 -0.7367
14364TIP3   OH264582   4.608   6.610   4.586 -0.0867  0.1031  0.2478
14364TIP3    H164583   4.520   6.583   4.558  0.7600 -1.6356 -0.9206
14364TIP3    H264584   4.620   6.697   4.549 -1.3046  0.3477  0.3958
14365TIP3   OH264585   6.006   3.824  15.922  0.1754  0.0787  0.1878
14365TIP3    H164586   6.064   3.839  15.847 -0.6344  0.6177 -0.3489
14365TIP3    H264587   6.058   3.849  15.998  1.2350 -1.0726 -0.1116
14366TIP3   OH264588   3.504   2.904   5.640  0.5208  0.6093  0.2706
14366TIP3    H164589   3.524   2.888   5.548 -3.5450  4.4676 -1.6853
14366TIP3    H264590   3.426   2.850   5.657  1.0448  0.1757  1.4130
14367TIP3   OH264591   0.638   4.107   0.405 -0.0515  0.4894  0.4181
14367TIP3    H164592   0.557   4.058   0.390 -1.4374  2.3812  1.3177
14367TIP3    H264593   0.624   4.152   0.488  1.6967  1.3589  0.2931
14368TIP3   OH264594   1.252   1.786   5.178  0.5128  0.3709 -0.1279
14368TIP3    H164595   1.197   1.766   5.254  0.3716 -1.3862 -0.6471
14368TIP3    H264596   1.195   1.836   5.119  0.1036  0.2819  0.1899
14369TIP3   OH264597   2.129   4.136  12.060 -0.2582  0.1040 -0.8678
14369TIP3    H164598   2.112   4.120  12.152  1.3259 -0.1205 -0.5911
14369TIP3    H264599   2.054   4.095  12.015 -0.9112 -0.0200  0.2794
14370TIP3   OH264600   4.620   3.442   5.180  0.5001  0.2461  0.2986
14370TIP3    H164601   4.612   3.390   5.100  1.3081  1.0925 -0.3535
14370TIP3    H264602   4.712   3.432   5.206  0.8346  1.7817 -0.1756
14371TIP3   OH264603   4.748   1.023   5.301 -0.0053  0.4006 -0.5856
14371TIP3    H164604   4.740   0.930   5.319 -0.4627  0.0138 -2.5689
14371TIP3    H264605   4.752   1.064   5.387  2.4425 -1.6124  0.3753
14372TIP3   OH264606   3.144   5.171  14.330 -0.3743 -0.1311  0.3178
14372TIP3    H164607   3.122   5.179  14.423 -1.1492 -2.0249  0.3340
14372TIP3    H264608   3.104   5.248  14.289 -0.4533  0.4648  1.4582
14373TIP3   OH264609   2.301   1.015   5.582 -0.1779 -0.5623  0.0973
14373TIP3    H164610   2.337   0.929   5.606 -1.2288 -0.5633  1.8577
14373TIP3    H264611   2.376   1.074   5.588  0.7569 -1.4278 -1.9462
14374TIP3   OH264612   6.263   1.674  16.239 -0.4545  0.3692 -0.2281
14374TIP3    H164613   6.350   1.700  16.270 -0.7837  2.3739 -0.8400
14374TIP3    H264614   6.271   1.580  16.221  1.5962  0.5220 -0.3377
14375TIP3   OH264615   0.746   0.291   1.339  0.6484 -0.1413 -0.2635
14375TIP3    H164616   0.771   0.344   1.415  0.1708  0.1170 -0.2846
14375TIP3    H264617   0.700   0.216   1.377 -0.8249  0.6798 -0.3586
14376TIP3   OH264618   4.229   0.805  12.868 -0.4735 -0.0131 -0.4125
14376TIP3    H164619   4.317   0.788  12.900 -0.8772  0.0146  0.7580
14376TIP3    H264620   4.240   0.823  12.775  0.8328  0.6745 -0.1423
14377TIP3   OH264621   1.191   2.401   3.413  0.0744  0.2487 -0.0816
14377TIP3    H164622   1.103   2.421   3.382 -0.6256  2.0794  2.6840
14377TIP3    H264623   1.178   2.344   3.489  1.3072  0.2065  0.1222
14378TIP3   OH264624   6.091   0.584  11.836  0.2438  0.0712 -0.0676
14378TIP3    H164625   6.140   0.530  11.898 -0.0852 -0.7193 -0.4820
14378TIP3    H264626   6.020   0.621  11.887  2.0412  2.4355  0.9250
14379TIP3   OH264627   5.394   0.112   3.548  0.0875 -0.0402 -0.0543
14379TIP3    H164628   5.381   0.193   3.498  0.9165  0.0759 -0.0946
14379TIP3    H264629   5.338   0.048   3.503 -0.8103  0.5698  0.1612
14380TIP3   OH264630   3.033   3.016  17.209 -0.1574 -0.0602 -0.3761
14380TIP3    H164631   3.001   3.086  17.151 -2.6081  0.0361  0.9587
14380TIP3    H264632   2.963   2.951  17.209  1.9819 -2.5465 -1.4406
14381TIP3   OH264633   4.805   1.698   3.895  0.3345 -0.2688  0.2732
14381TIP3    H164634   4.745   1.767   3.922 -0.8974 -1.3316  0.3550
14381TIP3    H264635   4.785   1.683   3.803  1.5461  0.3930 -0.1230
14382TIP3   OH264636   2.538   6.630   6.236 -0.0112 -0.2094 -0.2323
14382TIP3    H164637   2.485   6.687   6.292  0.6497  0.2052 -0.0108
14382TIP3    H264638   2.479   6.560   6.209 -0.4801 -0.1221  0.5560
14383TIP3   OH264639   4.142   0.315  13.610 -0.1584  0.8971 -0.1210
14383TIP3    H164640   4.160   0.282  13.522  0.5813  2.5776 -0.6434
14383TIP3    H264641   4.085   0.249  13.649  1.5884 -1.1722 -0.9117
14384TIP3   OH264642   3.266   1.080   5.612  0.7746  0.1853  0.4554
14384TIP3    H164643   3.208   1.004   5.613  0.4188  0.4597  0.7007
14384TIP3    H264644   3.353   1.044   5.633  0.6816 -0.2114  0.1631
14385TIP3   OH264645   0.181   2.477  11.023  0.0592  0.3213 -0.5818
14385TIP3    H164646   0.130   2.516  11.095  1.6012  0.4009  0.5174
14385TIP3    H264647   0.134   2.502  10.944 -1.9211 -0.0963  0.3950
14386TIP3   OH264648   3.862   1.823  14.888 -0.1404  0.0345  0.0797
14386TIP3    H164649   3.877   1.749  14.830 -2.0808 -0.9604  0.7387
14386TIP3    H264650   3.854   1.898  14.830  0.9816 -0.4057 -0.6709
14387TIP3   OH264651   0.171   3.719   3.779  0.7445 -0.0501  0.1147
14387TIP3    H164652   0.243   3.774   3.749 -0.7710  1.2559 -1.3516
14387TIP3    H264653   0.213   3.651   3.832  2.9829  0.8561 -0.3799
14388TIP3   OH264654   5.620   4.978  11.224  0.1054  0.1215  0.5797
14388TIP3    H164655   5.647   4.960  11.134 -1.4311 -0.4411  0.2148
14388TIP3    H264656   5.615   5.074  11.228 -0.6078  0.1243 -0.1797
14389TIP3   OH264657   6.142   4.648  14.716 -0.8753 -0.6602  0.5216
14389TIP3    H164658   6.211   4.583  14.713  0.6261  0.8866 -1.1693
14389TIP3    H264659   6.187   4.731  14.732 -2.0908  0.5878 -1.8621
14390TIP3   OH264660   2.104   1.320  16.621  0.0543 -0.0882 -0.0627
14390TIP3    H164661   2.025   1.353  16.578  0.0177 -1.6383 -1.2471
14390TIP3    H264662   2.175   1.341  16.561  0.4142  0.3012  0.4864
14391TIP3   OH264663   3.212   6.057   1.929 -0.7694  0.0629  0.3939
14391TIP3    H164664   3.259   6.141   1.937 -0.6368 -0.1800  3.0540
14391TIP3    H264665   3.121   6.078   1.951 -0.8070 -0.4030  0.7036
14392TIP3   OH264666   4.526   3.773   1.560  0.0061 -0.1951  0.3881
14392TIP3    H164667   4.441   3.770   1.516 -0.1185 -2.6194  0.6866
14392TIP3    H264668   4.578   3.833   1.506 -1.2548 -0.2617 -0.9643
14393TIP3   OH264669   0.380   3.456   2.806 -0.0249 -0.1561  0.1424
14393TIP3    H164670   0.384   3.378   2.862  0.8151 -0.4799 -0.3645
14393TIP3    H264671   0.289   3.486   2.814 -1.3761 -3.0817 -2.2418
14394TIP3   OH264672   3.972   0.109  17.149  0.1701  1.0907  0.0188
14394TIP3    H164673   3.987   0.016  17.166 -1.8374  0.8743  0.8496
14394TIP3    H264674   3.894   0.111  17.093 -0.4927  2.3048  0.9462
14395TIP3   OH264675   3.302   2.834  11.640 -0.6105 -0.7831  0.5181
14395TIP3    H164676   3.393   2.819  11.663 -0.7799 -0.4944  1.4130
14395TIP3    H264677   3.259   2.852  11.723 -1.1501  0.7839 -0.0638
14396TIP3   OH264678   3.834   5.864  15.230  0.3161 -0.1634 -0.2588
14396TIP3    H164679   3.758   5.901  15.184  0.5862 -1.3069 -1.6795
14396TIP3    H264680   3.862   5.791  15.176  1.8172 -0.4096  0.7859
14397TIP3   OH264681   1.269   0.503   5.220  0.0923 -0.0995 -0.2695
14397TIP3    H164682   1.213   0.427   5.205  2.0449 -1.5320 -0.7608
14397TIP3    H264683   1.268   0.551   5.137 -0.7375  0.1381 -0.1269
14398TIP3   OH264684   2.257   3.104   2.880 -0.3840  0.3337 -0.7389
14398TIP3    H164685   2.270   3.080   2.788 -0.1704  0.1901 -0.6732
14398TIP3    H264686   2.162   3.098   2.893 -0.3675 -0.1553 -0.8131
14399TIP3   OH264687   2.779   0.845  12.770 -0.1500 -0.7311 -0.4285
14399TIP3    H164688   2.687   0.844  12.797 -0.0174  0.0064  0.0880
14399TIP3    H264689   2.794   0.758  12.733 -1.1963 -0.6880 -1.0017
14400TIP3   OH264690   4.373   3.831   1.789 -0.6592 -0.1626  0.3926
14400TIP3    H164691   4.427   3.837   1.710  0.3198 -1.4022  0.9467
14400TIP3    H264692   4.298   3.888   1.770  0.4251  0.9657 -0.7069
14401TIP3   OH264693   1.713   6.076  10.789 -1.0780 -0.7966  0.3622
14401TIP3    H164694   1.718   6.171  10.797 -0.9689 -0.4516 -2.6489
14401TIP3    H264695   1.762   6.043  10.864 -0.1086  1.5280  0.8425
14402TIP3   OH264696   2.550   6.679  16.429  0.7319  0.7018  0.5834
14402TIP3    H164697   2.465   6.672  16.473  0.7729 -0.0502  0.5479
14402TIP3    H264698   2.537   6.747  16.362 -1.3278 -2.6481 -2.7780
14403TIP3   OH264699   2.112   4.324  11.393 -0.0223 -0.5256 -0.2559
14403TIP3    H164700   2.137   4.296  11.305 -0.4546 -1.0002 -0.2282
14403TIP3    H264701   2.172   4.278  11.451 -0.5665 -1.2135 -0.2254
14404TIP3   OH264702   2.516   0.141  10.923 -0.1225  0.2282  0.6312
14404TIP3    H164703   2.551   0.057  10.953  3.2556  2.3220  3.2041
14404TIP3    H264704   2.587   0.179  10.871 -2.5891  0.5344 -2.8403
14405TIP3   OH264705   6.261   4.022   3.363  0.2535  0.1815 -0.4589
14405TIP3    H164706   6.238   4.102   3.315 -0.1328  0.3737  0.0502
14405TIP3    H264707   6.347   4.042   3.401  0.2522  0.2769 -0.5039
14406TIP3   OH264708   3.651   6.482  11.485  0.3651 -0.2750  0.5011
14406TIP3    H164709   3.565   6.447  11.464 -0.2367  2.2977 -2.0003
14406TIP3    H264710   3.709   6.406  11.486 -1.1653 -1.6490 -2.5525
14407TIP3   OH264711   4.812   1.264  12.728 -0.3534 -0.7773 -0.5825
14407TIP3    H164712   4.823   1.306  12.814  1.3212 -0.6418 -0.8352
14407TIP3    H264713   4.743   1.199  12.742  0.0544 -0.9299  0.9417
14408TIP3   OH264714   2.024   5.396   4.922  0.6555 -0.0117  0.3168
14408TIP3    H164715   1.947   5.396   4.979 -0.3018 -2.3776 -0.8253
14408TIP3    H264716   2.039   5.488   4.901 -2.2194  0.5169  0.1920
14409TIP3   OH264717   1.642   5.364  15.424  0.5009 -0.3438 -0.3179
14409TIP3    H164718   1.644   5.349  15.519  1.0723 -3.6154 -0.7172
14409TIP3    H264719   1.731   5.345  15.396  0.0375 -0.6468 -1.6361
14410TIP3   OH264720   2.654   4.675   5.986 -0.6025 -0.2763 -0.2021
14410TIP3    H164721   2.731   4.717   6.025  0.1646 -1.0059 -0.8594
14410TIP3    H264722   2.583   4.738   5.997 -0.2650 -0.1756  1.7336
14411TIP3   OH264723   0.126   1.113  11.937 -0.1545  0.2216  1.0718
14411TIP3    H164724   0.137   1.184  11.999  0.4507 -1.0238  2.4473
14411TIP3    H264725   0.091   1.041  11.989 -0.7190 -0.5101 -0.2742
14412TIP3   OH264726   0.958   5.458  13.008  0.2017 -0.1783  0.2499
14412TIP3    H164727   1.015   5.519  12.962 -0.1039  1.2587  1.7017
14412TIP3    H264728   1.018   5.402  13.057  0.4331  0.6511  0.9459
14413TIP3   OH264729   2.669   3.190   3.374 -0.7053  0.3527  0.2903
14413TIP3    H164730   2.665   3.227   3.285 -1.9668 -0.3403  0.0391
14413TIP3    H264731   2.656   3.096   3.361 -2.0876  0.3825  1.2938
14414TIP3   OH264732   5.918   1.873  16.830  0.0738 -0.5041 -0.3163
14414TIP3    H164733   5.835   1.842  16.867 -1.0986  1.1824 -1.4085
14414TIP3    H264734   5.895   1.910  16.745  2.0157 -0.2705 -0.7985
14415TIP3   OH264735   3.928   6.721  16.459  0.1169 -0.0950 -0.0806
14415TIP3    H164736   4.010   6.769  16.447  0.9848 -1.2829  0.7746
14415TIP3    H264737   3.895   6.750  16.543  0.6818 -1.0134  0.4720
14416TIP3   OH264738   5.888   2.115  15.682  0.2246 -0.5122 -0.2154
14416TIP3    H164739   5.831   2.061  15.629  0.9322 -0.9021 -0.5962
14416TIP3    H264740   5.963   2.059  15.702  0.7271  0.1534 -0.1831
14417TIP3   OH264741   0.812   4.995  16.745  0.0594  0.0001  0.3192
14417TIP3    H164742   0.796   4.919  16.688  0.7530  0.2349 -0.2041
14417TIP3    H264743   0.843   5.063  16.685  1.0107  0.1893  1.0035
14418TIP3   OH264744   5.940   4.733   2.194 -0.2399  0.7654  0.2179
14418TIP3    H164745   5.911   4.822   2.174  0.0787  1.1520  1.3732
14418TIP3    H264746   5.877   4.701   2.258  0.6142  0.8108  1.1042
14419TIP3   OH264747   0.271   3.648   0.630  0.9714  0.1702 -0.1353
14419TIP3    H164748   0.203   3.678   0.690 -1.9284  0.7877 -3.4265
14419TIP3    H264749   0.266   3.553   0.635  0.5506  0.2098  0.3551
14420TIP3   OH264750   2.728   5.565   0.464 -0.4399  0.1023 -0.4513
14420TIP3    H164751   2.644   5.606   0.485 -0.1518  0.6546 -0.3359
14420TIP3    H264752   2.773   5.558   0.548 -0.2120  0.1830 -0.5646
14421TIP3   OH264753   1.859   2.556  16.496 -0.6988 -0.2917 -0.6584
14421TIP3    H164754   1.900   2.515  16.420 -2.4808 -1.3120 -1.1401
14421TIP3    H264755   1.831   2.482  16.551 -2.2647  0.3001 -0.6040
14422TIP3   OH264756   2.826   0.518  12.246  0.1495  0.0432  0.0107
14422TIP3    H164757   2.893   0.513  12.179  1.2349  0.6898  1.0067
14422TIP3    H264758   2.874   0.527  12.328 -1.0960 -1.9506  1.0399
14423TIP3   OH264759   2.890   6.659  17.249 -0.0096  0.0601 -0.1245
14423TIP3    H164760   2.983   6.658  17.269  0.1354 -1.1235 -0.7924
14423TIP3    H264761   2.850   6.707  17.322  1.0955  0.4583  0.2338
14424TIP3   OH264762   5.401   2.095   2.522 -0.0661 -0.3014  0.0012
14424TIP3    H164763   5.450   2.170   2.488  0.9737 -0.2336  1.5179
14424TIP3    H264764   5.414   2.100   2.617 -0.5520 -2.0047  0.1857
14425TIP3   OH264765   3.598   4.894   2.049 -0.0387  0.8514  0.0968
14425TIP3    H164766   3.622   4.963   1.986  0.1366 -0.9419 -1.9182
14425TIP3    H264767   3.599   4.813   1.997  0.8744 -0.8623  2.6112
14426TIP3   OH264768   6.433   6.692   2.372 -0.0931 -0.1176  0.4348
14426TIP3    H164769   6.413   6.746   2.448  0.8269  0.2917  0.4036
14426TIP3    H264770   6.501   6.633   2.402 -0.2139 -0.4208  0.1159
14427TIP3   OH264771   2.148   2.975   1.157 -0.1436 -0.2016  0.3642
14427TIP3    H164772   2.152   2.902   1.219  3.4720 -1.0770 -0.6585
14427TIP3    H264773   2.149   2.934   1.071 -0.6080  1.0640 -0.2827
14428TIP3   OH264774   4.259   4.224  13.194 -0.3367  0.6157 -0.1166
14428TIP3    H164775   4.177   4.204  13.149  0.4339 -0.9943 -0.8763
14428TIP3    H264776   4.262   4.162  13.266  0.1118  0.8273  0.0471
14429TIP3   OH264777   3.006   2.942  14.668 -0.3347  0.5694 -0.4353
14429TIP3    H164778   3.032   2.912  14.580  1.5910  0.3197  0.1584
14429TIP3    H264779   3.023   3.036  14.667 -2.6732  1.0467 -1.0618
14430TIP3   OH264780   2.643   1.565  14.829  0.5058  0.4063 -0.4882
14430TIP3    H164781   2.686   1.624  14.891 -0.3553 -0.4724  1.0108
14430TIP3    H264782   2.563   1.610  14.803  0.7765  0.6944 -0.8370
14431TIP3   OH264783   2.997   4.692  15.386 -0.5004  0.1693 -0.1683
14431TIP3    H164784   2.950   4.674  15.467 -0.9038  1.1899 -0.1623
14431TIP3    H264785   2.930   4.691  15.318 -0.0945 -1.1855 -0.5930
14432TIP3   OH264786   1.683   2.964  12.553 -0.4509 -0.0869 -0.0634
14432TIP3    H164787   1.775   2.992  12.547 -0.3274 -0.4933 -0.1281
14432TIP3    H264788   1.649   3.008  12.631 -0.0808 -0.2665  0.2019
14433TIP3   OH264789   2.780   4.070  11.655 -0.1950 -0.0248 -0.3033
14433TIP3    H164790   2.705   4.048  11.712  0.3204 -1.4005 -0.1105
14433TIP3    H264791   2.740   4.111  11.579 -0.9026  2.0205  1.0857
14434TIP3   OH264792   5.851   3.069  14.774  0.4653  0.4317  0.0346
14434TIP3    H164793   5.809   2.991  14.810  1.5950  0.4918  1.5811
14434TIP3    H264794   5.915   3.036  14.711  0.8563  0.1071  0.5960
14435TIP3   OH264795   5.245   1.907   2.017 -0.3986  0.5533 -0.5601
14435TIP3    H164796   5.165   1.921   2.066 -0.2993 -1.3869  0.2566
14435TIP3    H264797   5.216   1.876   1.931 -0.5309  1.8227 -0.9907
14436TIP3   OH264798   3.771   4.771  11.490 -0.4610  0.3047 -0.4682
14436TIP3    H164799   3.725   4.742  11.411 -2.6733 -0.0301  0.8423
14436TIP3    H264800   3.822   4.846  11.462 -1.9762  0.8215 -2.0425
14437TIP3   OH264801   5.561   4.955  14.854  0.1770 -0.5144 -0.1001
14437TIP3    H164802   5.614   4.905  14.916  0.6030  1.1924  0.9954
14437TIP3    H264803   5.471   4.929  14.874  0.2592  0.4138  1.6994
14438TIP3   OH264804   1.780   5.748   3.645  0.2952  0.2244  0.4005
14438TIP3    H164805   1.763   5.654   3.653 -0.0617  0.1152 -1.1748
14438TIP3    H264806   1.855   5.753   3.585 -1.2335  0.9604 -1.5701
14439TIP3   OH264807   2.596   2.005  15.161 -0.2226  0.2470  0.1508
14439TIP3    H164808   2.544   2.077  15.127 -0.6943  0.1500  0.6462
14439TIP3    H264809   2.543   1.970  15.233 -0.9787 -1.8921 -1.3315
14440TIP3   OH264810   2.404   4.174  14.006 -0.5718  0.0607  0.4035
14440TIP3    H164811   2.488   4.154  13.964 -0.6412 -0.4964  0.5209
14440TIP3    H264812   2.344   4.189  13.933  0.0150  2.2691  0.2876
14441TIP3   OH264813   1.740   2.924  15.927 -0.0641  0.0405  0.0934
14441TIP3    H164814   1.733   3.017  15.906 -0.0835  0.1701  0.6802
14441TIP3    H264815   1.654   2.901  15.962  0.7465  0.4332  2.4805
14442TIP3   OH264816   3.074   5.751  11.829  0.2378  0.0787 -0.6214
14442TIP3    H164817   3.053   5.717  11.742 -0.7109  1.0422 -0.7892
14442TIP3    H264818   3.045   5.842  11.827 -2.0270 -0.4910  1.4297
14443TIP3   OH264819   6.160   3.538  12.452 -0.3596  0.2185  0.2382
14443TIP3    H164820   6.244   3.494  12.439 -1.7590 -2.7133  0.2058
14443TIP3    H264821   6.174   3.627  12.421  2.9663  0.1228  1.0959
14444TIP3   OH264822   5.790   6.804  17.270  0.0563  0.5069 -0.0077
14444TIP3    H164823   5.698   6.829  17.279  0.1454  0.9760 -0.3601
14444TIP3    H264824   5.795   6.717  17.310 -0.3765  0.8060  0.7172
14445TIP3   OH264825   6.056   0.851  13.541  0.0105  0.7965 -0.3280
14445TIP3    H164826   5.971   0.818  13.511  0.5042 -0.3190 -0.5257
14445TIP3    H264827   6.053   0.839  13.636  0.9711 -1.8509 -0.5485
14446TIP3   OH264828   3.755   0.581   4.981  0.3578 -0.0148  0.0447
14446TIP3    H164829   3.689   0.589   5.050 -0.3030 -0.4652 -0.5229
14446TIP3    H264830   3.773   0.488   4.975  0.5302  0.0382 -0.2809
14447TIP3   OH264831   3.460   5.769   0.991 -0.2252 -0.0371  0.4504
14447TIP3    H164832   3.534   5.798   1.045  0.0107 -1.2253  0.7910
14447TIP3    H264833   3.466   5.674   0.991 -1.5825 -0.1415  0.2249
14448TIP3   OH264834   4.180   2.917  13.207 -0.0631  0.0908 -0.5259
14448TIP3    H164835   4.156   2.866  13.285 -1.9016 -0.1617 -1.2169
14448TIP3    H264836   4.276   2.923  13.212  0.2209 -2.9434 -0.0880
14449TIP3   OH264837   0.387   4.761   5.964  0.6115 -0.3311  0.0905
14449TIP3    H164838   0.344   4.843   5.988 -1.1238 -1.4282  0.8405
14449TIP3    H264839   0.345   4.734   5.883 -0.7716 -1.8142  1.2353
14450TIP3   OH264840   1.252   0.689   5.021  0.4992  0.7902 -0.3588
14450TIP3    H164841   1.333   0.664   4.976 -0.0496  0.2479 -1.0626
14450TIP3    H264842   1.182   0.646   4.971 -0.4638  3.2610 -1.3042
14451TIP3   OH264843   6.657   0.719  16.063  0.2607  0.1424 -0.0385
14451TIP3    H164844   6.583   0.689  16.117 -0.0041  0.8653  0.0151
14451TIP3    H264845   6.715   0.643  16.058 -0.2742 -0.3003  0.2891
14452TIP3   OH264846   3.080   2.427  11.449 -0.0520  0.1858  0.4033
14452TIP3    H164847   3.054   2.435  11.357 -0.7085  0.2495  0.5891
14452TIP3    H264848   3.170   2.461  11.452  0.4224 -0.9595 -0.4294
14453TIP3   OH264849   6.100   2.567  15.221 -0.0879 -0.4534  0.1407
14453TIP3    H164850   6.082   2.653  15.258  0.8038 -0.5311  0.7863
14453TIP3    H264851   6.014   2.532  15.197 -0.3393  1.4371 -2.0608
14454TIP3   OH264852   1.087   1.490  10.721 -0.6238  0.8523 -0.0323
14454TIP3    H164853   1.058   1.540  10.644 -0.6648 -0.1864 -0.7098
14454TIP3    H264854   1.007   1.447  10.752 -0.0159 -1.4694 -1.4915
14455TIP3   OH264855   5.003   2.927   3.570  0.0451  0.1621 -0.0541
14455TIP3    H164856   5.017   2.886   3.655  1.0496 -0.5618 -0.5467
14455TIP3    H264857   5.063   3.001   3.568 -0.3418  0.4822  0.0579
14456TIP3   OH264858   6.722   6.331   0.771  0.8906  0.3651 -0.7681
14456TIP3    H164859   6.762   6.245   0.757 -1.2176 -1.0870  1.3092
14456TIP3    H264860   6.777   6.373   0.837  2.1131  0.7971 -2.0263
14457TIP3   OH264861   6.479   1.915  13.174  0.2353  0.0372  0.0158
14457TIP3    H164862   6.479   1.876  13.261  4.2092 -0.2101  0.1162
14457TIP3    H264863   6.486   2.009  13.189  2.0827 -0.0729  0.0841
14458TIP3   OH264864   4.548   4.553  13.009 -0.6281  0.0005  0.4992
14458TIP3    H164865   4.553   4.572  13.102 -0.4214 -2.1306  0.9794
14458TIP3    H264866   4.455   4.542  12.991 -0.5727 -1.1058  0.8232
14459TIP3   OH264867   4.132   2.049   4.099 -0.0381 -0.0831 -0.2366
14459TIP3    H164868   4.154   2.092   4.016  0.1653 -0.4307 -0.3658
14459TIP3    H264869   4.039   2.027   4.091 -0.0916  0.1492 -0.2521
14460TIP3   OH264870   6.149   3.388   0.463 -0.9432 -0.0241 -0.2488
14460TIP3    H164871   6.154   3.387   0.367  0.9029 -0.4850 -0.1794
14460TIP3    H264872   6.118   3.476   0.485  0.9756  0.9342 -1.2061
14461TIP3   OH264873   0.991   5.561  16.435 -0.7518  0.4881 -0.6627
14461TIP3    H164874   0.987   5.471  16.402 -2.0252 -0.3482  1.5696
14461TIP3    H264875   0.908   5.601  16.407 -1.2933  0.1614  0.4532
14462TIP3   OH264876   2.901   0.715   2.166 -0.0232  0.0346 -0.3772
14462TIP3    H164877   2.879   0.770   2.091 -0.9294  0.5093  0.2206
14462TIP3    H264878   2.928   0.776   2.234  1.4788 -0.4346 -0.5129
14463TIP3   OH264879   4.042   3.415  11.139 -1.3749  0.0253 -0.0422
14463TIP3    H164880   3.976   3.468  11.096 -1.5725  0.4234  0.7368
14463TIP3    H264881   4.036   3.439  11.232 -0.9160 -0.7587  0.2041
14464TIP3   OH264882   5.614   5.128  12.862 -0.3973  0.2376  0.1853
14464TIP3    H164883   5.693   5.095  12.819 -0.0288 -1.3242  1.9234
14464TIP3    H264884   5.555   5.053  12.865  0.2487 -0.3237  3.7898
14465TIP3   OH264885   0.049   5.566   3.396 -0.2507  0.0344 -0.0991
14465TIP3    H164886   0.085   5.645   3.356 -0.7284  0.0390 -0.5359
14465TIP3    H264887   0.016   5.594   3.481 -1.2899  0.5320 -0.6419
14466TIP3   OH264888   0.278   0.859  17.199  0.0488 -0.8249  0.5277
14466TIP3    H164889   0.248   0.941  17.240  0.1335 -0.4094 -0.2196
14466TIP3    H264890   0.200   0.826  17.154 -0.0295 -1.2520  0.9695
14467TIP3   OH264891   1.708   6.274  12.360  0.2613  0.6559  0.1873
14467TIP3    H164892   1.717   6.242  12.270  1.6522 -0.4887  0.6956
14467TIP3    H264893   1.642   6.217  12.400  0.1367  0.7283  0.0848
14468TIP3   OH264894   4.828   3.098  16.453  0.3957 -0.4117  0.1134
14468TIP3    H164895   4.869   3.182  16.431  2.6117 -1.7463 -1.3450
14468TIP3    H264896   4.798   3.108  16.543  1.2544  1.6910  0.2257
14469TIP3   OH264897   4.508   1.604  12.287 -0.3111 -0.2347  0.6812
14469TIP3    H164898   4.560   1.662  12.232  2.2811  0.3939  3.5591
14469TIP3    H264899   4.501   1.522  12.237  0.6217  0.7534 -1.1445
14470TIP3   OH264900   4.777   1.023   0.034 -0.2633 -0.6186 -0.1667
14470TIP3    H164901   4.781   1.006  -0.060  0.3011 -1.1454 -0.0501
14470TIP3    H264902   4.738   0.944   0.071 -0.6788 -0.3298  0.0272
14471TIP3   OH264903   5.297   2.241  16.469  0.4573  0.1569  0.4952
14471TIP3    H164904   5.314   2.149  16.487 -0.6698 -0.2212 -0.2747
14471TIP3    H264905   5.251   2.242  16.385 -2.2913  1.1109  1.8677
14472TIP3   OH264906   4.782   1.385  11.994  0.0228  0.2002 -0.4299
14472TIP3    H164907   4.809   1.444  12.065  1.5148  2.5170 -2.7668
14472TIP3    H264908   4.806   1.297  12.027 -0.8443  0.9408  2.5281
14473TIP3   OH264909   1.206   2.679  17.178 -0.2791 -0.0878 -0.3173
14473TIP3    H164910   1.214   2.680  17.274  0.7597 -1.4118 -0.3584
14473TIP3    H264911   1.209   2.586  17.155 -0.7150  0.2072 -1.6341
14474TIP3   OH264912   1.484   3.322  13.129  0.2168 -0.5430 -0.8909
14474TIP3    H164913   1.479   3.328  13.034 -1.1551 -1.6813 -0.9220
14474TIP3    H264914   1.576   3.340  13.150  0.6747 -0.9147 -2.4853
14475TIP3   OH264915   3.550   3.338  13.094 -0.4349 -0.3729 -0.2041
14475TIP3    H164916   3.507   3.252  13.101  0.0842 -0.6376 -0.1923
14475TIP3    H264917   3.486   3.394  13.051 -1.1850 -0.4890  0.7265
14476TIP3   OH264918   2.139   1.069  11.074  0.4503  0.1607  0.2005
14476TIP3    H164919   2.079   1.020  11.131 -0.5501  2.6215  1.3948
14476TIP3    H264920   2.210   1.007  11.056 -0.8620 -1.8092  1.3753
14477TIP3   OH264921   3.927   5.285   4.705 -0.2141 -0.2916  0.1700
14477TIP3    H164922   3.953   5.307   4.794 -0.4467 -1.1903  0.4621
14477TIP3    H264923   4.002   5.312   4.651 -0.4390  1.1181  0.5069
14478TIP3   OH264924   4.632   4.413  10.638  0.3622  0.4265 -0.0730
14478TIP3    H164925   4.683   4.338  10.607 -1.4425 -0.8948  0.0271
14478TIP3    H264926   4.563   4.424  10.573 -1.5475 -0.3420  1.7120
14479TIP3   OH264927   3.711   3.811   0.307  0.2095  0.8283  0.2130
14479TIP3    H164928   3.664   3.771   0.234  0.3867  0.4523  0.2987
14479TIP3    H264929   3.801   3.779   0.297  0.1642  0.5070  0.7793
14480TIP3   OH264930   3.408   2.506  15.708 -0.1513  0.1823 -0.0667
14480TIP3    H164931   3.464   2.571  15.751  0.4284  0.1624 -0.7691
14480TIP3    H264932   3.324   2.514  15.752  0.9952 -1.4109  2.6430
14481TIP3   OH264933   3.548   5.374   4.141 -1.0889  0.4238  0.1806
14481TIP3    H164934   3.549   5.316   4.217 -1.7550  1.5286  1.0712
14481TIP3    H264935   3.633   5.418   4.143 -2.1080  2.5294  2.0226
14482TIP3   OH264936   2.653   3.181   2.633  0.2418  0.4404 -0.2443
14482TIP3    H164937   2.732   3.139   2.599  0.1974  0.3866 -0.2817
14482TIP3    H264938   2.648   3.152   2.724  0.7567  1.1654  0.0240
14483TIP3   OH264939   6.230   1.750   3.134 -0.1374  0.2377  0.0857
14483TIP3    H164940   6.295   1.792   3.189 -0.6499 -1.2050  1.8844
14483TIP3    H264941   6.250   1.656   3.139 -1.8974 -0.1823  0.1311
14484TIP3   OH264942   2.728   5.482  12.822 -0.2724  0.2657 -0.7756
14484TIP3    H164943   2.685   5.407  12.866 -1.5173  1.7402  0.6637
14484TIP3    H264944   2.821   5.461  12.824 -0.3546 -0.1854  1.8455
14485TIP3   OH264945   6.425   0.387   1.885 -0.4404 -0.2218 -0.3226
14485TIP3    H164946   6.488   0.448   1.848 -0.0853 -0.3100  0.1182
14485TIP3    H264947   6.366   0.442   1.937 -0.8799 -0.1105 -0.9222
14486TIP3   OH264948   2.525   2.269   2.727 -0.3857 -0.1104 -0.3590
14486TIP3    H164949   2.509   2.266   2.822  0.8050  0.6640 -0.1132
14486TIP3    H264950   2.599   2.211   2.714 -1.4544 -1.3664 -1.0543
14487TIP3   OH264951   6.539   3.378   5.114  0.1201  0.0153  0.7619
14487TIP3    H164952   6.476   3.389   5.185 -0.1939 -2.1242  0.8836
14487TIP3    H264953   6.572   3.289   5.125  0.1638 -0.3361 -1.7022
14488TIP3   OH264954   2.292   0.871   3.328 -0.3670  0.2794  0.6405
14488TIP3    H164955   2.358   0.806   3.350 -0.7762  0.1431  1.5121
14488TIP3    H264956   2.212   0.821   3.314 -1.1991  0.6987  3.3817
14489TIP3   OH264957   1.104   0.297   0.048  0.0931 -0.2596  1.0139
14489TIP3    H164958   1.035   0.346   0.004 -0.1623 -0.8097  0.7960
14489TIP3    H264959   1.058   0.233   0.102  0.4270 -0.7539  0.7243
14490TIP3   OH264960   0.874   1.521   1.959 -0.0310 -0.4127 -0.3617
14490TIP3    H164961   0.897   1.586   2.025  0.6279 -2.3914  1.4693
14490TIP3    H264962   0.956   1.500   1.916  0.0989 -1.3653  0.3403
14491TIP3   OH264963   6.203   0.449  12.038  0.1729 -0.1139  0.2388
14491TIP3    H164964   6.186   0.411  12.124  0.6772 -0.7286  0.0737
14491TIP3    H264965   6.288   0.414  12.012 -0.1347 -0.2207 -0.6719
14492TIP3   OH264966   5.530   1.392  15.616  0.1952  0.9684  0.6736
14492TIP3    H164967   5.435   1.393  15.618  0.1990  0.9844  1.5519
14492TIP3    H264968   5.553   1.396  15.523 -0.6558  0.3789  0.4308
14493TIP3   OH264969   5.338   1.060  13.659 -0.3905 -0.1298 -0.3800
14493TIP3    H164970   5.356   0.970  13.633  2.4339  0.3565 -0.4780
14493TIP3    H264971   5.343   1.058  13.755  0.0431 -0.0555 -0.3952
14494TIP3   OH264972   2.778   4.256   5.701  0.0264  0.0488  0.2223
14494TIP3    H164973   2.684   4.243   5.695  0.1405 -1.2688  1.0215
14494TIP3    H264974   2.812   4.224   5.618 -0.0858 -1.0979  0.6027
14495TIP3   OH264975   1.326   2.458   0.193 -0.5350  0.0309 -0.1906
14495TIP3    H164976   1.418   2.443   0.214  0.4236 -0.2806 -3.9692
14495TIP3    H264977   1.323   2.549   0.164 -1.3048 -0.0900 -0.5201
14496TIP3   OH264978   3.262   1.061  11.346 -0.4336  0.5571  0.8756
14496TIP3    H164979   3.249   1.019  11.431 -2.6666 -0.4471  0.1009
14496TIP3    H264980   3.302   0.993  11.291 -1.7220  0.2112  0.3300
14497TIP3   OH264981   4.355   0.649   4.102  0.3970  0.2883 -0.4299
14497TIP3    H164982   4.389   0.708   4.169 -0.5367 -0.5762  0.8412
14497TIP3    H264983   4.288   0.699   4.057  1.9568  1.3546 -1.6998
14498TIP3   OH264984   4.401   1.314   3.742  0.2187 -0.4806 -0.0053
14498TIP3    H164985   4.373   1.267   3.821  2.1322 -0.6415  0.6067
14498TIP3    H264986   4.461   1.255   3.697  0.9970  0.5224 -0.3394
14499TIP3   OH264987   5.678   1.389  14.424 -0.2880  0.6310 -0.1999
14499TIP3    H164988   5.738   1.444  14.474  1.7142 -2.4034  1.0741
14499TIP3    H264989   5.705   1.400  14.333 -0.0263  1.7944  0.0029
14500TIP3   OH264990   3.289   4.342  10.982 -0.4444 -0.6306 -0.1958
14500TIP3    H164991   3.252   4.357  11.068  0.2472  3.9282 -0.4737
14500TIP3    H264992   3.216   4.351  10.922 -0.3653 -0.5380 -0.2792
14501TIP3   OH264993   6.715   0.393  14.632 -0.0076 -0.4507  0.1449
14501TIP3    H164994   6.702   0.301  14.654 -1.0178 -0.2849  0.3133
14501TIP3    H264995   6.783   0.423  14.693  0.3258 -1.0750  0.0870
14502TIP3   OH264996   6.151   5.848   4.431 -0.4199  0.3180 -0.1775
14502TIP3    H164997   6.133   5.826   4.522 -1.2585 -0.7939 -0.5899
14502TIP3    H264998   6.183   5.939   4.434 -0.4313  0.2985  1.2070
14503TIP3   OH264999   2.465   6.302   2.175 -0.6697  0.4517 -0.0880
14503TIP3    H165000   2.558   6.320   2.188 -0.8249  0.7861  0.6528
14503TIP3    H265001   2.431   6.286   2.263 -0.6868 -3.0541 -0.5985
14504TIP3   OH265002   2.866   4.663  16.536 -0.1250  0.5869 -0.1803
14504TIP3    H165003   2.805   4.729  16.567  0.4983  1.0737  0.0375
14504TIP3    H265004   2.899   4.698  16.453  0.3064  0.6201  0.0017
14505TIP3   OH265005   0.929   6.088  12.651 -0.3386 -0.1484  0.4049
14505TIP3    H165006   0.865   6.080  12.721  0.2077 -3.1464  0.6988
14505TIP3    H265007   1.010   6.113  12.695 -0.8026  1.7440  0.2745
14506TIP3   OH265008   2.282   3.945  14.714 -0.4744 -0.1117  0.2168
14506TIP3    H165009   2.214   3.880  14.698  1.2891 -1.8857 -0.5143
14506TIP3    H265010   2.270   3.971  14.805 -0.1955 -2.8251  1.1201
14507TIP3   OH265011   0.492   3.666  16.662  0.0564  0.8651  0.5922
14507TIP3    H165012   0.523   3.714  16.585 -3.4881  1.3390 -0.7344
14507TIP3    H265013   0.546   3.587  16.664  1.2709  1.5625 -1.4740
14508TIP3   OH265014   1.345   6.033   6.516  0.5263  0.2387  0.1558
14508TIP3    H165015   1.250   6.032   6.519  0.3289 -0.2766 -2.8006
14508TIP3    H265016   1.372   5.945   6.541 -0.0034 -0.4188 -1.4368
14509TIP3   OH265017   4.266   3.876  11.582 -0.0067  0.0429 -0.1727
14509TIP3    H165018   4.203   3.900  11.650 -0.3772 -2.7896  0.6285
14509TIP3    H265019   4.344   3.847  11.629  1.2991  1.8226 -1.1193
14510TIP3   OH265020   2.117   4.870  15.608 -0.3168  0.3837 -0.3898
14510TIP3    H165021   2.069   4.909  15.681  0.8039  0.3657  0.3937
14510TIP3    H265022   2.079   4.909  15.530  0.5518  2.8829  0.3394
14511TIP3   OH265023   6.713   6.625  16.857  0.0261  0.6537 -0.7345
14511TIP3    H165024   6.790   6.673  16.826 -0.0866  1.1752 -0.2231
14511TIP3    H265025   6.667   6.687  16.912 -0.1295 -0.0477 -0.0581
14512TIP3   OH265026   4.461   3.383   2.253  0.1464  0.0695  0.0644
14512TIP3    H165027   4.537   3.440   2.261  0.2098  0.1476 -1.0489
14512TIP3    H265028   4.451   3.367   2.159 -0.7643 -0.5454  0.2453
14513TIP3   OH265029   2.809   3.169   4.406  0.3229  0.0146 -0.4042
14513TIP3    H165030   2.870   3.195   4.337 -0.8673  1.5333 -0.9502
14513TIP3    H265031   2.722   3.184   4.368 -0.3660  1.0121  1.4447
14514TIP3   OH265032   5.154   3.028  15.343  0.0698  0.0131 -0.1486
14514TIP3    H165033   5.114   3.041  15.257  0.5660 -1.9688 -0.7231
14514TIP3    H265034   5.093   2.972  15.390  0.5574 -0.2127  0.2197
14515TIP3   OH265035   0.614   0.751  16.854 -0.5100 -0.0529 -0.0121
14515TIP3    H165036   0.527   0.750  16.894 -1.2339 -0.3718 -1.5327
14515TIP3    H265037   0.607   0.692  16.779  0.4461  1.3950 -1.3098
14516TIP3   OH265038   1.465   4.970  10.503 -0.8545  1.0236 -1.4993
14516TIP3    H165039   1.540   5.025  10.522 -0.9084  0.9496 -1.0450
14516TIP3    H265040   1.502   4.885  10.479 -0.7677  1.2836 -2.3180
14517TIP3   OH265041   5.995   5.367  16.801 -0.1307  0.8569  0.5809
14517TIP3    H165042   5.900   5.366  16.798 -0.3187 -3.8399  0.0487
14517TIP3    H265043   6.016   5.388  16.892 -1.4732  3.6633  0.3274
14518TIP3   OH265044   2.875   0.188   4.373  0.1747 -0.1124 -0.4237
14518TIP3    H165045   2.927   0.266   4.351  0.7852 -0.2356  0.5545
14518TIP3    H265046   2.936   0.115   4.362 -0.3431 -0.4509 -1.1442
14519TIP3   OH265047   5.102   4.214   5.936 -0.0096 -0.2485 -0.0179
14519TIP3    H165048   5.022   4.262   5.916 -0.4437 -1.1506 -0.4972
14519TIP3    H265049   5.126   4.173   5.852  1.5805  0.9200 -0.1800
14520TIP3   OH265050   1.102   6.070   2.826  0.0344  0.0536  0.3143
14520TIP3    H165051   1.118   6.109   2.740  0.4086  1.8535  1.1536
14520TIP3    H265052   1.033   6.006   2.811  0.8785 -0.4788 -1.5252
14521TIP3   OH265053   4.555   5.669   2.056 -0.2464  0.7114 -0.2425
14521TIP3    H165054   4.626   5.729   2.077  1.0135 -0.1275 -1.9180
14521TIP3    H265055   4.554   5.665   1.960 -0.1583 -2.0371 -0.2132
14522TIP3   OH265056   5.817   0.914  16.439 -0.0070  0.8063  0.1634
14522TIP3    H165057   5.842   0.879  16.353  1.7389  1.9285  0.1773
14522TIP3    H265058   5.873   0.867  16.501 -3.4134 -2.4049  1.2195
14523TIP3   OH265059   1.123   4.244   5.216 -0.7581  0.2153 -0.0031
14523TIP3    H165060   1.148   4.313   5.155 -0.8815 -0.6256 -1.0356
14523TIP3    H265061   1.128   4.163   5.164 -1.1167 -0.4941  1.0314
14524TIP3   OH265062   4.919   3.983  12.720  0.4234 -0.3532  0.2371
14524TIP3    H165063   4.886   4.073  12.713 -0.4460 -0.7715 -1.8393
14524TIP3    H265064   4.871   3.945  12.793  0.1842  0.6181  0.5968
14525TIP3   OH265065   0.801   0.970   5.676 -0.8169  0.3305  0.4164
14525TIP3    H165066   0.756   0.924   5.747 -0.4147  0.2004  0.5914
14525TIP3    H265067   0.880   1.006   5.717  0.3414 -1.2284 -0.3158
14526TIP3   OH265068   1.285   2.721   0.158 -0.2274 -0.1011  0.3766
14526TIP3    H165069   1.254   2.704   0.247  0.3890 -1.1949  0.3955
14526TIP3    H265070   1.272   2.815   0.146 -1.2674 -0.1173  1.2481
14527TIP3   OH265071   5.240   3.786   4.523  0.4122 -0.0859 -0.7587
14527TIP3    H165072   5.298   3.794   4.447  1.5459  0.5099  0.1450
14527TIP3    H265073   5.153   3.769   4.485  0.8517  0.7497 -2.2123
14528TIP3   OH265074   1.801   3.290  12.660 -0.5966  0.5327  0.5250
14528TIP3    H165075   1.845   3.236  12.726  1.7736  1.4902 -0.1279
14528TIP3    H265076   1.819   3.246  12.577 -0.5824  1.1216  0.2068
14529TIP3   OH265077   0.855   3.869  12.936  0.0495 -0.5487  0.3564
14529TIP3    H165078   0.894   3.786  12.960  5.1356  1.2660 -0.3686
14529TIP3    H265079   0.869   3.876  12.841 -1.6475  0.5607  0.1303
14530TIP3   OH265080   5.286   0.919  11.383 -0.0575 -0.0218 -0.1370
14530TIP3    H165081   5.197   0.910  11.349 -0.2379 -0.7952  0.4997
14530TIP3    H265082   5.280   0.891  11.474  0.4007  2.0491  0.5849
14531TIP3   OH265083   6.038   3.426  11.710  0.2646  0.5893 -0.5946
14531TIP3    H165084   5.990   3.505  11.736  1.1128  0.9855 -0.2107
14531TIP3    H265085   6.125   3.458  11.687  1.5747 -0.5354  2.3092
14532TIP3   OH265086   5.825   5.843  16.077  0.0360 -0.0876  0.2580
14532TIP3    H165087   5.809   5.828  15.984 -0.1805  0.3819  0.2190
14532TIP3    H265088   5.906   5.893  16.080  0.8189 -1.3113  0.3917
14533TIP3   OH265089   0.986   6.251   1.166 -0.3806  0.0807  0.6283
14533TIP3    H165090   1.057   6.195   1.133  0.0630 -0.1537  1.9347
14533TIP3    H265091   0.971   6.314   1.096  0.0437 -0.8309 -0.3188
14534TIP3   OH265092   6.773   0.671   5.153 -0.8062 -0.1762 -0.3849
14534TIP3    H165093   6.699   0.726   5.130 -1.0185  0.2195  1.1191
14534TIP3    H265094   6.803   0.705   5.237  0.1750 -1.2429 -0.2718
14535TIP3   OH265095   6.491   4.305   0.732 -0.1193 -0.5208 -0.2953
14535TIP3    H165096   6.400   4.304   0.762 -0.1157  0.6547 -0.2050
14535TIP3    H265097   6.539   4.256   0.798 -0.2354  1.3615  1.2926
14536TIP3   OH265098   6.606   6.184  12.400 -0.1064 -0.3013 -0.6972
14536TIP3    H165099   6.567   6.248  12.341 -0.6295  0.0320  0.0016
14536TIP3    H265100   6.576   6.100  12.367  0.3497 -0.1847 -1.4479
14537TIP3   OH265101   1.351   3.411   1.611 -0.8781 -0.1497 -0.3459
14537TIP3    H165102   1.420   3.422   1.546 -0.9627  0.5871 -0.3223
14537TIP3    H265103   1.385   3.454   1.690 -0.3378 -1.9155  0.4469
14538TIP3   OH265104   0.035   3.410   2.286 -0.1253 -0.5601  0.3929
14538TIP3    H165105   0.075   3.329   2.255  1.4570  0.1311  0.5642
14538TIP3    H265106   0.102   3.451   2.341 -1.6370 -0.1319  2.0426
14539TIP3   OH265107   2.995   6.549  14.145  0.3676  0.0557 -0.6119
14539TIP3    H165108   3.089   6.542  14.164  0.1341 -0.8940  0.2671
14539TIP3    H265109   2.985   6.636  14.108  1.3221  0.8753  0.9442
14540TIP3   OH265110   5.304   6.788  14.540 -0.7923 -0.3391  0.2173
14540TIP3    H165111   5.222   6.835  14.555 -0.1626  0.8695  0.0043
14540TIP3    H265112   5.280   6.717  14.479 -1.7711 -0.3413  0.5877
14541TIP3   OH265113   6.721   1.491   0.243  0.3410 -0.3161 -0.0013
14541TIP3    H165114   6.771   1.441   0.308  0.1826  0.2489  0.5619
14541TIP3    H265115   6.731   1.582   0.270 -2.4053 -0.2561  1.1700
14542TIP3   OH265116   4.422   4.889  11.430  0.6299 -0.3914 -0.2488
14542TIP3    H165117   4.397   4.850  11.346  0.7034 -0.2162 -0.3518
14542TIP3    H265118   4.341   4.929  11.462  0.7880  0.2422 -0.6202
14543TIP3   OH265119   2.408   4.928   0.968 -0.4095 -0.0500 -0.2316
14543TIP3    H165120   2.440   4.957   0.883  2.1464  1.1369  1.0264
14543TIP3    H265121   2.439   4.838   0.976  0.7911  0.3615  0.0434
14544TIP3   OH265122   0.615   6.710   0.384  0.3889  0.5174 -0.3842
14544TIP3    H165123   0.621   6.616   0.400  0.5135  0.7923  1.4074
14544TIP3    H265124   0.610   6.718   0.289 -0.2578 -1.3247 -0.5434
14545TIP3   OH265125   5.153   0.292   4.940  0.0123 -0.4690 -0.2445
14545TIP3    H165126   5.081   0.265   4.883 -0.0071  1.1741 -1.0649
14545TIP3    H265127   5.195   0.210   4.966 -2.1633 -1.4792  0.3073
14546TIP3   OH265128   2.891   4.128  14.233 -0.2914  0.5696  0.4932
14546TIP3    H165129   2.883   4.210  14.185 -0.3650  0.3348  0.1018
14546TIP3    H265130   2.801   4.100  14.249 -0.2675  0.6651  0.7985
14547TIP3   OH265131   2.356   0.399  11.523  0.1051  0.5805 -0.0510
14547TIP3    H165132   2.278   0.357  11.487  0.8594 -1.2902  0.3513
14547TIP3    H265133   2.421   0.392  11.453  0.8784 -0.9428  0.7700
14548TIP3   OH265134   2.202   3.334  10.502  0.0256 -0.3062 -1.0228
14548TIP3    H165135   2.179   3.260  10.557 -0.2555  0.6201  0.1496
14548TIP3    H265136   2.134   3.399  10.519  1.2330  0.9133 -0.6078
14549TIP3   OH265137   1.787   1.335   6.459 -0.1719  0.2330  0.3792
14549TIP3    H165138   1.863   1.363   6.408 -0.9008 -1.8971 -2.0718
14549TIP3    H265139   1.715   1.390   6.427  0.0552  1.6285  2.0668
14550TIP3   OH265140   5.586   5.695  14.394  0.5817 -0.7769  0.0096
14550TIP3    H165141   5.630   5.646  14.324  0.1060  0.0473 -0.8825
14550TIP3    H265142   5.526   5.631  14.432 -1.7967 -0.3394 -2.7110
14551TIP3   OH265143   4.744   4.746  15.689  0.6160 -0.2939 -0.4856
14551TIP3    H165144   4.712   4.682  15.752  2.7568 -0.4205  0.5649
14551TIP3    H265145   4.730   4.831  15.732  1.0343 -0.3116 -0.3034
14552TIP3   OH265146   1.846   3.816  12.818 -0.0135  0.6292 -0.0058
14552TIP3    H165147   1.875   3.865  12.741 -1.9371  1.3280 -0.3261
14552TIP3    H265148   1.822   3.730  12.784  1.6271  0.0290  0.2690
14553TIP3   OH265149   0.696   3.450   1.133 -0.1610 -0.1007  0.3534
14553TIP3    H165150   0.783   3.435   1.170 -1.6579 -0.8197  3.9643
14553TIP3    H265151   0.683   3.378   1.072  1.8233  0.1966 -0.5175
14554TIP3   OH265152   5.981   1.104  14.689 -0.3123  0.8663  0.1205
14554TIP3    H165153   5.912   1.170  14.700 -0.8344 -0.0444  3.0607
14554TIP3    H265154   5.936   1.030  14.650 -0.0711  1.5908 -1.6484
14555TIP3   OH265155   1.904   2.803   4.572  0.7247 -0.0945 -0.1006
14555TIP3    H165156   1.975   2.867   4.574  0.7848 -0.0109 -2.4054
14555TIP3    H265157   1.914   2.757   4.489 -3.3510  1.7165 -1.9041
14556TIP3   OH265158   3.450   4.173  12.717  0.4202  0.5134 -0.2372
14556TIP3    H165159   3.422   4.234  12.786  0.0528  0.4552 -0.3307
14556TIP3    H265160   3.544   4.186  12.711  0.5169  0.2335  0.5476
14557TIP3   OH265161   1.396   1.596  13.299 -0.0602 -0.2245 -0.1424
14557TIP3    H165162   1.410   1.590  13.393  0.6562 -0.6533 -0.2668
14557TIP3    H265163   1.410   1.507  13.267  1.6546  0.2642 -0.8876
14558TIP3   OH265164   4.855   2.732   4.847  0.0701  0.1291  0.3185
14558TIP3    H165165   4.834   2.758   4.757 -0.3283  0.3276  0.4680
14558TIP3    H265166   4.912   2.802   4.879 -0.9231  0.7918  0.6878
14559TIP3   OH265167   1.375   4.628  13.269 -0.1128  0.2725  0.3028
14559TIP3    H165168   1.455   4.575  13.256 -1.1622 -1.5083  0.7324
14559TIP3    H265169   1.403   4.718  13.254  1.9197 -0.3339  0.1563
14560TIP3   OH265170   3.288   0.781   3.670 -0.2107  0.3368 -0.0293
14560TIP3    H165171   3.241   0.729   3.604  0.4255  0.4035 -0.5455
14560TIP3    H265172   3.219   0.833   3.712 -0.5865  0.5586 -0.8953
14561TIP3   OH265173   6.173   5.559   2.227  0.4029 -0.2174 -0.7197
14561TIP3    H165174   6.106   5.572   2.160 -0.2709 -2.8220 -0.6758
14561TIP3    H265175   6.138   5.490   2.283  1.4825  1.0107  1.6443
14562TIP3   OH265176   0.264   2.652   2.779 -0.5857  0.1962  0.2863
14562TIP3    H165177   0.181   2.611   2.805 -2.0553  1.4101 -2.1150
14562TIP3    H265178   0.261   2.652   2.683  1.4731  1.7488  0.1645
14563TIP3   OH265179   5.756   2.875   2.928  0.2157  0.5043  0.1755
14563TIP3    H165180   5.661   2.882   2.939  0.0918  3.8588 -1.5845
14563TIP3    H265181   5.767   2.800   2.870 -1.1990 -0.7774  1.4812
14564TIP3   OH265182   5.971   6.688   4.980 -0.2309  0.0276  0.3516
14564TIP3    H165183   6.039   6.662   4.917  1.0415  0.5216  1.4674
14564TIP3    H265184   5.913   6.745   4.929  1.3659  1.2852 -0.1893
14565TIP3   OH265185   1.180   1.458  14.161  0.0062  0.0602  0.8068
14565TIP3    H165186   1.184   1.424  14.251  2.7085  0.7534  1.0445
14565TIP3    H265187   1.199   1.382  14.106 -0.4840 -0.1272  0.8930
14566TIP3   OH265188   5.304   0.997   2.774 -0.0033 -0.2178 -0.2345
14566TIP3    H165189   5.219   1.038   2.758 -0.3535 -0.3065  1.2657
14566TIP3    H265190   5.315   0.936   2.701  1.1381  3.3349 -3.3319
14567TIP3   OH265191   3.353   4.695  13.882 -0.0452 -0.3483 -0.1679
14567TIP3    H165192   3.299   4.696  13.803  0.1691 -0.3812 -0.3159
14567TIP3    H265193   3.416   4.623  13.867  0.5233  0.1700 -0.3252
14568TIP3   OH265194   1.939   2.443  16.267 -0.1273 -0.1112  0.1002
14568TIP3    H165195   1.985   2.360  16.254  1.2962  1.0254 -3.4060
14568TIP3    H265196   1.866   2.440  16.205  0.3240  1.4326 -0.5779
14569TIP3   OH265197   3.632   1.577  14.111  0.6260 -0.2062 -0.4754
14569TIP3    H165198   3.676   1.531  14.039 -0.2565 -3.0410  0.6409
14569TIP3    H265199   3.701   1.629  14.152  1.3469  0.7677 -2.7654
14570TIP3   OH265200   6.006   5.491   4.017  0.2797 -0.1775 -0.5948
14570TIP3    H165201   6.013   5.580   4.052 -1.9522  0.2972 -1.2575
14570TIP3    H265202   5.951   5.499   3.940 -0.5261 -2.2255 -0.2968
14571TIP3   OH265203   4.997   6.138   1.163  0.3119 -0.0666  0.4135
14571TIP3    H165204   5.005   6.214   1.105  1.6492 -2.5103 -2.9474
14571TIP3    H265205   5.086   6.127   1.199  0.1291 -0.1080  0.8600
14572TIP3   OH265206   3.955   5.906   0.761 -0.5036 -0.2662  0.1988
14572TIP3    H165207   4.030   5.966   0.758 -0.3517 -0.1445  3.0826
14572TIP3    H265208   3.989   5.829   0.806 -1.3837 -1.4636 -1.1261
14573TIP3   OH265209   4.034   4.682   2.296  0.2200 -0.7064  0.2516
14573TIP3    H165210   4.048   4.668   2.202 -1.3799 -1.2838  0.0763
14573TIP3    H265211   3.939   4.677   2.308  0.2269  1.2680  1.6216
14574TIP3   OH265212   6.139   1.794   1.001  0.2138 -0.3620  0.3026
14574TIP3    H165213   6.139   1.839   0.917  0.5240  0.4830  0.7362
14574TIP3    H265214   6.117   1.704   0.981  0.2307 -0.1539 -0.6756
14575TIP3   OH265215   1.871   0.317  14.789 -0.3200 -0.0700 -0.3781
14575TIP3    H165216   1.918   0.387  14.744 -0.5964  1.7397  1.9642
14575TIP3    H265217   1.916   0.308  14.873 -2.3453 -0.3553  0.7279
14576TIP3   OH265218   2.778   3.490   6.086  0.2665  0.0341  0.2819
14576TIP3    H165219   2.801   3.508   6.177 -1.1228 -0.7912  0.8306
14576TIP3    H265220   2.728   3.408   6.090 -1.1840  0.8029 -1.0218
14577TIP3   OH265221   0.354   3.262  16.597  0.3399  0.0053 -0.2136
14577TIP3    H165222   0.380   3.316  16.522  0.1319  0.2668 -0.0986
14577TIP3    H265223   0.260   3.273  16.603  0.2900 -0.4009 -0.2088
14578TIP3   OH265224   2.460   4.080   6.715  0.3245  0.4793 -0.5833
14578TIP3    H165225   2.378   4.087   6.764  1.2497 -0.8559  1.2850
14578TIP3    H265226   2.507   4.008   6.757  2.6723  1.5063 -1.2713
14579TIP3   OH265227   2.758   0.089   5.168 -0.5223 -0.3070 -0.0373
14579TIP3    H165228   2.800   0.023   5.114  1.4031  0.3076  0.6205
14579TIP3    H265229   2.816   0.165   5.163 -2.3526  1.1429 -0.2736
14580TIP3   OH265230   6.373   4.137  11.025 -0.6872 -0.6124 -0.5121
14580TIP3    H165231   6.379   4.105  11.115  0.1878  0.3621 -0.2119
14580TIP3    H265232   6.413   4.067  10.972  0.7378 -0.2780  0.0845
14581TIP3   OH265233   3.960   4.392  12.860  0.4088 -0.2952 -0.8717
14581TIP3    H165234   3.878   4.427  12.894  1.0392 -0.6274  1.1198
14581TIP3    H265235   3.992   4.334  12.929  2.3577 -0.1286 -1.5705
14582TIP3   OH265236   4.518   5.878  13.645  0.3894  0.4319 -0.1639
14582TIP3    H165237   4.455   5.826  13.695 -0.9470  0.4760 -1.7542
14582TIP3    H265238   4.472   5.959  13.625  0.4712 -0.0294 -2.3979
14583TIP3   OH265239   1.108   3.833  15.927  0.4899 -0.5437  0.5175
14583TIP3    H165240   1.048   3.885  15.980 -0.1903  0.2248 -0.9759
14583TIP3    H265241   1.179   3.810  15.988  1.1478  2.6065  1.1116
14584TIP3   OH265242   6.418   4.379   1.244 -0.0119  0.0838  0.2909
14584TIP3    H165243   6.394   4.432   1.321  1.3110 -0.5356  1.1604
14584TIP3    H265244   6.440   4.294   1.280  2.3866  0.2850 -0.5596
14585TIP3   OH265245   1.338   5.737  13.471  0.5112 -0.1583  0.2803
14585TIP3    H165246   1.292   5.661  13.505  0.8742 -1.1345 -1.3155
14585TIP3    H265247   1.334   5.801  13.542  0.5608 -1.7949  1.8146
14586TIP3   OH265248   0.193   1.112  10.830 -0.8929  0.1627 -0.3246
14586TIP3    H165249   0.210   1.093  10.737 -0.5137 -1.4186  0.0338
14586TIP3    H265250   0.108   1.072  10.847 -1.8276  2.0309 -0.4048
14587TIP3   OH265251   0.152   4.920   5.678  0.5345  0.0592 -0.2047
14587TIP3    H165252   0.130   4.931   5.586  1.2264  2.6924 -0.1398
14587TIP3    H265253   0.237   4.964   5.688 -0.4335  1.6472  2.0113
14588TIP3   OH265254   2.016   4.621  13.133 -0.2937  0.3760  0.0046
14588TIP3    H165255   2.041   4.534  13.100 -0.7453 -0.0494  0.7408
14588TIP3    H265256   2.069   4.632  13.212 -0.4854  0.6220  0.0980
14589TIP3   OH265257   5.317   4.655  11.381  1.0698  0.2765  0.3002
14589TIP3    H165258   5.365   4.625  11.458 -2.1384 -1.3215  1.8812
14589TIP3    H265259   5.324   4.582  11.319 -1.4730 -1.2439  1.6546
14590TIP3   OH265260   6.114   5.366   6.787 -0.3693 -0.3473  0.7139
14590TIP3    H165261   6.044   5.408   6.738  0.8474  0.1651 -0.6674
14590TIP3    H265262   6.126   5.421   6.864 -0.3308  0.5610  0.0725
14591TIP3   OH265263   5.680   2.577  15.494  0.6162 -0.6346  0.0466
14591TIP3    H165264   5.715   2.488  15.498  1.6266 -0.3247 -1.1091
14591TIP3    H265265   5.641   2.584  15.407 -1.4171 -0.6041  0.9141
14592TIP3   OH265266   5.937   5.068  14.819 -0.2485  0.4348  0.5290
14592TIP3    H165267   5.927   5.085  14.912  0.7834  1.7860  0.4220
14592TIP3    H265268   5.847   5.058  14.787 -0.6187  0.0970  1.6321
14593TIP3   OH265269   2.942   0.130   3.070 -0.5930 -0.8196 -0.0285
14593TIP3    H165270   2.901   0.216   3.078 -1.2832 -1.3041  3.2377
14593TIP3    H265271   2.974   0.126   2.980 -0.7023  2.7374 -0.3425
14594TIP3   OH265272   1.267   2.296  14.958 -0.1977 -0.8540  0.0814
14594TIP3    H165273   1.309   2.264  15.037 -1.7987 -3.0259  0.1386
14594TIP3    H265274   1.255   2.219  14.903  0.7332  0.5692 -2.2780
14595TIP3   OH265275   5.645   1.213   4.502  0.3596 -0.1615 -0.0074
14595TIP3    H165276   5.658   1.206   4.408 -0.4020 -0.7870 -0.0815
14595TIP3    H265277   5.626   1.124   4.530  2.5989 -0.3561  1.0896
14596TIP3   OH265278   6.491   1.514   1.373 -0.1467 -0.2514  0.2699
14596TIP3    H165279   6.457   1.425   1.363 -0.9015  0.1138 -0.4958
14596TIP3    H265280   6.562   1.520   1.309  1.3477 -0.9755  1.7880
14597TIP3   OH265281   3.057   6.767   2.858  0.5153  0.0122 -0.0626
14597TIP3    H165282   3.090   6.690   2.905  0.6340  0.0199 -0.1348
14597TIP3    H265283   3.123   6.835   2.872  0.5209  0.0334 -0.1877
14598TIP3   OH265284   6.500   2.915  14.078  0.0502  0.6319 -0.2980
14598TIP3    H165285   6.492   2.929  14.172 -2.2991  2.1002 -0.6474
14598TIP3    H265286   6.529   2.824  14.070  0.4415  0.5290  1.8167
14599TIP3   OH265287   4.064   3.469   4.377  0.0570  0.7373 -0.5041
14599TIP3    H165288   4.143   3.465   4.323  0.0537  2.6950 -0.7193
14599TIP3    H265289   4.057   3.381   4.416  2.0444  0.3689 -0.8807
14600TIP3   OH265290   4.391   6.237  15.918  0.3610 -0.2706 -0.1949
14600TIP3    H165291   4.359   6.187  15.843 -1.0165  0.3300 -0.0519
14600TIP3    H265292   4.362   6.187  15.994 -1.8142  1.0895 -0.0285
14601TIP3   OH265293   0.882   4.809   0.191 -0.5052  0.2840 -0.1896
14601TIP3    H165294   0.868   4.747   0.120 -1.2730 -0.4326  0.5679
14601TIP3    H265295   0.839   4.889   0.162  0.9953  0.6728 -1.4272
14602TIP3   OH265296   1.394   2.847  14.894  0.1766 -0.0633  0.1950
14602TIP3    H165297   1.328   2.916  14.896  0.1126 -0.0996 -0.7234
14602TIP3    H265298   1.457   2.873  14.962 -0.4500  0.2895  0.6443
14603TIP3   OH265299   4.900   5.027   1.556 -0.0496  0.2487 -0.2363
14603TIP3    H165300   4.926   5.099   1.499 -2.0533  1.9240  0.8333
14603TIP3    H265301   4.978   5.009   1.609  0.8792  0.7277 -1.3849
14604TIP3   OH265302   2.379   2.575   1.942 -0.0589 -0.1840 -0.5026
14604TIP3    H165303   2.374   2.600   1.850  1.0523  0.8032 -0.3182
14604TIP3    H265304   2.401   2.482   1.941  0.7696  0.0057 -1.2506
14605TIP3   OH265305   1.395   3.264  15.089  0.1857 -0.5450  0.3364
14605TIP3    H165306   1.380   3.339  15.032  0.0354 -0.4096  0.5539
14605TIP3    H265307   1.437   3.300  15.167 -0.7124 -0.5462  0.8363
14606TIP3   OH265308   1.288   6.754   5.569 -0.0683  0.1127  0.3333
14606TIP3    H165309   1.369   6.804   5.557  0.3258 -0.7490 -0.7888
14606TIP3    H265310   1.302   6.674   5.517 -0.6112 -1.2362  2.1590
14607TIP3   OH265311   1.884   0.714  13.508 -0.7005  0.8084  0.1545
14607TIP3    H165312   1.942   0.717  13.432 -0.7335 -0.0385  0.0904
14607TIP3    H265313   1.845   0.627  13.506 -1.2125  1.0119  0.7660
14608TIP3   OH265314   5.178   4.421  13.061 -0.0389  0.2962 -0.0568
14608TIP3    H165315   5.261   4.424  13.013  0.5584  1.0599  0.9723
14608TIP3    H265316   5.190   4.351  13.126 -1.0492 -1.1170 -1.3379
14609TIP3   OH265317   1.863   2.129   6.708  0.2184  0.0263 -0.3268
14609TIP3    H165318   1.957   2.146   6.717  0.4567 -1.0792 -0.6528
14609TIP3    H265319   1.825   2.166   6.788  1.1031 -0.7992  0.4967
14610TIP3   OH265320   5.927   4.690  17.288 -0.4413 -0.0555 -0.1018
14610TIP3    H165321   5.964   4.758  17.344 -0.0015  0.2391 -0.7377
14610TIP3    H265322   5.858   4.650  17.341  2.2289 -2.1928  2.0368
14611TIP3   OH265323   2.169   1.833   1.248  0.2224 -0.3031 -0.1797
14611TIP3    H165324   2.194   1.820   1.156 -1.0757 -0.5074 -0.5337
14611TIP3    H265325   2.252   1.845   1.294  0.8991 -0.1360 -1.3871
14612TIP3   OH265326   1.598   2.862   3.893 -0.4951  0.2099 -0.1408
14612TIP3    H165327   1.661   2.932   3.875 -0.0202 -0.1767  0.0003
14612TIP3    H265328   1.557   2.845   3.808 -0.8007  0.8288 -0.1276
14613TIP3   OH265329   1.446   3.069  11.432 -0.9201 -0.2187  0.6168
14613TIP3    H165330   1.422   3.121  11.355  1.5186  0.3408  0.1493
14613TIP3    H265331   1.482   2.988  11.396 -1.6434 -0.8227  1.2402
14614TIP3   OH265332   5.530   0.923  16.717  0.3136 -0.6451 -0.0753
14614TIP3    H165333   5.507   0.930  16.624 -1.2721 -0.6468  0.2908
14614TIP3    H265334   5.532   0.828  16.734  0.6712 -0.6467 -0.1147
14615TIP3   OH265335   2.543   1.067  13.611 -0.0621 -0.6346 -0.3899
14615TIP3    H165336   2.562   1.129  13.682 -0.9871 -1.0557  0.2603
14615TIP3    H265337   2.455   1.092  13.581 -0.1861 -1.2376 -0.5332
14616TIP3   OH265338   5.472   0.628   0.675  0.1954  0.2889  0.7099
14616TIP3    H165339   5.521   0.626   0.593  0.2788  0.1333  0.7615
14616TIP3    H265340   5.462   0.535   0.698 -0.2462  0.3125  0.6251
14617TIP3   OH265341   2.759   5.129   3.735  0.2347 -0.2618  0.1384
14617TIP3    H165342   2.780   5.123   3.829 -4.4285  0.8493  1.5071
14617TIP3    H265343   2.698   5.058   3.719 -0.6302  0.7840 -1.4948
14618TIP3   OH265344   1.214   0.251  14.172  0.5398 -0.2071  0.0412
14618TIP3    H165345   1.183   0.264  14.082  2.8100 -1.4628 -1.0371
14618TIP3    H265346   1.199   0.158  14.189  2.8089 -0.6879 -0.2570
14619TIP3   OH265347   6.556   3.562   4.123  0.1025 -0.6120 -0.6895
14619TIP3    H165348   6.506   3.571   4.042  1.2547 -0.7602 -1.4412
14619TIP3    H265349   6.604   3.480   4.113  0.8985 -0.2171 -0.2231
14620TIP3   OH265350   4.937   4.828   6.553  0.4720  0.1599  0.0216
14620TIP3    H165351   4.946   4.922   6.566  1.9460  0.3380 -1.7968
14620TIP3    H265352   4.864   4.819   6.491  0.4989  0.1316 -0.0058
14621TIP3   OH265353   5.558   4.742   3.814 -0.0087 -0.3838 -0.1266
14621TIP3    H165354   5.486   4.775   3.760  1.1682  1.1558 -0.8562
14621TIP3    H265355   5.567   4.808   3.883  1.2799 -0.0192 -0.6034
14622TIP3   OH265356   2.098   5.839   2.323  0.2775 -0.2213  0.2812
14622TIP3    H165357   2.056   5.808   2.243 -1.0382  2.5502 -0.2230
14622TIP3    H265358   2.134   5.925   2.300 -2.0701  1.7198  3.0814
14623TIP3   OH265359   2.349   0.958  15.447 -0.1312  0.4768 -0.0528
14623TIP3    H165360   2.254   0.961  15.443 -0.1963  1.8200  1.6810
14623TIP3    H265361   2.369   0.906  15.525  0.5569  0.4416 -0.2420
14624TIP3   OH265362   2.189   0.217   1.265 -0.6295 -0.2638 -0.0293
14624TIP3    H165363   2.248   0.262   1.326 -0.0668 -0.0451 -0.7163
14624TIP3    H265364   2.218   0.126   1.267  1.1027  0.1782 -1.8605
14625TIP3   OH265365   3.557   1.714  10.673  0.3355  0.0948 -0.1289
14625TIP3    H165366   3.629   1.757  10.719 -0.1531 -0.2215  0.9673
14625TIP3    H265367   3.572   1.620  10.690 -1.1297  0.0846  1.3881
14626TIP3   OH265368   3.179   3.489   5.121 -0.0727 -0.4593  0.1434
14626TIP3    H165369   3.196   3.576   5.083  0.2969  0.2111  1.7462
14626TIP3    H265370   3.247   3.433   5.083 -1.0385 -0.3871 -1.8475
14627TIP3   OH265371   4.100   6.814   3.269 -0.6603  0.0550 -0.1171
14627TIP3    H165372   4.038   6.748   3.240 -0.2325 -0.8425  0.9642
14627TIP3    H265373   4.053   6.897   3.259 -1.0468 -0.3554 -1.8791
14628TIP3   OH265374   2.180   5.333   1.179  0.3244  0.0726  0.0689
14628TIP3    H165375   2.182   5.263   1.244  0.5370 -0.4341 -0.4766
14628TIP3    H265376   2.140   5.407   1.226 -2.0961 -1.0815  0.0175
14629TIP3   OH265377   3.192   5.531  11.426  0.1242  0.0845 -0.2667
14629TIP3    H165378   3.230   5.619  11.425  1.7827 -0.5871 -0.5144
14629TIP3    H265379   3.155   5.520  11.338 -0.2837  0.6010 -0.1660
14630TIP3   OH265380   4.449   5.330   2.994  0.2086 -0.0113 -0.1002
14630TIP3    H165381   4.483   5.280   2.920 -0.3656 -1.2457  0.4441
14630TIP3    H265382   4.526   5.364   3.038  0.5492  1.0235 -1.4353
14631TIP3   OH265383   0.928   3.770   0.899  0.2983 -0.1142  0.3055
14631TIP3    H165384   0.921   3.855   0.855 -0.0514 -1.2531 -1.9621
14631TIP3    H265385   0.838   3.744   0.916  0.4177  0.0972  1.3377
14632TIP3   OH265386   6.697   2.648   5.995  0.2452  0.0225 -0.3181
14632TIP3    H165387   6.639   2.635   5.920  1.7619 -0.1842 -1.5074
14632TIP3    H265388   6.706   2.744   6.001 -1.4826  0.1396  0.9181
14633TIP3   OH265389   0.548   3.603  11.872  0.1619 -0.2377 -0.2707
14633TIP3    H165390   0.579   3.592  11.783 -0.5498 -0.9106 -0.4457
14633TIP3    H265391   0.595   3.537  11.923 -0.5369 -0.8733 -0.4324
14634TIP3   OH265392   4.188   6.618   0.702 -0.0200  0.3413  0.9925
14634TIP3    H165393   4.160   6.662   0.621  0.5219 -1.3231 -0.1383
14634TIP3    H265394   4.107   6.600   0.749 -0.3541  1.1450  0.7448
14635TIP3   OH265395   4.481   0.198  13.516  0.7330 -0.1517 -0.0768
14635TIP3    H165396   4.449   0.133  13.578  2.5365 -0.8435  0.2056
14635TIP3    H265397   4.441   0.174  13.432  1.7293 -1.9732 -0.0793
14636TIP3   OH265398   5.727   1.392  12.526 -0.3734 -0.0798 -0.7011
14636TIP3    H165399   5.746   1.471  12.576 -2.0904  1.7996 -2.8554
14636TIP3    H265400   5.634   1.377  12.540 -0.5164 -0.4777 -2.0253
14637TIP3   OH265401   0.417   5.176   0.658  0.0691 -0.3045 -0.4362
14637TIP3    H165402   0.449   5.207   0.743 -1.2027 -0.0183 -0.0414
14637TIP3    H265403   0.368   5.097   0.678 -0.6032  0.0037 -0.8391
14638TIP3   OH265404   1.345   4.511   2.817 -0.5961  0.4969  0.0815
14638TIP3    H165405   1.373   4.440   2.876 -0.3381  1.6180  1.3686
14638TIP3    H265406   1.406   4.583   2.836 -1.6080  1.4802 -0.2827
14639TIP3   OH265407   2.018   3.877   5.987  0.2537 -0.5810 -0.1251
14639TIP3    H165408   2.050   3.938   6.053  0.8689 -0.2460 -0.7267
14639TIP3    H265409   1.949   3.828   6.032  2.7233 -2.5520  1.8109
14640TIP3   OH265410   3.821   6.444   3.871 -0.4875 -0.1729  0.2306
14640TIP3    H165411   3.857   6.530   3.892  3.0698 -1.5414  0.4021
14640TIP3    H265412   3.837   6.434   3.777  0.5756 -1.2123  0.5015
14641TIP3   OH265413   3.990   2.693  11.414 -0.0855 -0.1470 -0.1156
14641TIP3    H165414   3.939   2.750  11.471 -0.9522 -2.9053  2.1349
14641TIP3    H265415   4.049   2.752  11.368 -1.4932  2.6094  1.3215
14642TIP3   OH265416   6.513   3.993  12.867  0.2467  0.6477 -0.3550
14642TIP3    H165417   6.587   3.933  12.859 -1.8821 -2.0584 -1.6489
14642TIP3    H265418   6.467   3.984  12.783 -1.5090  2.3069  0.3656
14643TIP3   OH265419   2.170   2.586  16.106  0.5591  0.4635 -0.1971
14643TIP3    H165420   2.076   2.597  16.091  0.4498  0.2755  0.3532
14643TIP3    H265421   2.183   2.491  16.104  0.5763  0.4399  0.6691
14644TIP3   OH265422   0.147   0.035  12.129  0.5088 -0.0552  0.2426
14644TIP3    H165423   0.081   0.036  12.198  0.7917 -0.3387  0.5235
14644TIP3    H265424   0.227   0.007  12.173  0.7236 -0.1162 -0.1783
14645TIP3   OH265425   4.996   1.557  17.040 -0.7111 -0.0349 -0.6830
14645TIP3    H165426   4.906   1.574  17.012 -1.3048 -1.4387  0.2454
14645TIP3    H265427   4.987   1.495  17.113  1.0429 -0.6742 -0.9611
14646TIP3   OH265428   6.371   3.342   1.796  0.4647 -0.2133 -0.4536
14646TIP3    H165429   6.354   3.248   1.800 -0.8745 -0.0623 -1.8061
14646TIP3    H265430   6.399   3.365   1.885 -1.4994 -1.4708  0.5597
14647TIP3   OH265431   6.293   0.946  11.968 -0.4936  0.3216 -0.6633
14647TIP3    H165432   6.221   0.954  11.907 -0.5321  0.4195 -0.6053
14647TIP3    H265433   6.361   1.003  11.933 -0.3989  0.1341 -0.7840
14648TIP3   OH265434   2.666   4.648   1.674  1.0000 -0.8155  0.1020
14648TIP3    H165435   2.663   4.666   1.768  0.4061 -0.1273 -0.0405
14648TIP3    H265436   2.731   4.579   1.665  0.2232 -1.7118  1.1407
14649TIP3   OH265437   6.380   1.708  12.494  0.2901  0.5103 -0.4539
14649TIP3    H165438   6.460   1.686  12.543 -1.4120 -0.4551  2.0922
14649TIP3    H265439   6.340   1.778  12.545 -1.4874 -0.4321 -0.4873
14650TIP3   OH265440   4.594   1.153  15.169  0.5322  0.2322  0.5176
14650TIP3    H165441   4.629   1.152  15.258 -0.3222 -1.3540  0.8824
14650TIP3    H265442   4.544   1.234  15.164  1.8733  1.1123  0.9294
14651TIP3   OH265443   1.005   2.375  16.497 -0.1732  0.1897 -0.5284
14651TIP3    H165444   1.008   2.330  16.413 -0.5941  0.7408 -0.8500
14651TIP3    H265445   0.915   2.408  16.503 -0.2112 -0.0397  0.2440
14652TIP3   OH265446   2.080   5.947  15.600  0.2148  0.1904 -0.5061
14652TIP3    H165447   2.073   5.941  15.696 -1.3430  1.6947 -0.4902
14652TIP3    H265448   2.041   5.866  15.569  1.0647 -0.4842  0.1253
14653TIP3   OH265449   6.368   6.734   3.741 -0.2937 -0.2194  0.2871
14653TIP3    H165450   6.299   6.706   3.681  0.9668 -1.7285 -0.5153
14653TIP3    H265451   6.374   6.829   3.727 -1.7328 -0.1520 -0.0898
14654TIP3   OH265452   0.285   4.715   1.590  0.0957 -0.2634 -0.1738
14654TIP3    H165453   0.226   4.654   1.635  1.3393 -1.9105 -0.6503
14654TIP3    H265454   0.314   4.666   1.513 -0.1632  1.6115 -1.5285
14655TIP3   OH265455   1.018   4.866   3.439  0.4041 -0.1502  0.0232
14655TIP3    H165456   1.109   4.877   3.411  0.1244 -0.8245 -1.2345
14655TIP3    H265457   1.006   4.933   3.506  0.8104  2.3721 -2.2483
14656TIP3   OH265458   4.769   6.104   3.024 -0.1638 -0.3612 -0.0989
14656TIP3    H165459   4.716   6.134   3.098 -2.5288  0.7298 -2.0729
14656TIP3    H265460   4.858   6.096   3.058 -0.3987  3.6999  1.9540
14657TIP3   OH265461   5.228   1.170   4.249 -0.6860  0.3625  0.2338
14657TIP3    H165462   5.138   1.151   4.272 -0.9105 -0.4562 -1.1685
14657TIP3    H265463   5.260   1.228   4.319 -2.5417  1.3790  0.2964
14658TIP3   OH265464   4.668   5.891  12.419 -0.6246  0.0558 -0.3705
14658TIP3    H165465   4.690   5.830  12.349 -1.8480 -1.0798  0.1984
14658TIP3    H265466   4.657   5.836  12.496 -0.0020  1.2085  0.5775
14659TIP3   OH265467   0.120   1.003   0.717  0.0375 -0.2414 -0.1523
14659TIP3    H165468   0.101   1.034   0.629  0.2195 -2.6564 -1.1074
14659TIP3    H265469   0.139   0.910   0.707  2.8462 -0.0350  2.0716
14660TIP3   OH265470   2.556   4.419  15.084  0.2820 -0.2782 -0.4601
14660TIP3    H165471   2.485   4.386  15.029  0.1786  0.0330 -0.5190
14660TIP3    H265472   2.514   4.484  15.140  0.8420  1.2324 -1.7244
14661TIP3   OH265473   5.319   6.436   0.100 -0.0891 -0.8006  0.1741
14661TIP3    H165474   5.400   6.394   0.128  1.1480  2.3431  1.8219
14661TIP3    H265475   5.288   6.483   0.177 -1.5539  0.9177 -1.3522
14662TIP3   OH265476   5.427   1.689  12.542  0.1567  0.2866  0.0810
14662TIP3    H165477   5.437   1.596  12.522  2.1160  0.9966 -2.9361
14662TIP3    H265478   5.334   1.706  12.528 -1.0470 -1.7318  4.0670
14663TIP3   OH265479   0.012   4.146  10.366  0.1039 -0.5930 -0.1185
14663TIP3    H165480   0.025   4.090  10.442 -0.6158 -0.6688 -0.0415
14663TIP3    H265481   0.084   4.209  10.369  0.4110 -0.9631  0.2903
14664TIP3   OH265482   5.302   2.094  12.075 -0.1183 -0.1241 -0.8995
14664TIP3    H165483   5.358   2.157  12.119  0.0452 -0.5911 -0.4378
14664TIP3    H265484   5.247   2.148  12.017 -0.8159  0.5688  0.3701
14665TIP3   OH265485   0.981   5.856  13.620 -0.1759 -0.1499  0.1721
14665TIP3    H165486   1.035   5.928  13.652  0.9924 -0.6431 -0.6059
14665TIP3    H265487   0.914   5.899  13.567  0.4623  0.3898 -0.2220
14666TIP3   OH265488   4.976   3.757  13.734  0.1046 -0.5294 -0.4202
14666TIP3    H165489   4.887   3.727  13.717  0.6472 -2.2098 -0.4759
14666TIP3    H265490   4.968   3.852  13.746 -1.5078 -0.4744 -1.6060
14667TIP3   OH265491   6.129   3.988   6.131 -0.5390 -0.6560  0.1680
14667TIP3    H165492   6.187   3.953   6.200 -0.0809  0.4683  0.3715
14667TIP3    H265493   6.162   4.076   6.115 -1.9005 -0.1730 -0.0697
14668TIP3   OH265494   0.277   4.349  16.787 -0.8212  0.0861  0.0578
14668TIP3    H165495   0.264   4.254  16.788 -1.0148  0.0828 -1.1672
14668TIP3    H265496   0.372   4.360  16.794 -0.8819 -0.1243  1.7107
14669TIP3   OH265497   3.224   4.911   0.609 -0.1142  0.0972  0.0619
14669TIP3    H165498   3.223   4.975   0.538  0.1788  1.2031  1.0406
14669TIP3    H265499   3.131   4.896   0.629 -0.1841  0.1630 -0.2091
14670TIP3   OH265500   5.512   1.004  15.008 -0.4237 -0.1905 -0.6446
14670TIP3    H165501   5.492   0.912  14.993 -0.3363 -0.1827 -0.8085
14670TIP3    H265502   5.594   1.019  14.962  0.0907 -0.2758  0.2161
14671TIP3   OH265503   5.260   2.586  16.144 -0.0829  0.5822  0.4023
14671TIP3    H165504   5.295   2.516  16.089 -1.2005  0.2451  0.0865
14671TIP3    H265505   5.214   2.644  16.083  0.0359  1.0715  0.7789
14672TIP3   OH265506   6.375   0.750  14.317 -0.2134 -0.3262 -0.4919
14672TIP3    H165507   6.326   0.723  14.239  0.0828 -0.8861 -0.4880
14672TIP3    H265508   6.407   0.838  14.296 -0.2593 -0.4145 -0.9442
14673TIP3   OH265509   5.854   5.824  14.948  0.2038 -0.0866 -0.2337
14673TIP3    H165510   5.829   5.826  15.040  1.7981  1.2079  0.2111
14673TIP3    H265511   5.946   5.795  14.948 -0.1245 -1.2754 -1.5282
14674TIP3   OH265512   1.758   5.180   2.912 -0.0800  0.0174 -0.2481
14674TIP3    H165513   1.702   5.252   2.941 -1.8033 -1.3635 -0.0154
14674TIP3    H265514   1.817   5.165   2.986 -0.8866  0.0393  0.4097
14675TIP3   OH265515   6.661   2.079   5.975 -0.4178  0.9542  0.2246
14675TIP3    H165516   6.625   2.117   6.056 -1.2329  0.2761  0.2042
14675TIP3    H265517   6.587   2.081   5.914 -0.1644  0.3532 -0.1098
14676TIP3   OH265518   3.002   1.083   2.558 -0.1434  0.5972  0.3281
14676TIP3    H165519   2.947   1.067   2.481 -1.7015  2.1315  1.0708
14676TIP3    H265520   3.045   1.166   2.540  1.6557 -0.3559 -0.0325
14677TIP3   OH265521   3.881   0.815   2.359 -0.1131 -0.2008  0.1347
14677TIP3    H165522   3.976   0.804   2.356 -0.0461  0.2202 -2.9651
14677TIP3    H265523   3.867   0.909   2.370 -0.0270  0.1614 -2.3210
14678TIP3   OH265524   3.274   5.215   5.385 -0.5577  0.0919  0.5587
14678TIP3    H165525   3.352   5.245   5.430 -0.8342  0.3333  0.8798
14678TIP3    H265526   3.263   5.124   5.412  0.0079 -0.1648 -0.0393
14679TIP3   OH265527   0.920   2.184  13.061  0.0564  0.0904 -0.2477
14679TIP3    H165528   0.852   2.172  12.994 -2.4835  2.1083  1.7942
14679TIP3    H265529   0.942   2.094  13.088 -1.5492 -0.6408 -1.2035
14680TIP3   OH265530   6.785   0.962  16.059 -0.1973  0.0121 -0.0040
14680TIP3    H165531   6.738   0.880  16.045 -2.3677  1.4620 -2.0496
14680TIP3    H265532   6.866   0.952  16.010 -0.1107 -1.1337  0.3409
14681TIP3   OH265533   4.209   2.384  11.630  0.8908  0.0602 -0.3342
14681TIP3    H165534   4.124   2.425  11.646  0.6335  0.0339 -1.5300
14681TIP3    H265535   4.259   2.451  11.583  1.6771  0.2117  0.6870
14682TIP3   OH265536   2.348   3.486  13.752 -0.1215  0.1582  0.0463
14682TIP3    H165537   2.304   3.569  13.770 -0.6850 -0.0696 -0.2316
14682TIP3    H265538   2.367   3.489  13.658  2.0710  1.0019  0.4730
14683TIP3   OH265539   5.157   5.959   1.893  0.2927 -0.5596  0.5266
14683TIP3    H165540   5.212   5.915   1.829  0.4905 -0.6242  0.7379
14683TIP3    H265541   5.109   5.889   1.937  0.2359 -0.5247  0.5205
14684TIP3   OH265542   3.647   2.698   5.818 -0.1782 -0.2687 -0.1875
14684TIP3    H165543   3.586   2.732   5.753  1.0064 -1.4685 -2.0416
14684TIP3    H265544   3.721   2.664   5.766  1.3924 -0.1859  1.8666
14685TIP3   OH265545   5.782   5.566  12.353  0.2518  0.2542  0.5943
14685TIP3    H165546   5.843   5.576  12.280  0.6734 -3.2357  0.3369
14685TIP3    H265547   5.837   5.565  12.431  0.4541 -1.5202  0.4660
14686TIP3   OH265548   0.696   2.236  10.522 -0.0983 -0.4707  0.0885
14686TIP3    H165549   0.654   2.275  10.598 -0.5508 -0.8390  0.0324
14686TIP3    H265550   0.666   2.289  10.448 -0.3633 -0.6560  0.0633
14687TIP3   OH265551   4.772   4.374  12.055 -0.1983  0.0604  0.4283
14687TIP3    H165552   4.788   4.461  12.018  0.6490  0.2940  1.3213
14687TIP3    H265553   4.769   4.316  11.978  1.9883  0.4680 -0.0581
14688TIP3   OH265554   3.809   6.131   5.516 -0.9378 -0.2834 -0.0790
14688TIP3    H165555   3.786   6.076   5.441 -0.7493 -1.0133  0.3798
14688TIP3    H265556   3.888   6.177   5.489 -2.2765  1.4175 -1.2630
14689TIP3   OH265557   4.689   0.777  13.549 -0.0474  0.3561  0.1155
14689TIP3    H165558   4.726   0.689  13.543 -0.8634  0.0740 -0.9369
14689TIP3    H265559   4.706   0.803  13.640 -0.4299 -1.1736  0.6633
14690TIP3   OH265560   3.819   1.223  16.833 -0.4132  0.7623 -0.5325
14690TIP3    H165561   3.852   1.198  16.746 -0.3217 -1.5205  0.1198
14690TIP3    H265562   3.737   1.270  16.814 -1.2513 -1.0811 -1.8465
14691TIP3   OH265563   1.896   4.046   2.615  0.2525 -0.0166  0.0612
14691TIP3    H165564   1.946   4.109   2.667  0.9116  0.8127 -1.5077
14691TIP3    H265565   1.929   3.960   2.642 -0.1881  0.3082  1.7499
14692TIP3   OH265566   2.883   4.623   2.071  0.3336  0.7970  0.2073
14692TIP3    H165567   2.917   4.668   1.994 -2.3252  1.7814 -0.5062
14692TIP3    H265568   2.948   4.640   2.139  1.5140  2.0645 -1.1465
14693TIP3   OH265569   6.254   6.566   5.446  0.0064 -0.4903  0.2992
14693TIP3    H165570   6.288   6.593   5.531 -1.1699  1.2283  0.2870
14693TIP3    H265571   6.183   6.505   5.466  1.0820 -1.7510  0.4266
14694TIP3   OH265572   3.186   3.622   0.259  0.3185 -0.1772  0.0850
14694TIP3    H165573   3.273   3.616   0.220 -0.8532  0.3662 -2.8832
14694TIP3    H265574   3.185   3.708   0.302  0.7539  0.6051 -1.3779
14695TIP3   OH265575   2.904   0.385  11.593 -0.0234  0.1203 -0.2836
14695TIP3    H165576   2.968   0.431  11.538  1.0289 -2.4563 -1.3962
14695TIP3    H265577   2.944   0.382  11.680 -0.1689  1.3356 -0.1594
14696TIP3   OH265578   3.213   5.390  15.996 -0.1908  0.2620  0.0829
14696TIP3    H165579   3.287   5.450  16.009 -1.4045  2.4102 -2.0874
14696TIP3    H265580   3.137   5.441  16.024 -1.0252 -1.4048  0.9792
14697TIP3   OH265581   3.906   1.287  13.470 -0.3122 -0.1357 -0.2432
14697TIP3    H165582   3.991   1.329  13.455  0.6582 -2.1605 -0.7003
14697TIP3    H265583   3.913   1.249  13.558 -0.2155 -1.5001 -0.8291
14698TIP3   OH265584   2.226   3.239   0.612  0.4553 -0.3334 -0.0344
14698TIP3    H165585   2.225   3.161   0.668  0.1307 -0.1036  0.2829
14698TIP3    H265586   2.155   3.224   0.550  1.1825 -0.8567 -0.7702
14699TIP3   OH265587   1.137   1.327   3.706  0.2518  0.8426  0.5449
14699TIP3    H165588   1.152   1.233   3.708 -0.6906  0.6624 -0.3997
14699TIP3    H265589   1.174   1.358   3.789  1.5503 -0.1859  0.3949
14700TIP3   OH265590   4.929   5.674   0.732  0.1419 -0.6162  1.1491
14700TIP3    H165591   4.952   5.756   0.687 -1.2874  0.0746  1.6304
14700TIP3    H265592   4.937   5.607   0.664 -1.8964  0.3984 -0.1895
14701TIP3   OH265593   0.888   1.331   0.685 -0.0648 -0.0959 -0.4281
14701TIP3    H165594   0.949   1.269   0.725  1.2041  1.3009 -0.1165
14701TIP3    H265595   0.819   1.343   0.751 -0.6105 -1.5270 -0.7026
14702TIP3   OH265596   1.939   0.242  13.921 -0.0146 -0.2332 -0.2516
14702TIP3    H165597   1.878   0.222  13.992  0.0437 -1.9420 -0.6409
14702TIP3    H265598   2.020   0.267  13.966 -0.0061 -1.2116  0.3088
14703TIP3   OH265599   0.065   2.141   0.654 -0.0964  0.1273  0.0380
14703TIP3    H165600   0.109   2.062   0.687  0.6521  0.4701 -0.1276
14703TIP3    H265601   0.046   2.120   0.562  1.2861  0.6213 -0.3816
14704TIP3   OH265602   1.498   4.020  11.286 -0.4219  0.1563  0.4620
14704TIP3    H165603   1.586   4.026  11.248 -0.5119 -2.0766 -0.2463
14704TIP3    H265604   1.440   4.014  11.210 -0.9807 -0.4845  0.9366
14705TIP3   OH265605   1.767   0.228  12.111 -0.0922  0.6205 -0.6522
14705TIP3    H165606   1.807   0.250  12.195 -0.2559 -0.3972 -0.2953
14705TIP3    H265607   1.690   0.176  12.134 -1.2297  1.9100 -1.3615
14706TIP3   OH265608   3.794   2.483   2.557  0.2601 -0.2335 -0.1317
14706TIP3    H165609   3.723   2.528   2.512 -0.7854 -1.5624  0.1151
14706TIP3    H265610   3.860   2.551   2.573 -0.8743  0.9911 -0.5237
14707TIP3   OH265611   6.610   6.334   2.131  0.4245 -0.4373  0.6617
14707TIP3    H165612   6.584   6.308   2.219 -1.7924  0.3146  0.3048
14707TIP3    H265613   6.535   6.311   2.076  0.8890  1.0222 -0.6567
14708TIP3   OH265614   5.447   0.456  13.926  0.5781 -0.0638  0.5703
14708TIP3    H165615   5.502   0.474  13.849  0.5860  0.8366  0.7822
14708TIP3    H265616   5.454   0.361  13.937 -0.1317 -0.3493 -1.0660
14709TIP3   OH265617   4.035   3.614  16.940 -0.1420 -0.0157 -0.3317
14709TIP3    H165618   4.027   3.615  17.035  0.2812  0.6142 -0.2944
14709TIP3    H265619   3.947   3.591  16.909 -0.8114  1.7246  0.1668
14710TIP3   OH265620   1.079   3.454   6.395 -0.4796 -0.1200  0.3782
14710TIP3    H165621   1.146   3.508   6.437 -1.7194  0.6650  1.4483
14710TIP3    H265622   1.090   3.368   6.434  1.3748 -0.6383 -1.1819
14711TIP3   OH265623   3.548   5.947  16.607 -0.1221 -0.4751  0.2411
14711TIP3    H165624   3.474   6.003  16.582  1.0362  1.3236  0.6749
14711TIP3    H265625   3.517   5.901  16.685 -0.7524  0.3595  0.5019
14712TIP3   OH265626   6.669   2.059  17.288  0.1483 -0.0255 -0.5745
14712TIP3    H165627   6.752   2.091  17.323  0.6376 -1.8795  0.0356
14712TIP3    H265628   6.676   2.070  17.194  1.3134 -0.6504 -0.5689
14713TIP3   OH265629   3.625   2.012  16.753 -0.0344 -0.4738  0.3608
14713TIP3    H165630   3.693   2.034  16.817 -0.6849  0.1087  0.8732
14713TIP3    H265631   3.553   2.071  16.774 -0.4368 -0.5932 -0.6231
14714TIP3   OH265632   1.279   2.249   0.634 -0.1583  0.0303 -0.5991
14714TIP3    H165633   1.323   2.290   0.708 -2.5584  0.9466  0.4349
14714TIP3    H265634   1.263   2.159   0.663  0.9567 -0.2850 -0.9547
14715TIP3   OH265635   3.373   3.730  14.043  0.0907  0.5711  0.3499
14715TIP3    H165636   3.448   3.786  14.066  0.6217 -0.1544  0.4299
14715TIP3    H265637   3.412   3.646  14.021 -0.7397  0.0376  0.8492
14716TIP3   OH265638   3.659   2.825  13.359 -0.1522 -0.0308  0.2760
14716TIP3    H165639   3.598   2.758  13.389  1.0177 -1.2025  0.1311
14716TIP3    H265640   3.703   2.855  13.438 -0.3185  0.1868  0.2839
14717TIP3   OH265641   3.103   2.397   1.256 -0.2185 -0.0416 -0.1241
14717TIP3    H165642   3.093   2.325   1.195 -3.1963 -0.5155  0.7238
14717TIP3    H265643   3.156   2.362   1.327 -0.0620 -0.7760 -0.5960
14718TIP3   OH265644   5.182   3.224  12.036  0.1990  0.1659 -0.1491
14718TIP3    H165645   5.094   3.248  12.063  0.0346 -1.2791  0.7645
14718TIP3    H265646   5.179   3.128  12.027  1.8638 -0.0198  0.7506
14719TIP3   OH265647   1.206   3.131   3.264  0.2847 -0.1241 -0.3689
14719TIP3    H165648   1.269   3.139   3.336 -1.1404 -0.5199  0.9828
14719TIP3    H265649   1.155   3.053   3.285  0.0952 -0.4858 -2.0551
14720TIP3   OH265650   4.275   5.091  16.807 -0.1558 -0.5594 -0.0896
14720TIP3    H165651   4.260   4.997  16.798 -0.5269 -0.5824  0.6452
14720TIP3    H265652   4.370   5.100  16.806 -0.1304 -0.8773 -0.7401
14721TIP3   OH265653   5.769   2.889  14.167 -0.0685 -0.0897 -0.3308
14721TIP3    H165654   5.799   2.805  14.134  0.7533  0.7997 -2.0081
14721TIP3    H265655   5.681   2.872  14.201 -0.0950 -1.5273 -1.0433
14722TIP3   OH265656   5.551   0.726  11.824  0.0461  0.0665 -0.1660
14722TIP3    H165657   5.516   0.645  11.785  0.6865 -0.2031 -0.2087
14722TIP3    H265658   5.476   0.784  11.831 -0.2430 -0.1877 -1.0374
14723TIP3   OH265659   3.347   2.687  10.854  0.3031 -0.6005  0.1224
14723TIP3    H165660   3.290   2.648  10.920 -0.1692 -0.0824  0.0264
14723TIP3    H265661   3.336   2.633  10.777 -2.4863  1.2242 -0.9169
14724TIP3   OH265662   4.404   3.176  14.945  0.0548  0.1405 -0.7019
14724TIP3    H165663   4.315   3.196  14.974 -0.0135  0.0695 -0.8585
14724TIP3    H265664   4.426   3.247  14.884  0.6160  0.8934  0.3553
14725TIP3   OH265665   0.064   4.599  13.959 -0.2123  0.3059  0.2571
14725TIP3    H165666   0.056   4.690  13.929  0.6468  0.2753 -0.0672
14725TIP3    H265667  -0.000   4.592  14.030 -0.6262  1.0281 -0.0378
14726TIP3   OH265668   4.389   6.126  15.198 -0.1225  0.0494  0.2827
14726TIP3    H165669   4.317   6.151  15.141  0.9004  2.9428  0.1166
14726TIP3    H265670   4.353   6.134  15.287  0.1217  2.2495  0.2351
14727TIP3   OH265671   4.869   4.180  13.909  0.2924 -0.4043 -0.2101
14727TIP3    H165672   4.786   4.169  13.956  0.9462  1.0935  1.4028
14727TIP3    H265673   4.934   4.189  13.978  1.5876 -0.0485 -1.4381
14728TIP3   OH265674   2.318   3.159  12.232 -0.0310 -0.0942 -0.6268
14728TIP3    H165675   2.367   3.103  12.171 -1.1926 -0.4263 -1.2988
14728TIP3    H265676   2.235   3.175  12.188 -1.0950 -0.6968  1.0659
14729TIP3   OH265677   1.532   3.905  17.206  0.0637  0.6543 -0.0309
14729TIP3    H165678   1.619   3.881  17.175 -0.3665 -0.4739 -0.4215
14729TIP3    H265679   1.480   3.825  17.197 -1.2403  1.5193 -0.6265
14730TIP3   OH265680   0.030   3.287  13.115 -0.0773  0.1614 -0.3698
14730TIP3    H165681   0.112   3.238  13.121  0.4510  0.5995 -3.0334
14730TIP3    H265682   0.045   3.365  13.170  0.2204 -1.0645  1.3648
14731TIP3   OH265683   5.615   0.560  14.514  0.4529 -0.1739  0.6804
14731TIP3    H165684   5.646   0.639  14.560 -0.3739  1.1231 -0.8879
14731TIP3    H265685   5.663   0.489  14.555  2.7431  1.3474  0.8081
14732TIP3   OH265686   0.832   6.337  12.515 -0.0145 -0.0243 -0.3347
14732TIP3    H165687   0.861   6.253  12.550  1.1123  0.7399  0.6516
14732TIP3    H265688   0.763   6.366  12.574  1.1870  0.7888  0.7260
14733TIP3   OH265689   5.900   3.378  17.244 -0.0133  0.0456  0.4381
14733TIP3    H165690   5.905   3.284  17.263 -0.7127 -0.3832 -1.3550
14733TIP3    H265691   5.863   3.416  17.324  0.6901 -1.1073  1.3592
14734TIP3   OH265692   0.254   5.637  16.268 -0.3395 -0.7322  0.3174
14734TIP3    H165693   0.266   5.637  16.173  1.2259 -0.2551  0.4826
14734TIP3    H265694   0.264   5.729  16.293  0.2817 -0.9877  1.0390
14735TIP3   OH265695   6.385   2.934  15.284  0.2922 -0.3897 -0.1818
14735TIP3    H165696   6.402   2.844  15.258 -1.3956 -0.5554 -0.8541
14735TIP3    H265697   6.365   2.980  15.202 -1.3804 -0.0301  0.3915
14736TIP3   OH265698   2.496   0.852   1.387  0.6384 -0.3980  0.2790
14736TIP3    H165699   2.548   0.807   1.321  1.2493  1.2730 -0.4321
14736TIP3    H265700   2.453   0.923   1.340  0.4411  0.3420  1.5162
14737TIP3   OH265701   0.592   0.291  15.417  0.2451  0.0634  0.5087
14737TIP3    H165702   0.530   0.218  15.416  0.9534 -0.5620  0.9809
14737TIP3    H265703   0.649   0.272  15.492  0.2502  1.2672  0.8190
14738TIP3   OH265704   4.854   3.565  10.269  0.2745  0.3007 -0.0130
14738TIP3    H165705   4.774   3.527  10.233  1.2174 -0.4351 -1.4220
14738TIP3    H265706   4.919   3.495  10.262  1.3296  1.2543  0.0375
14739TIP3   OH265707   1.040   2.617   1.100 -0.3298 -0.5872 -0.1867
14739TIP3    H165708   1.016   2.709   1.098 -0.9055 -0.7368 -0.6258
14739TIP3    H265709   1.044   2.594   1.193 -1.6759 -0.4858 -0.0834
14740TIP3   OH265710   0.211   6.530  14.844  0.3093  0.0153 -0.2329
14740TIP3    H165711   0.234   6.451  14.796  0.4430  0.6150 -1.1716
14740TIP3    H265712   0.116   6.525  14.854  0.2831 -0.1184 -0.5426
14741TIP3   OH265713   6.335   6.511  16.704  0.0282  0.7970 -0.2731
14741TIP3    H165714   6.407   6.452  16.682  1.5757  2.7313 -0.6856
14741TIP3    H265715   6.364   6.557  16.782 -0.3895  2.1800 -0.9020
14742TIP3   OH265716   1.824   6.659   3.229 -0.3069  0.1870  0.6432
14742TIP3    H165717   1.840   6.635   3.321  2.6248  1.1093  0.4698
14742TIP3    H265718   1.843   6.753   3.225  2.3085 -0.3273 -1.3622
14743TIP3   OH265719   4.318   4.500   4.294  0.2799  0.8417 -0.0567
14743TIP3    H165720   4.374   4.557   4.241  0.3549  0.7242 -0.1057
14743TIP3    H265721   4.380   4.447   4.345  0.2131  0.7360 -0.0857
14744TIP3   OH265722   6.402   1.868  16.940 -0.1831  0.1477  0.2143
14744TIP3    H165723   6.398   1.777  16.966  0.4418  0.0202 -0.1234
14744TIP3    H265724   6.491   1.881  16.909  0.1532  1.2334  1.5559
14745TIP3   OH265725   1.874   0.490   3.684  0.7950 -0.0402 -0.1436
14745TIP3    H165726   1.807   0.501   3.617 -0.9619 -2.0246  1.1522
14745TIP3    H265727   1.825   0.490   3.767  2.7244  0.9717  1.0682
14746TIP3   OH265728   5.715   4.215  17.192  0.4665  0.4568 -0.1319
14746TIP3    H165729   5.737   4.305  17.166  2.7292  0.3620  1.1480
14746TIP3    H265730   5.793   4.165  17.169  0.6426 -0.5030  2.3027
14747TIP3   OH265731   3.988   5.875  14.447  0.4353 -0.6286  0.5001
14747TIP3    H165732   3.960   5.811  14.382  0.4157 -0.7392  0.6182
14747TIP3    H265733   3.996   5.825  14.528 -1.5229 -0.1345  1.0640
14748TIP3   OH265734   1.346   2.341   1.382  0.1023  0.2845  0.1422
14748TIP3    H165735   1.279   2.333   1.315 -0.0252  0.0683  0.2942
14748TIP3    H265736   1.423   2.373   1.336  0.0508  0.0206 -0.1295
14749TIP3   OH265737   6.218   5.308   4.016 -0.6158 -0.5683  0.2092
14749TIP3    H165738   6.148   5.372   4.026 -1.1326 -1.2771  1.2444
14749TIP3    H265739   6.260   5.304   4.102  0.2534 -0.6631 -0.2096
14750TIP3   OH265740   3.363   2.363  11.723  0.1258 -0.2374 -0.0232
14750TIP3    H165741   3.282   2.412  11.714 -0.7906 -1.8792 -1.4893
14750TIP3    H265742   3.423   2.422  11.768 -1.7643  1.1408  0.7955
14751TIP3   OH265743   6.135   1.451  11.950 -0.1100 -0.5987  0.6464
14751TIP3    H165744   6.136   1.505  12.029  2.9529 -1.7708  1.5753
14751TIP3    H265745   6.144   1.361  11.983  0.3770 -1.1784 -0.9824
14752TIP3   OH265746   5.731   5.417  12.955  0.5385 -0.2156  0.3900
14752TIP3    H165747   5.682   5.448  12.879  1.0179 -0.7009 -0.1272
14752TIP3    H265748   5.663   5.388  13.017  0.1300  0.6200  0.3577
14753TIP3   OH265749   0.166   5.514   2.398  0.3646  0.1348  0.5059
14753TIP3    H165750   0.077   5.533   2.368  0.3414  1.0197  1.1052
14753TIP3    H265751   0.161   5.425   2.432  0.2123 -0.6007 -1.3542
14754TIP3   OH265752   1.522   5.387   4.493  0.1351 -0.0328 -0.1465
14754TIP3    H165753   1.585   5.393   4.422  0.4592 -2.3556 -0.1503
14754TIP3    H265754   1.456   5.324   4.461  0.0340 -0.7505  1.3998
14755TIP3   OH265755   2.800   2.904   4.908  0.0749 -0.3637 -0.5802
14755TIP3    H165756   2.708   2.877   4.906 -0.6966  2.0147 -0.5947
14755TIP3    H265757   2.824   2.905   5.000 -0.0611 -0.5676 -0.5438
14756TIP3   OH265758   4.889   6.154  15.863 -0.0073 -0.2048 -0.1890
14756TIP3    H165759   4.803   6.163  15.903  0.5302  0.7560  0.8212
14756TIP3    H265760   4.914   6.063  15.878 -1.1080 -0.6879 -1.1022
14757TIP3   OH265761   0.317   3.734   2.626 -0.5974 -0.1992  0.2464
14757TIP3    H165762   0.352   3.789   2.556 -0.0412 -0.4321  0.3379
14757TIP3    H265763   0.390   3.723   2.687 -0.7880 -0.7958  0.3736
14758TIP3   OH265764   0.485   3.042  16.009  0.2162  0.4278  0.2003
14758TIP3    H165765   0.562   3.056  16.065 -0.0840 -1.1872  1.0664
14758TIP3    H265766   0.505   2.961  15.961 -0.4789  0.5978 -0.3848
14759TIP3   OH265767   0.294   4.310  13.841  0.0341 -0.6469 -0.0693
14759TIP3    H165768   0.285   4.369  13.766  2.3954 -0.3345 -0.1693
14759TIP3    H265769   0.242   4.351  13.910 -0.7435 -0.0170 -0.9971
14760TIP3   OH265770   5.246   4.226  15.967 -0.4507  0.3215 -0.0168
14760TIP3    H165771   5.323   4.223  15.910 -0.9313  0.0517 -0.6724
14760TIP3    H265772   5.179   4.268  15.913 -1.1159 -0.5717  0.0994
14761TIP3   OH265773   6.508   4.520   1.019 -0.1167 -0.3823 -0.3334
14761TIP3    H165774   6.485   4.467   1.095  2.1514 -1.1448 -0.0774
14761TIP3    H265775   6.553   4.459   0.961  0.5856  0.7812 -1.0444
14762TIP3   OH265776   2.443   5.900   5.055 -0.5564 -0.5261  0.1468
14762TIP3    H165777   2.476   5.880   5.143 -0.7241 -1.0187  0.0981
14762TIP3    H265778   2.518   5.942   5.011 -0.0217 -1.5323  0.0763
14763TIP3   OH265779   1.502   0.338   6.212 -0.1452 -0.3230  0.4962
14763TIP3    H165780   1.537   0.416   6.255 -1.1642  0.8249 -0.6274
14763TIP3    H265781   1.579   0.291   6.180  0.4971  0.1762  1.2834
14764TIP3   OH265782   4.650   2.365  12.730 -0.1134 -0.8263  0.2102
14764TIP3    H165783   4.694   2.338  12.650  0.6364  0.3108  0.2228
14764TIP3    H265784   4.578   2.303  12.739  1.0467 -2.3042 -0.1909
14765TIP3   OH265785   0.805   2.491  15.223  0.7305  0.1051 -0.6940
14765TIP3    H165786   0.786   2.428  15.293 -0.0284  0.9183 -0.1436
14765TIP3    H265787   0.751   2.462  15.149  1.1107 -0.4357 -0.7656
14766TIP3   OH265788   0.287   5.015  15.527 -0.1184  0.4490  0.1092
14766TIP3    H165789   0.295   5.097  15.478 -0.9438  0.5633  0.1577
14766TIP3    H265790   0.378   4.987  15.541  0.2262  2.0512  1.2960
14767TIP3   OH265791   5.916   2.873   0.697 -0.2425  0.0115 -0.6525
14767TIP3    H165792   5.951   2.841   0.613 -2.1445 -1.2592 -1.0333
14767TIP3    H265793   5.915   2.795   0.753  0.2757  0.6820  0.3169
14768TIP3   OH265794   0.583   5.690  12.451  0.3616  0.0531 -0.0726
14768TIP3    H165795   0.529   5.740  12.390 -0.6790 -1.2118 -0.2361
14768TIP3    H265796   0.665   5.739  12.456  0.4545  0.2833 -2.4202
14769TIP3   OH265797   4.191   5.030  12.886  1.0668  0.0126  0.2098
14769TIP3    H165798   4.184   5.005  12.978 -0.1467  2.5664  0.9326
14769TIP3    H265799   4.118   5.092  12.873  2.4957  1.4104 -1.8509
14770TIP3   OH265800   6.355   1.719   5.848  0.0679 -0.9366  1.1595
14770TIP3    H165801   6.270   1.759   5.865 -0.4162 -2.1312  1.6234
14770TIP3    H265802   6.402   1.785   5.796 -0.7840  0.1153  1.6795
14771TIP3   OH265803   2.035   3.249   2.699 -0.2540 -0.7496  0.4718
14771TIP3    H165804   2.054   3.325   2.644 -2.2295 -0.3517  0.2700
14771TIP3    H265805   1.964   3.278   2.757 -0.2861 -2.1055  1.1574
14772TIP3   OH265806   6.048   1.774  11.859  0.9164 -0.4043  0.0144
14772TIP3    H165807   6.115   1.762  11.926  0.2500  0.3849  0.8459
14772TIP3    H265808   6.043   1.868  11.846  0.8401 -0.5287 -0.9632
14773TIP3   OH265809   1.391   4.707   0.230 -0.1259 -1.1092 -0.9077
14773TIP3    H165810   1.372   4.782   0.287 -1.9357 -1.7108 -0.6749
14773TIP3    H265811   1.486   4.694   0.239  0.0010  0.2828  0.1194
14774TIP3   OH265812   2.042   2.050  17.198  0.6865  0.6725 -0.4474
14774TIP3    H165813   2.002   2.003  17.271 -0.4497  0.8536 -0.9242
14774TIP3    H265814   2.133   2.063  17.224  0.4362  0.2537  0.6903
14775TIP3   OH265815   4.489   2.321  13.854  0.1862  0.2885  0.0761
14775TIP3    H165816   4.574   2.365  13.860  0.2357 -0.0674  3.3956
14775TIP3    H265817   4.427   2.392  13.840  0.8705  0.6219 -1.6468
14776TIP3   OH265818   3.445   5.474  12.381  0.4986 -0.6097 -0.8363
14776TIP3    H165819   3.401   5.481  12.297 -2.9298 -1.6993  0.7001
14776TIP3    H265820   3.457   5.380  12.394 -2.1258 -0.7626  1.2262
14777TIP3   OH265821   5.549   1.578  11.462 -0.1321  0.3245 -0.2339
14777TIP3    H165822   5.574   1.505  11.519  1.5600  0.7001 -0.4312
14777TIP3    H265823   5.453   1.574  11.458 -0.1363 -1.2513  0.5774
14778TIP3   OH265824   2.615   5.234   4.453 -0.4145  0.0364  0.4306
14778TIP3    H165825   2.615   5.330   4.449  0.2856  0.0271  0.0179
14778TIP3    H265826   2.696   5.213   4.501  0.1823 -0.3849 -0.7301
14779TIP3   OH265827   5.407   1.557  11.936 -0.1622  0.3992 -0.3086
14779TIP3    H165828   5.378   1.648  11.945  0.2150  0.4867  0.0293
14779TIP3    H265829   5.333   1.504  11.963  0.3919  0.6285  1.7768
14780TIP3   OH265830   1.667   5.167  11.476  0.0789 -0.3357  0.8530
14780TIP3    H165831   1.734   5.177  11.543  2.1270 -2.6457 -0.7059
14780TIP3    H265832   1.705   5.109  11.411 -2.4057  0.4813 -1.5631
14781TIP3   OH265833   5.489   6.284  12.974  0.2367 -0.1064  0.1711
14781TIP3    H165834   5.444   6.321  12.898 -0.6533 -2.0781 -0.3190
14781TIP3    H265835   5.580   6.314  12.965  0.0112  0.2254 -1.3332
14782TIP3   OH265836   4.854   1.555  15.027 -0.5842 -0.0809 -0.2790
14782TIP3    H165837   4.906   1.626  14.990 -2.4292  0.7505 -1.4485
14782TIP3    H265838   4.916   1.483  15.038  1.4549  1.7628  1.3131
14783TIP3   OH265839   0.313   1.313  13.960  0.1063  0.2984 -0.1616
14783TIP3    H165840   0.326   1.272  14.045 -1.5628  0.1053  0.0298
14783TIP3    H265841   0.225   1.349  13.964  1.1946  3.3930 -0.5409
14784TIP3   OH265842   0.868   5.885   2.213  0.0662  0.4375 -0.4114
14784TIP3    H165843   0.822   5.956   2.168  0.6447  0.3281 -1.1836
14784TIP3    H265844   0.953   5.880   2.171 -0.2126 -1.1633 -0.8331
14785TIP3   OH265845   3.884   3.444  16.118 -0.3101  0.2405  0.0536
14785TIP3    H165846   3.813   3.442  16.054 -0.7989 -1.3156  0.5977
14785TIP3    H265847   3.848   3.491  16.194 -0.5363  0.0120  0.0866
14786TIP3   OH265848   5.995   2.345  14.184 -0.0840 -0.6574 -0.8775
14786TIP3    H165849   6.075   2.297  14.164  0.4422  0.4132 -1.4082
14786TIP3    H265850   6.019   2.437  14.176 -0.7821 -0.2387  1.1516
14787TIP3   OH265851   6.716   4.432  12.629  0.2485 -0.3859  0.0439
14787TIP3    H165852   6.772   4.489  12.681 -1.7594  2.3065 -0.5679
14787TIP3    H265853   6.698   4.482  12.549 -1.6652 -1.8465 -0.5050
14788TIP3   OH265854   0.156   1.928   4.012 -0.1414  0.0602  0.2453
14788TIP3    H165855   0.177   1.930   4.106  0.8976 -0.1767  0.0311
14788TIP3    H265856   0.241   1.936   3.969 -0.6831  1.0004 -0.6895
14789TIP3   OH265857   2.936   3.555   1.391 -0.1899  0.7563 -0.1953
14789TIP3    H165858   2.978   3.535   1.308  0.2825 -0.0603  0.2251
14789TIP3    H265859   2.914   3.648   1.386  0.1564  0.7924 -1.0847
14790TIP3   OH265860   5.232   4.149  12.079 -0.9719  0.0263 -0.9195
14790TIP3    H165861   5.204   4.095  12.005 -1.0651  0.6353 -1.3322
14790TIP3    H265862   5.302   4.204  12.043 -3.6293  3.1823 -1.6671
14791TIP3   OH265863   5.660   0.849   5.725  0.4685 -0.6999 -0.3762
14791TIP3    H165864   5.664   0.872   5.818  1.4834 -1.7378 -0.1526
14791TIP3    H265865   5.571   0.817   5.712 -0.0072  0.4289 -0.0081
14792TIP3   OH265866   5.903   4.516   1.465 -0.4146  0.6000  0.2256
14792TIP3    H165867   5.843   4.573   1.514  0.2179 -0.7063  2.6656
14792TIP3    H265868   5.868   4.428   1.477  1.4284 -0.0874  0.9102
14793TIP3   OH265869   2.529   4.168  13.262  0.2182 -0.2785  0.3989
14793TIP3    H165870   2.608   4.163  13.317  0.6638 -0.9188 -0.2787
14793TIP3    H265871   2.475   4.234  13.305  0.5126 -0.8167  1.6610
14794TIP3   OH265872   0.899   4.354  14.810  0.3219 -0.3617  0.6345
14794TIP3    H165873   0.943   4.427  14.767  0.9819 -0.3044  1.3759
14794TIP3    H265874   0.941   4.348  14.896 -1.2407 -0.2051  1.4412
14795TIP3   OH265875   4.150   5.634  14.784  0.0959 -0.0667  0.3349
14795TIP3    H165876   4.222   5.693  14.804 -0.1721  0.9275 -1.4703
14795TIP3    H265877   4.088   5.687  14.735 -1.2922 -1.2394  0.7600
14796TIP3   OH265878   6.420   0.257  14.694 -0.0810  0.5621 -0.2928
14796TIP3    H165879   6.492   0.196  14.709 -1.7108 -2.1270 -2.5339
14796TIP3    H265880   6.435   0.291  14.606 -0.6460  1.3420 -0.1023
14797TIP3   OH265881   4.432   4.398   0.527 -0.4739 -0.5964  0.6330
14797TIP3    H165882   4.356   4.346   0.553  0.5593 -1.9330  1.0890
14797TIP3    H265883   4.489   4.337   0.481 -0.2692  0.7159 -0.9580
14798TIP3   OH265884   5.901   6.659   3.707 -0.3946  0.4773  0.1331
14798TIP3    H165885   5.959   6.590   3.740 -1.1901 -0.5378 -0.5306
14798TIP3    H265886   5.961   6.727   3.674  0.4034  0.5286  1.5873
14799TIP3   OH265887   4.294   4.382   1.824  0.0716  0.3034 -0.2608
14799TIP3    H165888   4.280   4.440   1.749  2.2749  1.5427  0.1852
14799TIP3    H265889   4.323   4.299   1.786 -1.7023 -0.0850 -0.8481
14800TIP3   OH265890   0.369   2.839  16.253 -0.6222  0.3882 -0.0873
14800TIP3    H165891   0.374   2.756  16.299 -0.7054  0.0719 -0.6316
14800TIP3    H265892   0.447   2.840  16.197 -0.5943  0.6976 -0.0423
14801TIP3   OH265893   0.765   1.975  10.546 -0.2330 -0.2655 -0.4032
14801TIP3    H165894   0.742   2.066  10.528 -4.3104 -1.0988 -0.2710
14801TIP3    H265895   0.781   1.937  10.460 -0.6614  0.1093 -0.6536
14802TIP3   OH265896   4.892   4.310  15.392  0.0851 -0.6757  0.1717
14802TIP3    H165897   4.897   4.228  15.441 -0.0222 -0.1617  1.0647
14802TIP3    H265898   4.928   4.376  15.452  0.1691 -0.0730 -0.5341
14803TIP3   OH265899   2.128   6.063   1.676 -0.0027  0.0070  0.1142
14803TIP3    H165900   2.146   6.147   1.634  0.6340  0.3687  1.0760
14803TIP3    H265901   2.166   6.071   1.764 -2.9654 -0.0022  1.5134
14804TIP3   OH265902   6.109   0.616  15.161 -0.2237  0.1391  0.1679
14804TIP3    H165903   6.019   0.584  15.156 -0.4219  0.7617 -0.3395
14804TIP3    H265904   6.113   0.687  15.097  0.2553  1.0076  1.1377
14805TIP3   OH265905   1.497   2.971  11.686  0.1886  0.5878 -0.5302
14805TIP3    H165906   1.423   2.993  11.742  0.8183  1.7366 -0.1185
14805TIP3    H265907   1.467   2.994  11.597 -0.2782  0.1331 -0.5011
14806TIP3   OH265908   6.209   1.088  13.554  0.3671 -0.2672  0.2264
14806TIP3    H165909   6.159   1.008  13.536 -0.4655  0.4082 -0.5324
14806TIP3    H265910   6.147   1.146  13.598  1.1180 -0.2137  1.2663
14807TIP3   OH265911   0.562   1.913  13.460  0.0462  0.5718  0.4464
14807TIP3    H165912   0.474   1.878  13.471 -0.2161  0.5596 -1.3313
14807TIP3    H265913   0.615   1.838  13.434  0.6106  0.5614  1.5913
14808TIP3   OH265914   4.083   2.070  15.642  0.7655  0.4749 -0.0654
14808TIP3    H165915   4.145   2.053  15.571 -1.5577 -2.1419 -1.6995
14808TIP3    H265916   4.052   2.160  15.626  3.3497  1.5175  0.3010
14809TIP3   OH265917   1.082   3.153  14.861 -0.7831 -0.4597 -0.0410
14809TIP3    H165918   1.019   3.219  14.891  0.4082  0.9440 -0.4669
14809TIP3    H265919   1.111   3.185  14.776  2.9291  0.8404  1.4886
14810TIP3   OH265920   2.056   5.804  13.706 -0.5443 -0.5279  0.4081
14810TIP3    H165921   2.135   5.790  13.759 -0.9041 -1.5181  0.7156
14810TIP3    H265922   1.985   5.776  13.763 -1.0792 -0.0753 -0.0317
14811TIP3   OH265923   5.576   6.764  13.366  0.4634  0.2005 -0.5198
14811TIP3    H165924   5.640   6.800  13.305  1.0321 -0.3092 -0.2338
14811TIP3    H265925   5.582   6.669  13.355 -0.6961  0.1602 -0.9428
14812TIP3   OH265926   0.502   1.000  16.201  0.7348 -0.1354 -0.8058
14812TIP3    H165927   0.551   0.995  16.283  0.0481  0.7131 -0.3171
14812TIP3    H265928   0.538   1.077  16.157  1.5110 -0.9348 -1.5908
14813TIP3   OH265929   4.218   1.252   0.660 -0.4676  0.7528 -0.0927
14813TIP3    H165930   4.252   1.299   0.736 -1.2599 -1.4637  1.7477
14813TIP3    H265931   4.220   1.160   0.685  0.1634 -0.1976 -3.1737
14814TIP3   OH265932   2.589   1.698   0.124  0.6771 -0.2205  0.5064
14814TIP3    H165933   2.678   1.676   0.153 -0.0981 -1.7965  1.8705
14814TIP3    H265934   2.569   1.780   0.170  1.5678  0.4197 -0.1943
14815TIP3   OH265935   2.114   4.992   4.701 -0.2318 -0.1654  0.4441
14815TIP3    H165936   2.167   5.015   4.625  1.3214  1.4301  1.9512
14815TIP3    H265937   2.032   5.040   4.687 -1.6174 -2.9169 -2.0661
14816TIP3   OH265938   4.026   6.270  13.511  0.3653  0.6567 -0.1384
14816TIP3    H165939   3.945   6.301  13.470  1.1329  1.1284 -1.3750
14816TIP3    H265940   4.088   6.265  13.438  0.8425 -1.8649  0.3708
14817TIP3   OH265941   5.081   5.544  16.188  0.1835 -0.0875 -0.2156
14817TIP3    H165942   5.032   5.477  16.236  1.0784 -1.1287 -0.6786
14817TIP3    H265943   5.102   5.501  16.104 -0.2840  1.2327 -1.0336
14818TIP3   OH265944   1.584   5.001   6.379  0.1213  0.1056  0.0301
14818TIP3    H165945   1.561   4.909   6.371 -0.1154  0.1626  0.0299
14818TIP3    H265946   1.505   5.048   6.351  0.5598  0.3137 -0.8890
14819TIP3   OH265947   1.884   6.641   1.516  0.3379 -0.1108 -0.9673
14819TIP3    H165948   1.835   6.640   1.598  0.7161  1.0308 -0.7071
14819TIP3    H265949   1.817   6.627   1.449 -0.2534  0.6937 -0.5711
14820TIP3   OH265950   5.257   3.756   0.432 -0.5613  0.4141 -0.2767
14820TIP3    H165951   5.287   3.807   0.357 -0.9198 -0.1501 -0.8127
14820TIP3    H265952   5.330   3.697   0.451 -0.2918  0.8704  0.1085
14821TIP3   OH265953   5.098   5.407  11.687  0.1752  0.6052  0.3715
14821TIP3    H165954   5.068   5.360  11.609  1.5827  0.3734 -0.0619
14821TIP3    H265955   5.085   5.345  11.759 -0.1490  0.4302  0.1671
14822TIP3   OH265956   5.856   0.020   4.779  0.7627 -0.9454 -0.4134
14822TIP3    H165957   5.770   0.012   4.737  0.5472  1.7820 -0.7265
14822TIP3    H265958   5.870   0.115   4.787  2.0500 -1.2796  3.2000
14823TIP3   OH265959   0.678   3.111  14.022  0.9118  0.2286 -0.1241
14823TIP3    H165960   0.636   3.030  13.993  1.7671  0.2202 -1.4337
14823TIP3    H265961   0.748   3.082  14.081  0.3398  0.1093  0.4961
14824TIP3   OH265962   1.411   2.925  16.941 -0.0539  0.2827  0.4508
14824TIP3    H165963   1.436   2.871  17.016 -0.7641 -0.3180  0.2726
14824TIP3    H265964   1.485   2.984  16.928  0.0801  0.4000  1.6227
14825TIP3   OH265965   2.468   3.059  14.123 -0.6744  0.4067  0.1806
14825TIP3    H165966   2.478   3.130  14.060 -2.2500 -0.3768 -1.0268
14825TIP3    H265967   2.388   3.082  14.172 -0.4032  0.1645  0.7394
14826TIP3   OH265968   2.552   1.692   0.875 -0.1917 -0.3070 -0.0458
14826TIP3    H165969   2.570   1.636   0.950  1.0996  0.4352  0.2323
14826TIP3    H265970   2.538   1.779   0.912 -0.3138 -0.0853 -0.6008
14827TIP3   OH265971   2.033   2.731   3.862  0.1810  0.5056 -0.1455
14827TIP3    H165972   2.056   2.776   3.781  0.1636  0.5626 -0.1188
14827TIP3    H265973   2.117   2.702   3.898  0.1778  0.3561 -0.2552
14828TIP3   OH265974   1.705   5.965   1.584  0.1293  0.5248  0.0076
14828TIP3    H165975   1.621   5.918   1.591  1.7553 -2.5196  1.3891
14828TIP3    H265976   1.715   6.007   1.669 -0.3518  1.6379 -0.4712
14829TIP3   OH265977   5.767   4.704  15.737  0.8222  0.1562  0.1647
14829TIP3    H165978   5.832   4.634  15.736  0.8787  0.1683  1.4085
14829TIP3    H265979   5.798   4.767  15.672  0.5228 -1.1569 -1.3118
14830TIP3   OH265980   2.846   2.666  16.662  0.1098  0.1617 -0.0544
14830TIP3    H165981   2.804   2.593  16.706 -0.3842 -0.2625 -1.1951
14830TIP3    H265982   2.804   2.744  16.700 -0.7364 -0.2129 -0.1948
14831TIP3   OH265983   0.150   0.188  15.203 -0.5279  1.1081 -0.2474
14831TIP3    H165984   0.079   0.233  15.249 -1.2399 -2.3163  2.3548
14831TIP3    H265985   0.204   0.150  15.273 -1.2073 -3.7671 -1.9878
14832TIP3   OH265986   2.240   5.782  13.929  1.0638 -1.2627 -0.3655
14832TIP3    H165987   2.231   5.878  13.924 -0.7873 -1.3965 -0.4035
14832TIP3    H265988   2.191   5.758  14.007  0.4469 -2.2815 -1.0504
14833TIP3   OH265989   6.617   0.988   5.508  0.0996  0.3847  0.0232
14833TIP3    H165990   6.523   1.005   5.508 -0.0969 -0.6531 -0.2160
14833TIP3    H265991   6.655   1.063   5.555 -1.1326 -0.6694  2.9209
14834TIP3   OH265992   0.982   6.149  13.613 -0.2867  0.1613  0.4965
14834TIP3    H165993   0.943   6.125  13.697 -1.3433  1.4171  0.4083
14834TIP3    H265994   0.964   6.243  13.604 -2.5150 -0.3675 -2.2418
14835TIP3   OH265995   3.640   2.390   5.576  0.4221 -1.0402 -0.2586
14835TIP3    H165996   3.545   2.389   5.558  0.3742  0.3332 -0.1721
14835TIP3    H265997   3.677   2.335   5.507 -0.1860  0.7589 -2.1385
14836TIP3   OH265998   0.519   0.352   1.754  0.0586  0.2667  0.4884
14836TIP3    H165999   0.561   0.412   1.693  1.6811 -0.7041  0.5815
14836TIP3    H266000   0.554   0.376   1.840  1.2958 -1.2091  0.4436
14837TIP3   OH266001   4.364   0.429  16.923 -0.0809 -0.6303 -0.1204
14837TIP3    H166002   4.433   0.485  16.887 -1.1139 -0.1442 -1.4394
14837TIP3    H266003   4.322   0.483  16.989  1.7967 -1.5091  1.9247
14838TIP3   OH266004   0.811   1.261   3.588  0.0118 -0.1545  0.0531
14838TIP3    H166005   0.847   1.224   3.669  0.0677  0.0529  0.1249
14838TIP3    H266006   0.882   1.254   3.524  0.0572 -0.0780  0.0948
14839TIP3   OH266007   3.133   3.883   0.375 -0.3585  0.3136  0.7275
14839TIP3    H166008   3.126   3.885   0.471  1.2430 -1.0828  0.9136
14839TIP3    H266009   3.042   3.880   0.345 -0.8725 -0.1714  2.2320
14840TIP3   OH266010   6.373   6.606  13.724 -0.5765 -0.8552 -0.3334
14840TIP3    H166011   6.461   6.642  13.721 -0.6316 -0.5906  0.8706
14840TIP3    H266012   6.315   6.682  13.711 -0.6589 -0.7128  0.7802
14841TIP3   OH266013   2.388   2.283  14.260  0.2462 -0.1035  0.0212
14841TIP3    H166014   2.296   2.310  14.247  0.7955  2.5291  0.8359
14841TIP3    H266015   2.383   2.194  14.293 -1.9603 -0.3988 -0.9350
14842TIP3   OH266016   5.187   1.210  15.935  0.2600 -0.3639 -0.3086
14842TIP3    H166017   5.127   1.174  15.870 -0.1620  1.4853 -1.0088
14842TIP3    H266018   5.254   1.142  15.947 -0.7200 -1.5235 -1.2053
14843TIP3   OH266019   0.884   4.427   3.760  0.0152 -0.0743  0.1441
14843TIP3    H166020   0.921   4.497   3.705 -0.2588  0.6481  0.8561
14843TIP3    H266021   0.936   4.429   3.840 -1.4065  0.8641  1.1044
14844TIP3   OH266022   0.813   3.948   1.767  0.4014  0.1234  0.1226
14844TIP3    H166023   0.867   3.915   1.696 -0.0751 -1.5113  0.4647
14844TIP3    H266024   0.867   3.938   1.845 -0.1127 -0.9123  0.3742
14845TIP3   OH266025   3.658   1.313   3.526 -0.2320  0.1959 -0.0557
14845TIP3    H166026   3.617   1.337   3.609 -2.5412 -1.9971 -0.4260
14845TIP3    H266027   3.718   1.242   3.549  0.0321  0.3934 -0.1246
14846TIP3   OH266028   1.445   1.991  17.035  0.6215  0.7674 -0.3395
14846TIP3    H166029   1.432   2.021  16.945 -0.7793  0.2706 -0.3296
14846TIP3    H266030   1.539   2.001  17.050  0.5511  3.1363 -1.0354
14847TIP3   OH266031   0.265   6.459   4.403  0.1763 -0.1884 -0.1778
14847TIP3    H166032   0.344   6.460   4.457  0.5784  2.0250 -0.6824
14847TIP3    H266033   0.194   6.479   4.465  0.8152  3.9778 -0.4844
14848TIP3   OH266034   3.288   5.057   0.351  0.4336  0.6425 -0.0932
14848TIP3    H166035   3.339   5.126   0.308 -0.0675  0.4901 -0.9399
14848TIP3    H266036   3.259   5.000   0.280  1.5498 -0.9349  0.6621
14849TIP3   OH266037   2.402   0.616   5.091  0.4795  0.1753  0.2965
14849TIP3    H166038   2.363   0.663   5.017 -1.1602 -0.3979  0.7569
14849TIP3    H266039   2.475   0.568   5.053 -0.7579 -0.6592 -1.1150
14850TIP3   OH266040   2.487   5.991   3.623 -0.5088 -0.2154  0.0331
14850TIP3    H166041   2.507   5.979   3.530 -0.5334 -0.6413  0.0809
14850TIP3    H266042   2.425   5.920   3.643 -0.4095 -0.1980  0.4039
14851TIP3   OH266043   2.492   6.215   6.241  0.2399 -0.0645 -0.2489
14851TIP3    H166044   2.414   6.228   6.187  1.4251  1.2121 -1.7561
14851TIP3    H266045   2.478   6.130   6.282 -1.1646 -0.6701 -1.8434
14852TIP3   OH266046   0.557   0.741  13.318  0.2298  0.3667 -0.5043
14852TIP3    H166047   0.463   0.737  13.301  0.1107 -0.5682  0.2653
14852TIP3    H266048   0.597   0.720  13.234 -0.2854 -0.9641 -0.4441
14853TIP3   OH266049   5.770   4.529   6.131 -0.2512  0.1638 -0.4187
14853TIP3    H166050   5.696   4.475   6.157 -0.4360 -0.1578 -1.5477
14853TIP3    H266051   5.748   4.559   6.043 -0.6024  2.8998  0.5113
14854TIP3   OH266052   3.463   2.184  13.872  0.4373  0.0985  0.1463
14854TIP3    H166053   3.526   2.176  13.943  0.8416 -2.1438 -0.3975
14854TIP3    H266054   3.516   2.211  13.796  0.4296  0.0045  0.1078
14855TIP3   OH266055   4.800   0.382  13.868 -0.3896 -0.4821 -0.2191
14855TIP3    H166056   4.761   0.296  13.851 -2.6433  0.6253 -0.9993
14855TIP3    H266057   4.736   0.427  13.922  0.7317  0.7669  0.1234
14856TIP3   OH266058   5.912   1.553   0.098 -0.1112  0.0483 -0.0796
14856TIP3    H166059   5.960   1.513   0.026 -2.5256 -0.4946 -1.5280
14856TIP3    H266060   5.944   1.508   0.176  0.8565 -1.1025 -1.0909
14857TIP3   OH266061   1.938   0.743   3.753 -0.0983 -0.2883  0.5281
14857TIP3    H166062   1.928   0.654   3.719 -1.0868  0.2313 -0.5732
14857TIP3    H266063   1.940   0.799   3.676  3.4268  0.4623  0.9904
14858TIP3   OH266064   2.376   4.414  12.406  0.1730 -0.4838  0.3851
14858TIP3    H166065   2.456   4.412  12.353 -0.1019 -2.6315 -0.0107
14858TIP3    H266066   2.308   4.377  12.349 -0.6479 -0.6414  1.4396
14859TIP3   OH266067   4.227   6.247   5.226 -0.4029 -0.1261 -0.1046
14859TIP3    H166068   4.192   6.271   5.140 -2.3657  0.2268  0.7342
14859TIP3    H266069   4.250   6.154   5.217  2.2825  0.5685 -1.8190
14860TIP3   OH266070   3.054   2.088  16.374 -0.0770 -0.1623 -0.3356
14860TIP3    H166071   3.122   2.155  16.365  0.2491 -0.4386  0.0531
14860TIP3    H266072   3.084   2.016  16.319 -0.6994  0.2103 -1.1969
14861TIP3   OH266073   5.870   6.569  16.718  0.7860 -0.2411 -0.5401
14861TIP3    H166074   5.881   6.559  16.812  0.5376  3.8926  0.1078
14861TIP3    H266075   5.775   6.575  16.706  0.8865  1.2119 -0.7260
14862TIP3   OH266076   0.747   0.413   2.810 -0.0510  0.0131  0.6796
14862TIP3    H166077   0.754   0.330   2.763  1.2151  0.8143 -0.6374
14862TIP3    H266078   0.786   0.395   2.895  1.2854 -0.4734 -0.0032
14863TIP3   OH266079   3.829   6.685   2.988  0.2222  0.5102 -0.0868
14863TIP3    H166080   3.828   6.607   2.932 -0.2988  0.3608  0.1221
14863TIP3    H266081   3.738   6.714   2.989  0.3843  1.0190 -0.0161
14864TIP3   OH266082   5.539   5.559   0.465 -0.1724 -0.2648 -0.3112
14864TIP3    H166083   5.459   5.547   0.516  0.4986  0.6825  1.0358
14864TIP3    H266084   5.597   5.489   0.494  0.0126 -0.0505 -0.1524
14865TIP3   OH266085   0.017   4.943   3.979 -0.4017  0.2827  0.1275
14865TIP3    H166086   0.111   4.929   3.990 -0.7611 -1.6272  1.2243
14865TIP3    H266087   0.008   5.038   3.969  1.6171  0.5226  0.1239
14866TIP3   OH266088   1.473   4.739   6.108  0.2844 -0.3759  0.1580
14866TIP3    H166089   1.544   4.736   6.044 -2.0490  0.0581 -2.6574
14866TIP3    H266090   1.418   4.811   6.078 -1.5308 -0.9043  2.0398
14867TIP3   OH266091   3.362   0.174   6.257  0.1865  0.3929 -0.6766
14867TIP3    H166092   3.269   0.198   6.265  0.2949  0.5582  0.2522
14867TIP3    H266093   3.364   0.112   6.185 -0.8104 -0.3707 -0.0826
14868TIP3   OH266094   2.241   0.594  11.312 -0.1701  0.0928  0.2585
14868TIP3    H166095   2.260   0.538  11.237  0.0906  0.2705  0.1895
14868TIP3    H266096   2.197   0.536  11.375 -2.2319  0.4101 -0.8100
14869TIP3   OH266097   3.216   6.311   2.822  0.2187  0.2607  0.3381
14869TIP3    H166098   3.304   6.286   2.851 -0.4400 -2.1006  0.4720
14869TIP3    H266099   3.202   6.397   2.862  1.7168 -0.1721  1.9664
14870TIP3   OH266100   5.690   2.802   2.226 -0.0062 -0.1933  0.1487
14870TIP3    H166101   5.762   2.792   2.164  2.0612 -2.7739  2.7334
14870TIP3    H266102   5.682   2.896   2.239 -0.9593  0.5796 -4.2693
14871TIP3   OH266103   1.025   1.882   0.482 -0.0882  0.1009 -0.4897
14871TIP3    H166104   0.952   1.942   0.496  0.3974  0.6870 -0.4657
14871TIP3    H266105   0.985   1.795   0.491 -0.5795  0.4163  0.6029
14872TIP3   OH266106   3.728   0.063  14.719  0.1715  0.3532  0.0836
14872TIP3    H166107   3.683   0.014  14.787  1.3106  0.2096  0.7424
14872TIP3    H266108   3.820   0.063  14.745  0.3592  1.9100 -0.4642
14873TIP3   OH266109   5.886   2.571   5.705 -0.4669 -0.4984  0.1929
14873TIP3    H166110   5.834   2.511   5.650 -0.9485  0.0380  0.0550
14873TIP3    H266111   5.837   2.576   5.787 -0.5988 -0.0519  0.0905
14874TIP3   OH266112   2.053   1.987  15.041 -0.1109 -0.0577 -0.3554
14874TIP3    H166113   2.069   1.897  15.012 -2.1118 -0.3821 -0.5883
14874TIP3    H266114   2.096   2.041  14.975  2.8779 -0.7696  0.8539
14875TIP3   OH266115   2.851   2.901  14.395  0.0243  0.1355 -0.3672
14875TIP3    H166116   2.769   2.950  14.389 -0.1376 -0.2472 -1.5086
14875TIP3    H266117   2.859   2.856  14.311  2.1986  1.3949 -0.9217
14876TIP3   OH266118   4.140   1.647   4.677 -0.0588 -0.4754 -0.2453
14876TIP3    H166119   4.228   1.683   4.689  0.1254 -1.5115  2.0799
14876TIP3    H266120   4.150   1.577   4.613  0.7980 -0.5470 -0.0337
14877TIP3   OH266121   0.652   2.095   2.393  0.6669  0.3873 -0.2650
14877TIP3    H166122   0.561   2.121   2.404  1.1153  0.8973  3.4305
14877TIP3    H266123   0.696   2.174   2.362 -0.0873  0.1345 -2.0766
14878TIP3   OH266124   2.534   5.844  12.112  0.2935 -0.1340  0.5897
14878TIP3    H166125   2.615   5.805  12.144  0.6336  1.1335  1.3136
14878TIP3    H266126   2.562   5.909  12.048 -0.1211  0.4781  1.0179
14879TIP3   OH266127   4.725   0.987  14.457 -0.3995 -0.2966 -0.5901
14879TIP3    H166128   4.724   0.897  14.489 -0.6302 -0.4414 -1.0000
14879TIP3    H266129   4.674   0.985  14.377  0.8129 -0.0926 -1.3978
14880TIP3   OH266130   4.139   6.515  14.506  0.3171  0.5805 -0.5644
14880TIP3    H166131   4.121   6.571  14.581 -0.8793  1.6791 -1.6257
14880TIP3    H266132   4.222   6.547  14.470  0.8726  0.0763  0.2201
14881TIP3   OH266133   3.662   1.961  10.833 -0.2751 -0.5046 -0.1373
14881TIP3    H166134   3.739   2.011  10.858  0.0706 -1.1331  0.0835
14881TIP3    H266135   3.611   1.952  10.914  0.0857 -1.2289  0.0168
14882TIP3   OH266136   3.111   2.983   6.267 -0.4944 -0.2805  0.1105
14882TIP3    H166137   3.069   2.915   6.319  0.6607 -1.1808 -0.1029
14882TIP3    H266138   3.205   2.973   6.286 -0.2498  0.7920 -0.4740
14883TIP3   OH266139   2.174   0.883   0.163  0.4769  0.2768  0.1131
14883TIP3    H166140   2.213   0.899   0.076  0.3510  2.2337  0.3644
14883TIP3    H266141   2.219   0.945   0.220 -1.2315  0.8281  0.9247
14884TIP3   OH266142   3.938   4.214   2.450  0.2599  0.7861 -0.0577
14884TIP3    H166143   4.019   4.223   2.400  0.7890 -3.7633 -0.4637
14884TIP3    H266144   3.964   4.226   2.541  1.4786 -0.7120 -0.1783
14885TIP3   OH266145   4.056   4.281   4.423  0.3369 -0.2863 -0.8963
14885TIP3    H166146   4.018   4.227   4.355 -2.9391  0.9673 -0.2284
14885TIP3    H266147   4.040   4.232   4.504 -0.0725  0.3652 -0.5776
14886TIP3   OH266148   0.270   6.451  16.331 -0.1805  0.0813 -0.0038
14886TIP3    H166149   0.189   6.431  16.285 -1.8132  2.9457  1.2998
14886TIP3    H266150   0.256   6.419  16.420 -0.0738  0.8884  0.3162
14887TIP3   OH266151   5.410   3.195  15.600  0.1052 -0.0781 -0.8803
14887TIP3    H166152   5.410   3.102  15.579 -1.2237 -0.0572 -1.0923
14887TIP3    H266153   5.322   3.210  15.637  1.4299  0.3661  2.4965
14888TIP3   OH266154   1.811   3.769   1.339  0.3310 -0.5388 -0.3368
14888TIP3    H166155   1.843   3.686   1.374 -0.9813 -1.3458 -0.9931
14888TIP3    H266156   1.729   3.785   1.386  1.4915  1.4108  1.1931
14889TIP3   OH266157   1.544   1.339  11.650  0.3095 -0.1785  0.4259
14889TIP3    H166158   1.477   1.273  11.629  1.2325 -0.6666 -1.2190
14889TIP3    H266159   1.627   1.294  11.633  1.1326  0.1433  3.2125
14890TIP3   OH266160   5.926   2.535   1.847  0.2795  0.1983  0.0269
14890TIP3    H166161   5.957   2.446   1.829 -1.1422 -0.4649  0.6933
14890TIP3    H266162   5.848   2.545   1.792 -0.3216  0.5422  0.9174
14891TIP3   OH266163   0.810   3.948  16.366  0.3185 -0.1291 -0.0887
14891TIP3    H166164   0.752   3.932  16.292  1.5623  0.5309 -1.2444
14891TIP3    H266165   0.867   4.019  16.337  0.6237  0.3735  1.6361
14892TIP3   OH266166   2.651   3.832  15.555 -0.0578 -0.8044  0.1430
14892TIP3    H166167   2.631   3.909  15.502 -0.9951 -1.2906 -0.2289
14892TIP3    H266168   2.746   3.831  15.560 -0.0209  0.2715  0.0019
14893TIP3   OH266169   3.496   2.401  12.869 -0.0441 -0.4896 -0.0757
14893TIP3    H166170   3.419   2.441  12.828 -0.1655  0.2154  0.8118
14893TIP3    H266171   3.495   2.310  12.839  0.0911  0.0760 -1.9385
14894TIP3   OH266172   3.869   2.472  14.812  0.2539  0.2400 -0.2395
14894TIP3    H166173   3.778   2.449  14.831  0.1696  1.4921  1.0191
14894TIP3    H266174   3.897   2.408  14.747 -1.5679 -0.0814 -0.7530
14895TIP3   OH266175   2.369   2.651   2.430  0.1892 -0.4699 -0.0787
14895TIP3    H166176   2.279   2.682   2.425  0.5405  0.7086  0.4397
14895TIP3    H266177   2.405   2.666   2.342  0.2924  0.4409  0.1082
14896TIP3   OH266178   0.583   4.223   5.741  0.2508  0.8409  0.2668
14896TIP3    H166179   0.489   4.236   5.726 -0.0944 -0.6116  0.9842
14896TIP3    H266180   0.625   4.258   5.663 -0.9266  0.9028 -0.3551
14897TIP3   OH266181   0.448   4.246   2.578 -0.0083 -0.6130 -0.1142
14897TIP3    H166182   0.499   4.272   2.655 -1.5684 -0.9955  1.0889
14897TIP3    H266183   0.475   4.309   2.510  2.6016 -1.2693  0.1981
14898TIP3   OH266184   2.394   3.998  12.547 -0.1762  0.6121 -0.2964
14898TIP3    H166185   2.340   4.064  12.505 -0.5037 -0.0912 -1.0168
14898TIP3    H266186   2.371   4.002  12.640 -1.2909  0.4978 -0.5542
14899TIP3   OH266187   1.752   4.775  15.221  0.0691 -0.3853 -0.0427
14899TIP3    H166188   1.833   4.773  15.272  0.1651  0.0325 -0.1794
14899TIP3    H266189   1.772   4.832  15.147 -1.0391  1.5763  1.0814
14900TIP3   OH266190   0.539   0.334   4.431 -0.3974 -0.5154  0.3389
14900TIP3    H166191   0.485   0.394   4.380 -0.5852  1.5317  2.7536
14900TIP3    H266192   0.498   0.249   4.420 -2.0538  0.3637 -0.6847
14901TIP3   OH266193   4.312   3.342  11.130 -0.2205  0.2662 -0.3918
14901TIP3    H166194   4.313   3.382  11.217 -0.2245  1.5922 -0.9810
14901TIP3    H266195   4.219   3.325  11.113 -0.1086 -1.4952  0.4898
14902TIP3   OH266196   4.842   2.679   3.506  0.1698 -0.3460  0.5410
14902TIP3    H166197   4.803   2.655   3.590 -0.8184  1.6619  0.7030
14902TIP3    H266198   4.936   2.686   3.524  0.0574 -0.6785  1.2886
14903TIP3   OH266199   5.978   2.244   2.735 -0.7098  0.0915  0.0187
14903TIP3    H166200   5.925   2.322   2.753 -0.4801  0.2171  0.1543
14903TIP3    H266201   5.968   2.230   2.641 -1.0030  0.1010  0.0472
14904TIP3   OH266202   4.873   1.838   5.168 -0.1834 -0.4213  1.0229
14904TIP3    H166203   4.825   1.911   5.128  1.6550 -0.9042 -2.4508
14904TIP3    H266204   4.854   1.763   5.112  1.2077 -1.6133  2.0790
14905TIP3   OH266205   5.493   5.799   1.911  0.2868  0.4513  0.2516
14905TIP3    H166206   5.415   5.800   1.857  1.1228  1.8713 -0.9986
14905TIP3    H266207   5.540   5.719   1.885  0.6013  1.0312 -1.0683
14906TIP3   OH266208   6.029   6.819  12.711  0.0812  0.0638  0.2951
14906TIP3    H166209   6.004   6.911  12.701 -0.3272 -0.0465  0.2726
14906TIP3    H266210   5.971   6.786  12.779 -0.8850 -0.5836 -0.8088
14907TIP3   OH266211   2.319   6.547   1.840 -0.8314 -1.0119  0.2358
14907TIP3    H166212   2.390   6.519   1.782 -0.0415  2.4320 -0.7087
14907TIP3    H266213   2.239   6.531   1.791 -0.2440  0.7401 -1.3950
14908TIP3   OH266214   5.405   3.142   1.890 -0.1254  0.1347  0.3974
14908TIP3    H166215   5.491   3.175   1.865 -0.3174 -0.2481 -0.8419
14908TIP3    H266216   5.346   3.170   1.820 -1.4501  2.1094  2.1899
14909TIP3   OH266217   5.310   5.304  15.329 -0.5125 -0.4465  0.1566
14909TIP3    H166218   5.268   5.388  15.312  0.2441 -0.1287 -0.2021
14909TIP3    H266219   5.385   5.326  15.385 -0.0571 -0.8099 -0.2942
14910TIP3   OH266220   2.777   3.352  11.956  0.5802  0.5977 -0.7894
14910TIP3    H166221   2.715   3.406  11.908 -0.8303  1.2025  1.5997
14910TIP3    H266222   2.812   3.292  11.889 -2.5136  0.2451 -2.2705
14911TIP3   OH266223   2.297   4.460  16.067  0.0031 -0.7161 -0.4089
14911TIP3    H166224   2.236   4.457  15.993  1.1189 -0.4030 -1.3630
14911TIP3    H266225   2.263   4.530  16.123 -0.3001 -0.2902 -1.1140
14912TIP3   OH266226   4.950   3.059   6.476 -0.2961  0.0017 -0.7380
14912TIP3    H166227   5.044   3.040   6.476 -0.4064 -0.5571 -0.7889
14912TIP3    H266228   4.926   3.059   6.569 -0.4127 -0.7278 -0.7616
14913TIP3   OH266229   2.192   5.802  14.727 -0.3869 -0.6090 -0.0776
14913TIP3    H166230   2.154   5.785  14.813 -2.8599  0.3624 -0.9080
14913TIP3    H266231   2.127   5.769  14.665  1.0341 -0.6591 -1.6030
14914TIP3   OH266232   4.958   2.939  14.331 -0.0873  0.1793 -0.4461
14914TIP3    H166233   5.001   2.967  14.412 -1.7907  1.2868  0.1464
14914TIP3    H266234   5.019   2.877  14.292  0.2046 -1.5315  2.3887
14915TIP3   OH266235   6.367   6.710  14.721  0.2353  0.1934  0.0603
14915TIP3    H166236   6.391   6.769  14.649  0.0598 -0.2878 -0.3978
14915TIP3    H266237   6.450   6.689  14.764  0.3733  0.2669 -0.1696
14916TIP3   OH266238   6.351   0.543   0.924 -0.1240 -0.0511 -0.2898
14916TIP3    H166239   6.312   0.630   0.929  1.2885  0.5409  0.9589
14916TIP3    H266240   6.365   0.528   0.830 -2.5033  0.0498 -0.7142
14917TIP3   OH266241   1.310   2.829  14.024  0.4964  0.0857 -0.3572
14917TIP3    H166242   1.349   2.825  13.937  1.5799  1.6561  0.0064
14917TIP3    H266243   1.294   2.922  14.039 -1.7115 -0.3326  0.2849
14918TIP3   OH266244   1.235   5.182   5.480  0.3746 -0.3958  0.6496
14918TIP3    H166245   1.240   5.275   5.461  0.0140 -0.8378 -1.9789
14918TIP3    H266246   1.239   5.139   5.394  1.0562 -2.8356  1.7975
14919TIP3   OH266247   6.797   2.678  14.002 -0.2195  0.6912  0.1133
14919TIP3    H166248   6.867   2.707  14.061 -0.0930  1.2828 -0.3134
14919TIP3    H266249   6.768   2.758  13.958 -0.1454  0.2191 -0.8099
14920TIP3   OH266250   5.264   3.003   5.144 -1.1850  0.3619  0.5250
14920TIP3    H166251   5.340   2.950   5.120  0.9549  2.9096  1.2505
14920TIP3    H266252   5.213   2.947   5.203  0.9328 -0.9141  1.2360
14921TIP3   OH266253   6.717   4.666  12.405 -0.0175  0.4918  1.0101
14921TIP3    H166254   6.808   4.681  12.431  0.4986  1.2397 -1.0350
14921TIP3    H266255   6.689   4.749  12.367 -1.7104  0.3901  1.9430
14922TIP3   OH266256   5.969   0.090   4.282  0.5749  0.0314  0.1720
14922TIP3    H166257   5.899   0.044   4.236 -0.6085  1.2151  0.7540
14922TIP3    H266258   5.944   0.087   4.374  1.4754  0.1884  0.4363
14923TIP3   OH266259   5.083   6.254  14.990 -0.4244  0.6553  0.3462
14923TIP3    H166260   5.057   6.163  14.980 -0.6219  0.7377  0.0800
14923TIP3    H266261   5.177   6.252  15.004 -0.4294  0.4113  0.3386
14924TIP3   OH266262   4.368   2.779  12.354 -0.4330 -0.5136  0.3240
14924TIP3    H166263   4.367   2.798  12.448  0.8527  0.7561  0.1120
14924TIP3    H266264   4.291   2.825  12.320 -0.7734 -0.7852  0.7164
14925TIP3   OH266265   5.234   0.026   4.951  0.4832  0.5109 -0.1315
14925TIP3    H166266   5.191  -0.010   4.874 -0.1043  0.7700  0.0645
14925TIP3    H266267   5.207  -0.032   5.022 -0.0969  1.0580  0.1069
14926TIP3   OH266268   1.929   4.896   0.649 -0.9336  0.2692  0.2215
14926TIP3    H166269   2.021   4.892   0.675 -1.5501  0.0418  2.6072
14926TIP3    H266270   1.915   4.987   0.623  0.3005 -0.0453 -1.6875
14927TIP3   OH266271   0.371   0.519   5.572  0.1481  0.1123 -0.1212
14927TIP3    H166272   0.390   0.557   5.658  1.5638  1.0982 -0.8293
14927TIP3    H266273   0.278   0.499   5.574 -0.4155  2.5492  0.7087
14928TIP3   OH266274   0.558   5.394   0.542 -0.2056 -0.9153 -0.5678
14928TIP3    H166275   0.525   5.314   0.584 -0.4019  0.1809  1.5269
14928TIP3    H266276   0.606   5.439   0.612  1.2789  0.0507 -2.1399
14929TIP3   OH266277   1.148   3.120   5.708  0.6069 -0.2072 -0.2618
14929TIP3    H166278   1.242   3.133   5.722  0.8861 -2.0787 -0.0586
14929TIP3    H266279   1.107   3.198   5.746  2.0779  0.7362 -0.5299
14930TIP3   OH266280   1.747   6.105  14.032 -0.2155 -0.0358 -0.2975
14930TIP3    H166281   1.796   6.114  14.114  0.7259 -0.7127 -0.7628
14930TIP3    H266282   1.675   6.046  14.052 -0.9842  1.0984  0.4387
14931TIP3   OH266283   2.148   5.524  13.338  0.3073 -0.5873  0.2327
14931TIP3    H166284   2.237   5.499  13.313  0.5063  1.5793 -1.5600
14931TIP3    H266285   2.092   5.464  13.290  0.7890 -0.9943  0.1754
14932TIP3   OH266286   3.040   0.919   1.323  0.2877 -0.0151 -0.5063
14932TIP3    H166287   2.970   0.881   1.376 -1.2830 -0.0500 -2.4922
14932TIP3    H266288   3.112   0.856   1.331 -0.4484 -0.7766  0.3509
14933TIP3   OH266289   0.427   0.767  12.799  0.8787  0.1308  0.1305
14933TIP3    H166290   0.381   0.764  12.716 -1.5160 -1.2145  1.4094
14933TIP3    H266291   0.425   0.859  12.825 -0.8244  0.1526 -0.0299
14934TIP3   OH266292   5.967   4.497  11.291  0.1936 -0.2421 -0.7138
14934TIP3    H166293   6.032   4.546  11.341 -0.8659 -0.8659  1.3872
14934TIP3    H266294   5.899   4.561  11.270  0.2491 -0.1638 -0.6514
14935TIP3   OH266295   5.287   4.705  12.464 -0.2406  0.0118  1.0436
14935TIP3    H166296   5.301   4.651  12.542 -0.3757 -0.6420  0.6216
14935TIP3    H266297   5.212   4.666  12.420  0.8793 -0.7105 -0.3329
14936TIP3   OH266298   3.050   4.558   6.090  0.3497 -0.5078 -0.0475
14936TIP3    H166299   3.036   4.627   6.155 -0.4883  0.9633 -1.6704
14936TIP3    H266300   3.056   4.477   6.140 -1.1459  0.4476  1.7949
14937TIP3   OH266301   0.521   1.468  15.106 -0.2711 -0.7588  0.3598
14937TIP3    H166302   0.515   1.389  15.159  2.5517  0.0133  2.0250
14937TIP3    H266303   0.614   1.491  15.106 -0.4594  0.6600 -2.9976
14938TIP3   OH266304   5.630   5.439  12.661  0.0862 -0.6279  0.2263
14938TIP3    H166305   5.703   5.445  12.599  0.0900  0.7910  0.3348
14938TIP3    H266306   5.611   5.346  12.666  0.3792 -0.8350 -1.5664
14939TIP3   OH266307   0.803   1.844   3.909 -0.2619  0.0294 -0.1074
14939TIP3    H166308   0.757   1.868   3.828 -0.5689  1.9823  0.6019
14939TIP3    H266309   0.883   1.896   3.908 -0.3159  0.1498  0.8957
14940TIP3   OH266310   3.948   1.198  15.463  0.0927  0.4156  0.6549
14940TIP3    H166311   3.906   1.272  15.418 -2.1061 -0.1794  1.5601
14940TIP3    H266312   3.948   1.223  15.555 -0.7126 -0.6996  0.9762
14941TIP3   OH266313   5.737   3.551   3.724 -0.7749 -0.5146  0.0665
14941TIP3    H166314   5.670   3.489   3.752  1.0341 -0.8829  4.3852
14941TIP3    H266315   5.811   3.496   3.699 -0.4704 -0.1200  0.0845
14942TIP3   OH266316   6.523   2.665  16.803  0.0517  0.0213 -0.1855
14942TIP3    H166317   6.594   2.650  16.741  0.2252  1.1789 -0.2871
14942TIP3    H266318   6.528   2.591  16.863  0.5085 -0.5943 -0.9577
14943TIP3   OH266319   6.004   3.009  15.197 -0.0589  0.0621 -0.1694
14943TIP3    H166320   6.027   2.931  15.248 -0.2191  0.4378  0.4997
14943TIP3    H266321   5.933   2.980  15.140 -0.7768 -0.0615  0.7510
14944TIP3   OH266322   4.759   1.912  12.473  1.1490  0.3222 -0.5604
14944TIP3    H166323   4.835   1.935  12.527  2.4040 -0.0916 -2.0737
14944TIP3    H266324   4.782   1.942  12.385  0.8491 -2.4380 -1.6677
14945TIP3   OH266325   0.032   0.312  15.414  0.0833 -0.0199  0.1827
14945TIP3    H166326   0.018   0.404  15.433  0.1120  0.4505 -1.8786
14945TIP3    H266327   0.001   0.266  15.492  0.3028  1.7259  1.3435
14946TIP3   OH266328   1.623   5.928  16.971 -0.6180 -0.2098  0.1101
14946TIP3    H166329   1.603   5.861  17.037  0.2275  0.4261  1.0381
14946TIP3    H266330   1.582   6.008  17.005  1.4903  0.5883  0.8975
14947TIP3   OH266331   0.375   1.579   1.734  0.3698  0.0269  0.4231
14947TIP3    H166332   0.332   1.518   1.794  2.2252 -0.6054  1.2229
14947TIP3    H266333   0.464   1.544   1.725  0.9950  1.7109 -0.4148
14948TIP3   OH266334   4.559   0.623  13.895 -0.1773  0.1043 -0.4214
14948TIP3    H166335   4.508   0.681  13.838 -1.6866  2.1634  2.7622
14948TIP3    H266336   4.519   0.537  13.884 -0.3035  0.3787 -2.4894
14949TIP3   OH266337   2.269   2.174  16.905  0.1223  0.0423 -0.0921
14949TIP3    H166338   2.320   2.130  16.973  0.2127 -1.3522 -1.0033
14949TIP3    H266339   2.325   2.244  16.874  0.3328  0.2928  0.8275
14950TIP3   OH266340   2.770   1.156  13.253 -0.1759  0.2285  0.2585
14950TIP3    H166341   2.691   1.109  13.226  0.0346  0.3066 -0.5316
14950TIP3    H266342   2.841   1.110  13.209  0.0648  1.0773 -0.2618
14951TIP3   OH266343   2.208   4.546   2.743  0.6268  0.0240  0.0587
14951TIP3    H166344   2.156   4.626   2.753  2.4805  1.3274 -0.1513
14951TIP3    H266345   2.151   4.476   2.774 -1.3244  1.3223 -0.4245
14952TIP3   OH266346   2.127   4.952   3.206  0.1454 -0.2508 -0.2176
14952TIP3    H166347   2.132   4.956   3.302 -0.3043 -0.2456 -0.1912
14952TIP3    H266348   2.156   4.863   3.185 -1.7302 -0.9971  0.0858
14953TIP3   OH266349   3.158   3.151  15.707 -0.8179  0.3324 -0.1001
14953TIP3    H166350   3.222   3.187  15.645 -0.2585  2.5951  1.6200
14953TIP3    H266351   3.101   3.226  15.728 -1.5421 -0.5936  1.4076
14954TIP3   OH266352   0.574   2.125  17.272 -0.2769 -0.0068  0.1209
14954TIP3    H166353   0.669   2.121  17.262 -0.3073 -2.2007  0.2108
14954TIP3    H266354   0.539   2.104  17.185 -0.6917  0.6665  0.1166
14955TIP3   OH266355   1.743   4.706   2.993 -0.6088 -0.5206  0.3976
14955TIP3    H166356   1.831   4.706   2.955 -0.2403  0.6919  1.2064
14955TIP3    H266357   1.752   4.751   3.077 -2.2171  0.6490 -0.0027
14956TIP3   OH266358   1.018   2.528   3.639 -0.0149  0.8134  0.2253
14956TIP3    H166359   1.054   2.615   3.624 -0.1699  0.6191 -1.4263
14956TIP3    H266360   0.925   2.543   3.655 -0.3258  0.8894 -1.4431
14957TIP3   OH266361   3.812   4.718  13.393 -0.0671  0.4262 -0.3618
14957TIP3    H166362   3.803   4.693  13.301  1.1102 -0.6767 -0.2002
14957TIP3    H266363   3.771   4.646  13.441  2.1936 -0.6491  0.0679
14958TIP3   OH266364   0.193   2.534   2.515 -0.0298 -0.2410  0.3981
14958TIP3    H166365   0.174   2.551   2.422 -0.0031 -0.0886  0.4196
14958TIP3    H266366   0.132   2.465   2.540  0.6963 -1.0585 -0.0192
14959TIP3   OH266367   0.817   2.608   5.841 -0.1605  0.1375 -0.0672
14959TIP3    H166368   0.789   2.551   5.769  0.2334  0.7941 -0.7439
14959TIP3    H266369   0.745   2.603   5.904 -1.7374  1.5592 -1.6264
14960TIP3   OH266370   4.270   3.096   2.873 -0.1519 -0.1604  0.5633
14960TIP3    H166371   4.335   3.091   2.803 -0.2431  1.6309  0.3077
14960TIP3    H266372   4.186   3.102   2.827 -0.1999  1.2202  0.7753
14961TIP3   OH266373   3.590   4.466   3.485  0.1918 -0.2328 -0.2708
14961TIP3    H166374   3.520   4.400   3.481  0.3336 -0.5028  1.2729
14961TIP3    H266375   3.622   4.462   3.575  0.5959  1.5625 -0.2964
14962TIP3   OH266376   2.965   5.617  11.595  0.4201  0.5893 -0.6516
14962TIP3    H166377   3.023   5.568  11.537 -0.2287  0.8917 -1.5645
14962TIP3    H266378   2.896   5.554  11.619 -0.1561  0.9068 -1.4498
14963TIP3   OH266379   4.720   3.669   5.777  0.1695 -0.2970 -0.2519
14963TIP3    H166380   4.791   3.609   5.800 -0.3352 -1.0679 -0.6457
14963TIP3    H266381   4.653   3.612   5.739 -0.7465  0.3853  0.3063
14964TIP3   OH266382   3.875   3.014  13.435 -0.4601 -0.2414  0.2541
14964TIP3    H166383   3.950   3.057  13.477 -1.8369  1.0782  1.5171
14964TIP3    H266384   3.903   2.999  13.345  0.8149  1.5855  0.2852
14965TIP3   OH266385   1.675   2.054   2.966 -0.1777  0.2966  0.4093
14965TIP3    H166386   1.643   2.045   2.876 -0.2594 -1.3852  0.5722
14965TIP3    H266387   1.752   1.997   2.969 -0.7471 -0.4444  1.6530
14966TIP3   OH266388   1.200   3.408   2.873 -0.7521 -0.2661  0.0335
14966TIP3    H166389   1.151   3.446   2.945  1.2607 -1.1926  2.0156
14966TIP3    H266390   1.135   3.359   2.822 -2.4113  1.3240  0.5249
14967TIP3   OH266391   1.041   2.688   4.725 -0.2112 -0.0145  0.1716
14967TIP3    H166392   1.035   2.712   4.818  0.4480 -1.6890  0.6792
14967TIP3    H266393   1.132   2.661   4.713  0.2265  1.9294 -1.4441
14968TIP3   OH266394   2.910   4.261   4.560 -0.2970  0.1585 -0.3003
14968TIP3    H166395   2.827   4.296   4.592 -0.5000 -0.0861 -0.5520
14968TIP3    H266396   2.886   4.179   4.516  0.2112 -0.5091  0.6378
14969TIP3   OH266397   2.261   0.323   3.084 -0.5503  0.5943 -0.1057
14969TIP3    H166398   2.354   0.336   3.069 -0.6461  0.0217 -1.3176
14969TIP3    H266399   2.221   0.335   2.998 -1.4356 -0.4838  0.1378
14970TIP3   OH266400   2.468   4.322  11.860 -0.0986  0.5866  0.6451
14970TIP3    H166401   2.503   4.408  11.835 -0.3227  1.2938  2.6388
14970TIP3    H266402   2.375   4.336  11.873 -0.6012 -0.5307 -1.2688
14971TIP3   OH266403   1.189   5.217   0.651  0.0464 -0.5815  0.1404
14971TIP3    H166404   1.185   5.153   0.580  2.3842 -1.9106  1.0942
14971TIP3    H266405   1.172   5.167   0.731 -1.3127  0.6596  0.6785
14972TIP3   OH266406   1.166   6.205   5.749 -0.2934 -0.5491 -0.0554
14972TIP3    H166407   1.187   6.155   5.670  0.0366  0.4781 -0.6317
14972TIP3    H266408   1.073   6.223   5.742  0.1218  1.3982 -1.3431
14973TIP3   OH266409   0.284   4.832  17.285  0.3641  1.0057  0.1585
14973TIP3    H166410   0.213   4.841  17.348  0.7476  0.2166  0.7230
14973TIP3    H266411   0.242   4.800  17.205  0.1199  0.2300  0.5848
14974TIP3   OH266412   4.344   3.068   1.299 -0.5683 -0.2785  0.0791
14974TIP3    H166413   4.416   3.017   1.261 -0.0340  0.4450  0.0919
14974TIP3    H266414   4.380   3.101   1.382 -1.3297 -0.8914  0.6631
14975TIP3   OH266415   3.534   2.760  12.119  0.5620 -0.1386 -0.1113
14975TIP3    H166416   3.451   2.744  12.075  0.2902 -1.0104  0.6759
14975TIP3    H266417   3.582   2.678  12.109  0.6013 -0.2655  0.9614
14976TIP3   OH266418   3.570   6.780  16.745 -0.4145 -0.1111 -1.0121
14976TIP3    H166419   3.502   6.717  16.720 -3.3145  1.2074  2.5594
14976TIP3    H266420   3.528   6.865  16.734  1.9823  1.0355 -1.8930
14977TIP3   OH266421   4.173   2.513   3.390  0.0918 -0.4016  0.3378
14977TIP3    H166422   4.146   2.483   3.477 -0.0501 -1.4059 -0.0391
14977TIP3    H266423   4.121   2.592   3.375  0.9060  0.4121  1.5966
14978TIP3   OH266424   3.689   3.796   9.978 -0.3715  0.1132  0.0798
14978TIP3    H166425   3.686   3.873  10.034 -0.7080 -0.1300  0.4066
14978TIP3    H266426   3.598   3.765   9.975 -0.1393 -0.6409  0.4801
14979TIP3   OH266427   0.878   2.645  14.468  0.7965 -0.2113 -0.2431
14979TIP3    H166428   0.850   2.663  14.557  0.3244  0.1642 -0.4653
14979TIP3    H266429   0.800   2.609  14.425  0.2127  2.0345 -1.2269
14980TIP3   OH266430   4.604   5.990  17.251  0.4643  0.9758  0.0130
14980TIP3    H166431   4.542   6.034  17.193 -0.7051 -0.8942 -0.2504
14980TIP3    H266432   4.652   5.930  17.193 -0.2493 -0.4300  0.7998
14981TIP3   OH266433   1.063   1.827   1.725 -0.6182  0.2096 -0.2868
14981TIP3    H166434   1.140   1.773   1.742  0.7881  2.0139 -0.6116
14981TIP3    H266435   1.059   1.889   1.798 -0.4888  1.4818 -1.3139
14982TIP3   OH266436   0.974   2.687   1.632 -0.0919 -0.0290 -0.8435
14982TIP3    H166437   0.881   2.710   1.630 -0.8996 -2.9496 -1.4918
14982TIP3    H266438   0.978   2.607   1.684  2.2241  0.4881 -0.0999
14983TIP3   OH266439   1.584   2.319  11.110  0.3107  0.3717  0.2486
14983TIP3    H166440   1.510   2.298  11.054 -0.2039 -2.0034  1.6992
14983TIP3    H266441   1.656   2.337  11.049 -0.9079  0.6714 -1.1602
14984TIP3   OH266442   5.485   0.126   1.985 -0.4314  0.2017 -0.1008
14984TIP3    H166443   5.403   0.175   1.987 -0.6348 -0.1547  0.6358
14984TIP3    H266444   5.544   0.173   2.044  0.3452  1.2008 -1.6249
14985TIP3   OH266445   1.036   6.278  13.928  0.5669  0.7915  0.1328
14985TIP3    H166446   1.008   6.339  13.860 -0.5919  0.0762 -0.0579
14985TIP3    H266447   0.960   6.221  13.942  1.8203 -1.0392 -0.1654
14986TIP3   OH266448   6.066   3.297  11.057  0.4077  0.2542 -0.0066
14986TIP3    H166449   6.100   3.285  11.146 -0.4667  0.8483  0.4237
14986TIP3    H266450   6.138   3.272  11.000  0.7862 -0.6961  0.8676
14987TIP3   OH266451   5.208   6.647   5.137 -0.2070  0.4151 -0.6360
14987TIP3    H166452   5.260   6.602   5.204  1.5113 -1.2685 -2.9469
14987TIP3    H266453   5.128   6.596   5.130 -0.4913  0.7207  0.2331
14988TIP3   OH266454   1.641   0.599   2.657 -0.0909 -0.0573  0.1484
14988TIP3    H166455   1.702   0.672   2.644 -0.2126  0.0046 -0.0762
14988TIP3    H266456   1.585   0.628   2.729 -0.6292  0.3933 -0.4442
14989TIP3   OH266457   6.121   0.083   0.125 -0.0786  0.4601 -0.1219
14989TIP3    H166458   6.074   0.166   0.116 -0.0656  0.7764  2.0811
14989TIP3    H266459   6.052   0.018   0.138 -0.0308  0.4626  0.1644
14990TIP3   OH266460   0.916   2.126  16.657  0.2803 -0.2334 -0.0691
14990TIP3    H166461   0.982   2.195  16.665 -0.7527  0.7733  0.0512
14990TIP3    H266462   0.924   2.096  16.567 -0.2221  1.0660 -0.5716
14991TIP3   OH266463   4.822   6.168   0.644  0.5533 -0.1269 -0.7610
14991TIP3    H166464   4.790   6.258   0.637  2.2095  0.6576  0.7131
14991TIP3    H266465   4.863   6.151   0.560 -1.3347 -0.2150 -1.7238
14992TIP3   OH266466   2.356   4.291  14.867 -0.2068 -0.3513 -0.8049
14992TIP3    H166467   2.302   4.255  14.937 -2.5255  1.5277 -1.4723
14992TIP3    H266468   2.353   4.225  14.798  0.4435 -1.3543  0.1133
14993TIP3   OH266469   6.398   2.341  13.940  0.1103  0.5868  0.0538
14993TIP3    H166470   6.397   2.436  13.953  1.5596  0.6769 -0.3409
14993TIP3    H266471   6.420   2.329  13.848 -0.9768 -0.1352 -0.1242
14994TIP3   OH266472   6.445   0.012   4.270 -0.1577  0.0294 -0.3819
14994TIP3    H166473   6.537   0.039   4.276 -0.2491  0.0361  1.5778
14994TIP3    H266474   6.398   0.092   4.247  0.2632  0.1254 -0.9319
14995TIP3   OH266475   0.267   0.036  12.821  0.3219 -0.1108  0.0275
14995TIP3    H166476   0.315   0.085  12.754 -0.5329 -1.5776 -1.7600
14995TIP3    H266477   0.227  -0.037  12.773 -1.7337 -0.2892  1.8364
14996TIP3   OH266478   6.416   5.568  11.398  0.7096  0.4196 -0.1616
14996TIP3    H166479   6.361   5.613  11.334 -0.2400  1.8124  1.5457
14996TIP3    H266480   6.356   5.538  11.465  1.6383 -1.3394 -0.0583
14997TIP3   OH266481   3.540   1.578  11.624  0.4063 -0.2615 -0.5954
14997TIP3    H166482   3.468   1.517  11.642 -0.1205  0.5442  0.1078
14997TIP3    H266483   3.497   1.659  11.596  1.0752 -0.0367 -0.9952
14998TIP3   OH266484   2.499   1.091   3.275  0.7590  0.0660 -0.2254
14998TIP3    H166485   2.478   1.145   3.199 -1.1286 -0.2516  0.0138
14998TIP3    H266486   2.511   1.003   3.240 -2.7048 -0.6502 -0.0256
14999TIP3   OH266487   3.603   2.206  14.511  0.2755  0.0174 -0.1928
14999TIP3    H166488   3.516   2.199  14.472  0.0440 -0.3639  0.3734
14999TIP3    H266489   3.658   2.243  14.441 -0.6283  1.5900 -0.1017
15000TIP3   OH266490   3.943   4.873   4.473 -0.4703  0.3603  0.5048
15000TIP3    H166491   4.022   4.863   4.419  0.2834  1.5477  1.3476
15000TIP3    H266492   3.938   4.792   4.523 -0.1182  0.0331  0.0286
15001TIP3   OH266493   4.409   1.245   2.248  0.8588  0.0707 -0.2142
15001TIP3    H166494   4.384   1.264   2.338  0.9342  0.4998 -0.2824
15001TIP3    H266495   4.404   1.329   2.203 -2.1511 -0.5739 -1.3503
15002TIP3   OH266496   0.331   0.307   2.121  0.3687 -0.0783 -0.3014
15002TIP3    H166497   0.312   0.352   2.203 -0.9337  0.5574 -0.9160
15002TIP3    H266498   0.344   0.378   2.058  0.5278 -0.5634 -0.8200
15003TIP3   OH266499   0.853   3.400  15.583  0.0987 -0.1174  0.6776
15003TIP3    H166500   0.800   3.390  15.504  1.2408 -1.8542  0.0774
15003TIP3    H266501   0.796   3.371  15.654 -0.7955  1.0608  0.4829
15004TIP3   OH266502   0.763   6.699   6.022 -0.1459  0.5485  0.4392
15004TIP3    H166503   0.840   6.643   6.013  0.5423  1.3297  1.3464
15004TIP3    H266504   0.798   6.786   6.042 -1.2768  0.6174  2.3750
15005TIP3   OH266505   1.292   5.157  16.409  0.7189  0.2555 -0.5725
15005TIP3    H166506   1.290   5.217  16.334  2.4067 -0.2692 -1.1021
15005TIP3    H266507   1.365   5.098  16.390  0.9103 -0.1782  1.2755
15006TIP3   OH266508   1.837   5.829   1.812  0.1408 -0.0770 -0.7529
15006TIP3    H166509   1.743   5.825   1.831 -0.0112 -0.6930 -1.5831
15006TIP3    H266510   1.858   5.922   1.809 -0.2409  0.0653  0.3571
15007TIP3   OH266511   1.402   0.351  16.475  0.7094 -0.2803 -0.6970
15007TIP3    H166512   1.497   0.364  16.467  0.5040  2.0343  0.0284
15007TIP3    H266513   1.364   0.429  16.435 -0.9598 -1.5766 -1.7849
15008TIP3   OH266514   2.746   0.489   2.188  0.1199 -0.6855 -0.2356
15008TIP3    H166515   2.706   0.480   2.102  0.8870 -0.1195 -0.6568
15008TIP3    H266516   2.802   0.566   2.181  2.7562 -2.4884 -0.2489
15009TIP3   OH266517   2.888   0.746   3.835 -0.2911 -0.5134  0.6747
15009TIP3    H166518   2.836   0.812   3.789 -0.2428  0.2372  1.6633
15009TIP3    H266519   2.829   0.709   3.900 -0.3202 -1.4717  0.1147
15010TIP3   OH266520   5.119   3.999  16.009  0.3697 -0.0105 -0.3064
15010TIP3    H166521   5.173   3.976  16.085  0.1098 -0.1832 -0.1748
15010TIP3    H266522   5.153   4.085  15.982  1.5659 -0.6632 -1.0050
15011TIP3   OH266523   2.684   0.652  16.214  0.6127  0.1616 -0.3183
15011TIP3    H166524   2.679   0.652  16.309 -0.7311  0.4138 -0.3568
15011TIP3    H266525   2.764   0.700  16.194  0.8766  0.1616  0.6793
15012TIP3   OH266526   2.954   6.141   2.002 -0.0173  0.0390 -0.2874
15012TIP3    H166527   2.961   6.202   1.928  0.6857 -0.9819 -1.0899
15012TIP3    H266528   2.867   6.100   1.991  0.0128  0.0185 -0.4510
15013TIP3   OH266529   0.526   6.004   5.283 -0.3041 -0.7411 -0.0386
15013TIP3    H166530   0.506   5.924   5.331 -0.8487 -1.0892 -0.8275
15013TIP3    H266531   0.561   5.974   5.199  0.1859 -0.1474 -0.0502
15014TIP3   OH266532   2.415   3.380   4.359 -0.2479  0.0084  0.1815
15014TIP3    H166533   2.469   3.422   4.425 -0.5392  1.3803 -0.4220
15014TIP3    H266534   2.464   3.301   4.334  0.1751 -0.1802  1.5285
15015TIP3   OH266535   1.348   1.793  13.842 -0.1156 -0.4611  0.1542
15015TIP3    H166536   1.383   1.704  13.837 -0.1174 -0.6429  2.5296
15015TIP3    H266537   1.265   1.785  13.888 -0.0366  0.8005  0.5652
15016TIP3   OH266538   5.540   2.605   4.254  0.3363  0.1989 -0.0823
15016TIP3    H166539   5.509   2.674   4.314  2.1573  0.2855  0.8186
15016TIP3    H266540   5.612   2.646   4.206  0.2615 -0.5453 -0.8440
15017TIP3   OH266541   4.260   6.310  16.724 -0.2712 -0.2182  0.2518
15017TIP3    H166542   4.191   6.328  16.660  0.4485  0.1511 -0.4255
15017TIP3    H266543   4.290   6.397  16.752 -0.5204 -0.3733  1.0431
15018TIP3   OH266544   1.932   2.154  16.340 -0.6216 -0.4739 -0.0004
15018TIP3    H166545   1.953   2.061  16.327  0.0319 -0.1850 -1.2151
15018TIP3    H266546   1.991   2.183  16.409  0.6386 -0.4946 -1.0311
15019TIP3   OH266547   4.271   1.766  12.360  0.5150 -0.3270  0.0096
15019TIP3    H166548   4.351   1.714  12.354  0.4517 -0.5732  1.1088
15019TIP3    H266549   4.251   1.790  12.269  2.7289  1.0850 -0.1985
15020TIP3   OH266550   3.250   2.322   2.611  0.6913  0.2054  0.1426
15020TIP3    H166551   3.330   2.282   2.646  0.1529 -0.4235  0.6768
15020TIP3    H266552   3.210   2.254   2.557 -0.7552 -0.4082  1.8634
15021TIP3   OH266553   5.798   6.019   3.510  0.2917  0.0263  0.1791
15021TIP3    H166554   5.746   6.068   3.446 -0.9138 -1.3016  0.0841
15021TIP3    H266555   5.766   6.047   3.595 -0.3101 -0.5010  0.1279
15022TIP3   OH266556   5.953   4.349  14.275 -0.2477  0.3809  0.0102
15022TIP3    H166557   6.017   4.421  14.280 -1.5157  1.4759  1.4225
15022TIP3    H266558   5.939   4.323  14.366 -2.6800  1.0023 -0.1223
15023TIP3   OH266559   0.430   2.120  12.111 -0.2321 -0.1587  0.6936
15023TIP3    H166560   0.402   2.084  12.195  0.5215  0.2543  1.1329
15023TIP3    H266561   0.375   2.198  12.099 -0.0978 -0.0185  0.9759
15024TIP3   OH266562   5.372   0.592  11.617 -0.6432  0.1866 -0.0641
15024TIP3    H166563   5.459   0.572  11.585 -0.3237  2.5900 -0.8536
15024TIP3    H266564   5.359   0.531  11.690  2.0154  0.3175  0.6203
15025TIP3   OH266565   5.189   3.858   1.422  0.0144 -0.1437  0.5157
15025TIP3    H166566   5.188   3.771   1.382  0.0287  0.3469 -0.5829
15025TIP3    H266567   5.186   3.919   1.348  1.0477  0.8088  1.2190
15026TIP3   OH266568   1.134   2.748  16.081  0.7642 -0.6557  0.2494
15026TIP3    H166569   1.108   2.730  15.990  2.4176 -1.4823 -0.1124
15026TIP3    H266570   1.065   2.804  16.115 -0.6932 -1.5700 -1.0431
15027TIP3   OH266571   5.014   2.330  11.131 -0.5113 -0.5067 -1.1015
15027TIP3    H166572   4.996   2.404  11.073 -0.5952 -1.2947 -2.1140
15027TIP3    H266573   5.103   2.345  11.162 -0.0868 -0.5679 -2.2377
15028TIP3   OH266574   4.798   3.845   1.775  0.2454 -0.1429 -0.1708
15028TIP3    H166575   4.887   3.864   1.744 -0.0117  0.7507 -0.3895
15028TIP3    H266576   4.753   3.929   1.771 -1.0897 -0.8712 -1.6185
15029TIP3   OH266577   1.333   2.310  12.667  0.7264  0.0590  0.2200
15029TIP3    H166578   1.369   2.222  12.663  0.5093 -0.0073 -0.3836
15029TIP3    H266579   1.407   2.366  12.690  0.8662 -0.2744  0.5882
15030TIP3   OH266580   1.028   0.544  13.420 -0.1848  0.2853  0.4966
15030TIP3    H166581   1.024   0.458  13.461  0.6356 -0.1313 -0.2616
15030TIP3    H266582   0.945   0.551  13.372  1.3704 -1.9225 -2.9125
15031TIP3   OH266583   4.594   5.115  11.603  0.1744  0.3029 -0.4553
15031TIP3    H166584   4.524   5.177  11.585 -0.3376 -0.5086 -1.3454
15031TIP3    H266585   4.560   5.060  11.674  0.3360  0.5739 -0.1663
15032TIP3   OH266586   4.690   5.169  12.482  0.3403  0.0943  0.2221
15032TIP3    H166587   4.611   5.175  12.428 -0.1985  1.5030  1.1230
15032TIP3    H266588   4.754   5.225  12.439  0.7591 -0.7693 -0.3134
15033TIP3   OH266589   4.218   6.205   3.754 -0.0595 -0.4318 -0.2088
15033TIP3    H166590   4.239   6.113   3.769 -0.1538 -0.1990  1.5860
15033TIP3    H266591   4.183   6.235   3.838 -0.1426  1.2149 -0.8014
15034TIP3   OH266592   2.260   0.766  16.135  1.0319 -0.0011  0.2447
15034TIP3    H166593   2.205   0.688  16.134 -0.0815  0.7595 -0.5870
15034TIP3    H266594   2.293   0.772  16.224 -1.2747  0.1982  1.1596
15035TIP3   OH266595   6.480   0.634  16.278 -0.5411 -0.1425  0.7675
15035TIP3    H166596   6.562   0.592  16.302 -0.9340 -1.4663 -0.0736
15035TIP3    H266597   6.412   0.568  16.296 -0.9094 -1.1735 -3.3124
15036TIP3   OH266598   3.490   3.452   4.139 -0.0290 -0.3024  0.2055
15036TIP3    H166599   3.444   3.424   4.218  1.7937 -1.4054  0.9507
15036TIP3    H266600   3.534   3.533   4.164 -2.3240  1.3959 -0.8458
15037TIP3   OH266601   1.806   0.809  15.256 -0.8803 -0.5298 -0.1443
15037TIP3    H166602   1.833   0.723  15.287  2.6226  0.2828 -0.5618
15037TIP3    H266603   1.798   0.862  15.336 -1.2848 -0.7639 -0.0244
15038TIP3   OH266604   2.541   6.695  12.063  0.2337 -0.0906 -0.0403
15038TIP3    H166605   2.606   6.669  11.999  0.8830  0.4232  0.3948
15038TIP3    H266606   2.474   6.742  12.013  0.5501 -0.0116 -0.3846
15039TIP3   OH266607   0.665   1.915  14.313  0.3020 -0.2733 -0.0971
15039TIP3    H166608   0.627   1.945  14.231 -1.1164  0.4053  0.7589
15039TIP3    H266609   0.635   1.825  14.323  1.4328 -0.7523 -0.8533
15040TIP3   OH266610   5.031   1.447   1.255 -0.3897 -0.3997 -0.7406
15040TIP3    H166611   4.959   1.383   1.256 -0.4024 -0.3946  0.5381
15040TIP3    H266612   5.074   1.436   1.340  0.3843  0.4367 -1.0046
15041TIP3   OH266613   1.000   4.640   0.373  0.5280 -0.1162 -0.0526
15041TIP3    H166614   0.975   4.696   0.300 -2.6054  0.2122  1.1371
15041TIP3    H266615   0.977   4.551   0.344  0.5793 -0.1492  0.0077
15042TIP3   OH266616   5.755   2.003  11.803  0.1321  0.1668 -0.9623
15042TIP3    H166617   5.682   2.001  11.865  0.6833  1.4830 -0.2489
15042TIP3    H266618   5.743   1.924  11.750 -0.5656 -0.7893  0.5645
15043TIP3   OH266619   2.872   3.248  14.285 -0.1860 -0.5117 -0.0139
15043TIP3    H166620   2.874   3.344  14.292  0.4847 -0.5581  0.5909
15043TIP3    H266621   2.796   3.221  14.336  0.2042 -0.3575  0.6589
15044TIP3   OH266622   0.992   5.166   0.894  0.6229 -0.0218 -0.3830
15044TIP3    H166623   0.934   5.089   0.893  1.5062 -0.7786  1.7135
15044TIP3    H266624   0.944   5.231   0.944  1.5626 -0.6939  1.4694
15045TIP3   OH266625   1.243   4.352   0.671  0.2485 -0.6414 -0.0414
15045TIP3    H166626   1.236   4.441   0.635  1.1943 -1.4100 -2.3233
15045TIP3    H266627   1.337   4.337   0.680  0.1200 -1.5928 -0.1734
15046TIP3   OH266628   6.186   0.947   1.248  0.4277 -0.1433  0.5229
15046TIP3    H166629   6.100   0.977   1.217  1.2776  2.5137  0.4139
15046TIP3    H266630   6.167   0.890   1.322 -1.4482 -0.1824  0.0564
15047TIP3   OH266631   6.348   4.815   3.357 -0.2586  0.5209  0.1371
15047TIP3    H166632   6.273   4.810   3.416 -1.3823  0.0780 -1.2957
15047TIP3    H266633   6.381   4.904   3.369 -0.4155  0.4335  1.4581
15048TIP3   OH266634   3.536   1.533  16.012  0.0122  0.4058  0.0725
15048TIP3    H166635   3.514   1.614  16.057 -0.4483  1.0424 -1.2421
15048TIP3    H266636   3.631   1.528  16.016 -0.0448  0.1301  1.6035
15049TIP3   OH266637   3.271   2.494   2.370  0.4053  0.1177 -0.0077
15049TIP3    H166638   3.297   2.460   2.285 -1.1782  2.4207 -1.5519
15049TIP3    H266639   3.307   2.433   2.433  1.2008 -1.9803 -2.3452
15050TIP3   OH266640   2.997   0.585  12.470 -0.3647  0.2960 -0.1680
15050TIP3    H166641   3.081   0.612  12.433 -0.0358 -1.9276 -1.2605
15050TIP3    H266642   3.020   0.521  12.538 -1.1599  0.1717 -0.0037
15051TIP3   OH266643   4.449   5.549  16.781 -0.0559 -0.3167  0.3848
15051TIP3    H166644   4.477   5.614  16.716  0.6768 -1.2280 -0.2458
15051TIP3    H266645   4.455   5.595  16.864 -1.0103  0.8832 -0.1746
15052TIP3   OH266646   4.357   5.107   0.769 -0.6807  0.0042  0.5541
15052TIP3    H166647   4.369   5.113   0.864  0.1547  2.5828  0.3859
15052TIP3    H266648   4.263   5.100   0.756 -0.8697  0.4341  1.5918
15053TIP3   OH266649   1.292   4.052   4.665  0.2167  0.3570  0.3995
15053TIP3    H166650   1.273   3.966   4.702  0.6987 -0.7023 -1.6506
15053TIP3    H266651   1.234   4.112   4.712 -3.4531 -1.7202 -1.0662
15054TIP3   OH266652   4.433   1.465   1.436 -0.2206  0.2702 -0.0945
15054TIP3    H166653   4.425   1.389   1.379 -3.0567  0.6854 -0.4119
15054TIP3    H266654   4.478   1.531   1.383  2.1634 -1.0569  0.1498
15055TIP3   OH266655   1.194   5.415   0.121 -0.4242 -0.5137 -0.0607
15055TIP3    H166656   1.139   5.445   0.049 -2.1023 -1.2120  0.8730
15055TIP3    H266657   1.202   5.320   0.107  3.1520 -0.0993 -1.8627
15056TIP3   OH266658   3.304   0.810   2.422 -0.0751 -0.3891 -0.6075
15056TIP3    H166659   3.311   0.722   2.459 -0.9181 -0.8766 -1.5388
15056TIP3    H266660   3.318   0.869   2.496  1.9202 -1.2784 -0.2385
15057TIP3   OH266661   4.255   4.903   0.387  0.7701 -0.0114  0.3693
15057TIP3    H166662   4.229   4.848   0.312  1.5106  1.0279 -0.6733
15057TIP3    H266663   4.172   4.933   0.424  0.3827 -0.9400  0.2965
15058TIP3   OH266664   4.305   1.581  16.479 -0.6924  0.3852 -0.0673
15058TIP3    H166665   4.320   1.656  16.536 -0.9965  0.0630  0.4434
15058TIP3    H266666   4.340   1.506  16.529 -2.6488 -0.1791  0.5206
15059TIP3   OH266667   2.373   3.729  12.114  0.4194 -0.7375 -0.1803
15059TIP3    H166668   2.381   3.634  12.109  0.6335 -0.6886 -0.7913
15059TIP3    H266669   2.352   3.746  12.206 -0.2342 -1.4163 -0.1901
15060TIP3   OH266670   6.709   1.100   0.815 -0.3884 -0.4301  0.3016
15060TIP3    H166671   6.799   1.068   0.807 -0.4560 -0.3580 -0.9142
15060TIP3    H266672   6.685   1.126   0.726 -0.7291  1.9185  1.0005
15061TIP3   OH266673   6.694   2.923   6.178  0.1760 -1.2792  0.3578
15061TIP3    H166674   6.766   2.949   6.236  0.9245  2.0341 -1.8237
15061TIP3    H266675   6.629   2.885   6.237  1.3183  0.8780  3.2573
15062TIP3   OH266676   5.029   5.766  17.086  0.0686 -0.0989 -0.2385
15062TIP3    H166677   5.110   5.807  17.058  0.3116  1.9601  2.9065
15062TIP3    H266678   5.056   5.685  17.129  0.2242 -0.4758 -1.0357
15063TIP3   OH266679   4.206   6.766   4.316 -0.0828  0.0968 -0.3799
15063TIP3    H166680   4.198   6.858   4.289  1.3606  0.1287 -0.7704
15063TIP3    H266681   4.196   6.768   4.411  2.6384  1.0883 -0.0114
15064TIP3   OH266682   2.694   5.070  13.773 -0.0561  0.1163  0.1090
15064TIP3    H166683   2.765   5.131  13.795  0.1442  0.4218 -1.2674
15064TIP3    H266684   2.667   5.033  13.857  1.2140  0.5696  0.7455
15065TIP3   OH266685   0.677   3.878   4.354 -0.2907 -0.5215  0.8359
15065TIP3    H166686   0.695   3.908   4.443 -0.1186  0.4251  0.5040
15065TIP3    H266687   0.597   3.827   4.361 -0.9298  0.5177  1.3551
15066TIP3   OH266688   2.794   6.742  10.499 -0.2067 -0.3806 -0.3675
15066TIP3    H166689   2.881   6.721  10.465 -0.3203 -0.6089 -0.5165
15066TIP3    H266690   2.777   6.675  10.565 -0.3879 -0.5025 -0.5379
15067TIP3   OH266691   0.772   0.304   3.060 -0.1416  0.1294  0.3228
15067TIP3    H166692   0.815   0.274   3.140 -0.5082  4.2651  2.3093
15067TIP3    H266693   0.679   0.281   3.073  0.2481 -2.2317 -0.6017
15068TIP3   OH266694   3.776   4.128   4.560 -0.2893 -0.2659  0.3579
15068TIP3    H166695   3.794   4.161   4.472 -3.2837  0.1711 -0.1913
15068TIP3    H266696   3.795   4.034   4.554 -1.2580 -0.4062 -1.0485
15069TIP3   OH266697   3.817   3.349  12.907  0.6686 -0.4662 -0.0812
15069TIP3    H166698   3.803   3.254  12.905  0.7353 -0.5200 -3.4232
15069TIP3    H266699   3.912   3.360  12.907  0.6700 -0.3489  1.1049
15070TIP3   OH266700   5.244   2.077  16.254  0.0744  0.3646  0.0230
15070TIP3    H166701   5.241   1.982  16.263 -0.6827  0.4620  0.9397
15070TIP3    H266702   5.241   2.092  16.159 -1.6596 -0.4820 -0.0888
15071TIP3   OH266703   5.601   2.703   6.140  0.1489  0.0108 -0.3048
15071TIP3    H166704   5.571   2.785   6.100 -1.1209  0.0609  0.6885
15071TIP3    H266705   5.540   2.687   6.212  1.2013 -1.0989  0.3919
15072TIP3   OH266706   0.453   4.858  14.182 -0.3210 -0.1039  0.0300
15072TIP3    H166707   0.431   4.914  14.108  0.2026  0.2241  0.1230
15072TIP3    H266708   0.433   4.911  14.259 -2.0868 -0.8849  0.1694
15073TIP3   OH266709   4.938   3.279   5.512 -0.3028  0.1263  0.4638
15073TIP3    H166710   4.887   3.242   5.584  0.0164  0.3719  0.8208
15073TIP3    H266711   4.979   3.203   5.471 -0.4447 -0.0101  0.5721
15074TIP3   OH266712   4.288   6.238  11.407  0.2721 -0.3087  0.6666
15074TIP3    H166713   4.375   6.246  11.446 -0.3545  0.4838  1.9886
15074TIP3    H266714   4.249   6.163  11.451 -0.2411  0.2494  1.1886
15075TIP3   OH266715   3.799   0.010   3.361 -0.7564 -0.2476  0.0532
15075TIP3    H166716   3.815   0.082   3.300  1.0191 -0.9297 -0.3301
15075TIP3    H266717   3.859  -0.059   3.334 -0.9580 -1.1173  1.6782
15076TIP3   OH266718   5.662   4.634   1.550 -0.2688  0.0261 -0.1221
15076TIP3    H166719   5.608   4.559   1.573 -0.3662 -0.0285 -0.5242
15076TIP3    H266720   5.601   4.698   1.515 -0.2429  0.4531  0.5874
15077TIP3   OH266721   4.448   5.320  12.579  0.6232  0.6351  0.2327
15077TIP3    H166722   4.523   5.279  12.621  0.0301 -0.5913  0.1537
15077TIP3    H266723   4.485   5.386  12.521  1.5713  0.7393  0.9417
15078TIP3   OH266724   0.523   6.247   4.358 -0.5386  0.3793  0.6873
15078TIP3    H166725   0.569   6.168   4.330 -0.1912  0.4486  1.0646
15078TIP3    H266726   0.520   6.302   4.279  0.3207  0.5156  0.7363
15079TIP3   OH266727   3.469   6.006  11.125 -0.1933  0.6660  0.3022
15079TIP3    H166728   3.409   6.065  11.172 -0.0805 -0.2259  1.6202
15079TIP3    H266729   3.420   5.924  11.116  0.2654  0.4241 -0.0215
15080TIP3   OH266730   5.916   4.183   2.796 -0.4220  0.8067  0.4748
15080TIP3    H166731   5.867   4.263   2.814  0.8800  1.7347  0.0195
15080TIP3    H266732   5.862   4.137   2.731 -1.0425  1.4374  0.5265
15081TIP3   OH266733   0.252   2.025   5.414  0.1141  0.2196 -0.4047
15081TIP3    H166734   0.322   2.076   5.453 -2.5706  2.7265  1.5947
15081TIP3    H266735   0.222   1.966   5.484 -0.2377 -0.3207 -0.9939
15082TIP3   OH266736   5.088   6.706  14.911 -0.0519  0.2411 -0.7536
15082TIP3    H166737   5.070   6.636  14.848  1.0221 -0.7769  0.0164
15082TIP3    H266738   5.062   6.669  14.996  1.8822  0.1672 -0.1394
15083TIP3   OH266739   1.353   1.103   5.291 -0.0934  0.3084 -0.3706
15083TIP3    H166740   1.340   1.127   5.199  3.0652 -0.1676 -1.0394
15083TIP3    H266741   1.327   1.011   5.295  0.4828  0.1126 -0.9836
15084TIP3   OH266742   3.401   4.905   2.526 -0.4374 -0.5436  0.1000
15084TIP3    H166743   3.374   4.969   2.592  0.0263 -1.3452  1.0927
15084TIP3    H266744   3.326   4.846   2.518 -0.3450 -0.6740  0.1972
15085TIP3   OH266745   3.119   5.483  12.204 -0.4037 -0.0908  0.5797
15085TIP3    H166746   3.206   5.492  12.164 -0.2861  1.8333  1.1278
15085TIP3    H266747   3.066   5.549  12.160 -1.3664 -0.6789  0.8325
15086TIP3   OH266748   0.930   0.828  13.340 -0.5185  0.1951  0.3732
15086TIP3    H166749   0.884   0.910  13.321 -0.3298  0.1882 -0.1292
15086TIP3    H266750   0.976   0.807  13.259  0.6228  0.3642  0.9414
15087TIP3   OH266751   2.949   4.570   0.629 -0.1577  0.3653  0.0882
15087TIP3    H166752   2.860   4.535   0.634  0.7749 -3.2012 -3.1860
15087TIP3    H266753   2.997   4.524   0.697 -0.4655  1.0582  0.7800
15088TIP3   OH266754   0.770   4.005  13.170 -0.2370 -0.0133  0.2157
15088TIP3    H166755   0.812   3.951  13.102 -0.6896 -1.2669  0.9136
15088TIP3    H266756   0.843   4.037  13.223  0.0301  0.0129 -0.1627
15089TIP3   OH266757   4.740   3.615  14.575 -0.1564  0.1864  0.4848
15089TIP3    H166758   4.682   3.688  14.551  0.7067  1.2982  1.6488
15089TIP3    H266759   4.828   3.647  14.555  0.1548 -1.1005 -0.3212
15090TIP3   OH266760   3.710   4.693  13.871  0.3366 -0.0314 -0.0083
15090TIP3    H166761   3.750   4.617  13.914 -0.2979 -0.9592 -1.0086
15090TIP3    H266762   3.659   4.735  13.941  0.2148 -0.8709  0.4194
15091TIP3   OH266763   3.554   3.529   3.080 -0.2575 -0.4911  0.1900
15091TIP3    H166764   3.605   3.585   3.020  0.9088 -1.9687 -0.2680
15091TIP3    H266765   3.620   3.480   3.129 -1.2370 -0.7932  1.2471
15092TIP3   OH266766   6.619   5.744  15.437 -0.3038 -0.0103  0.5554
15092TIP3    H166767   6.628   5.751  15.342 -0.4865 -0.7469  0.4810
15092TIP3    H266768   6.543   5.689  15.450  0.7044 -1.3163  1.1111
15093TIP3   OH266769   3.610   5.353  12.957  0.5288  0.1426  0.1078
15093TIP3    H166770   3.526   5.356  12.912 -0.0523 -0.3393  1.1200
15093TIP3    H266771   3.599   5.285  13.024  1.0831  1.3133  1.4581
15094TIP3   OH266772   1.977   4.847   2.392  0.5057  0.4545 -0.1780
15094TIP3    H166773   1.924   4.893   2.327 -0.8425  1.2252  1.3990
15094TIP3    H266774   2.064   4.885   2.383  0.0211  1.4782 -0.6410
15095TIP3   OH266775   1.969   0.454   4.480 -0.4551  0.3114 -0.1273
15095TIP3    H166776   1.966   0.365   4.444 -0.2741 -0.4023  1.5365
15095TIP3    H266777   1.890   0.496   4.446 -3.8034 -2.3405  3.4717
15096TIP3   OH266778   1.284   0.935  11.415 -0.3000 -0.1263  0.3336
15096TIP3    H166779   1.288   0.958  11.322 -0.3909  0.7185  0.5401
15096TIP3    H266780   1.344   0.860  11.423 -0.9269 -0.7425 -0.5584
15097TIP3   OH266781   2.960   5.181   5.062 -0.2314 -0.1359 -0.5574
15097TIP3    H166782   2.874   5.218   5.039 -1.6794 -2.8959 -0.0906
15097TIP3    H266783   2.962   5.097   5.016  1.6008 -0.7915  0.6332
15098TIP3   OH266784   3.215   0.864   5.199  0.5220 -0.0920  0.1597
15098TIP3    H166785   3.205   0.906   5.114  1.7336  1.4348  0.7393
15098TIP3    H266786   3.308   0.871   5.220  0.1671  0.0630  1.8534
15099TIP3   OH266787   3.367   2.906   3.963 -0.2924  0.4225 -0.4166
15099TIP3    H166788   3.276   2.911   3.991 -0.9428 -4.1557 -0.9810
15099TIP3    H266789   3.363   2.912   3.868  0.3425  2.1470 -0.3826
15100TIP3   OH266790   3.217   2.011   1.723  0.0496  0.0833  0.7929
15100TIP3    H166791   3.156   2.071   1.682 -1.2301 -0.5338  1.7258
15100TIP3    H266792   3.235   2.049   1.809  2.7602  1.4066 -0.2479
15101TIP3   OH266793   3.925   6.093   6.378  0.2807 -0.2634  0.6031
15101TIP3    H166794   3.878   6.097   6.461  0.9337 -1.7567  1.0916
15101TIP3    H266795   3.951   6.001   6.370  0.8245 -0.0063 -0.9241
15102TIP3   OH266796   4.250   3.460  12.500 -0.1502 -0.0220  0.2585
15102TIP3    H166797   4.184   3.390  12.500  0.5847 -0.7294 -0.0315
15102TIP3    H266798   4.205   3.535  12.461 -1.1188 -0.1533  1.0606
15103TIP3   OH266799   3.698   0.118   5.377  0.0269 -0.5371 -0.5358
15103TIP3    H166800   3.647   0.184   5.330 -1.4095 -0.5196  0.9815
15103TIP3    H266801   3.769   0.168   5.417 -0.9519  0.1053  0.4650
15104TIP3   OH266802   2.710   2.543  12.554  0.4546  0.7143  0.0259
15104TIP3    H166803   2.637   2.481  12.559 -0.5612  1.9252  0.9870
15104TIP3    H266804   2.765   2.510  12.484 -0.5405 -0.7574 -0.1005
15105TIP3   OH266805   5.538   1.449  15.066  0.0241  0.2490  0.2536
15105TIP3    H166806   5.575   1.420  15.150  2.3179 -1.4949 -1.2312
15105TIP3    H266807   5.556   1.543  15.063  0.2346  0.2724  1.5557
15106TIP3   OH266808   2.578   3.834   2.060 -0.9734 -0.1760 -0.0697
15106TIP3    H166809   2.658   3.809   2.013 -0.6325 -0.9862  0.8897
15106TIP3    H266810   2.610   3.865   2.145 -1.5206  1.9553 -0.5930
15107TIP3   OH266811   6.180   4.760   1.523 -0.2602  0.3454  0.4234
15107TIP3    H166812   6.216   4.847   1.536 -1.0619  1.2491 -2.4615
15107TIP3    H266813   6.087   4.769   1.542 -0.3664  0.1831  0.0154
15108TIP3   OH266814   2.658   1.115  11.758  0.1381 -0.1613 -0.3008
15108TIP3    H166815   2.649   1.151  11.670  0.9257 -0.5359 -0.5395
15108TIP3    H266816   2.690   1.026  11.745  0.5287 -0.1230  0.3745
15109TIP3   OH266817   6.706   4.932  12.993 -0.2910  0.6061  0.7199
15109TIP3    H166818   6.763   4.931  12.916 -1.4116  1.3841 -0.1590
15109TIP3    H266819   6.680   5.024  13.002 -1.9834  0.1807  0.6192
15110TIP3   OH266820   0.456   3.566  11.578 -0.2608  0.2651  0.1985
15110TIP3    H166821   0.365   3.541  11.593 -0.5173 -0.7887 -2.5566
15110TIP3    H266822   0.453   3.620  11.499  1.5516 -0.1659 -0.2025
15111TIP3   OH266823   2.700   1.262  14.937  0.0539 -0.0853 -0.2265
15111TIP3    H166824   2.617   1.269  14.889  0.0926 -2.2942 -0.7324
15111TIP3    H266825   2.743   1.346  14.924 -1.9907  1.0258 -0.1590
15112TIP3   OH266826   6.816   5.418   5.394 -0.5217  0.0746 -0.7625
15112TIP3    H166827   6.733   5.380   5.365 -1.0066  1.1227 -0.7998
15112TIP3    H266828   6.850   5.462   5.316 -1.3672  2.0972 -0.0409
15113TIP3   OH266829   0.544   3.219   3.203 -0.2854 -0.4796 -0.1178
15113TIP3    H166830   0.537   3.206   3.297  1.0672 -0.5024  0.0016
15113TIP3    H266831   0.606   3.152   3.174 -0.5166 -0.3331 -0.9886
15114TIP3   OH266832   0.779   6.100  12.910  0.3379 -0.0855  0.3789
15114TIP3    H166833   0.732   6.175  12.946  1.1810  0.4330  0.4189
15114TIP3    H266834   0.714   6.054  12.858 -0.2911  0.4520  0.6746
15115TIP3   OH266835   1.524   6.684   3.884 -0.5302 -0.2022 -0.0614
15115TIP3    H166836   1.539   6.598   3.923 -2.5244 -0.5732 -0.0087
15115TIP3    H266837   1.603   6.734   3.904 -0.5343 -1.0847  2.5161
15116TIP3   OH266838   6.407   0.239   1.611 -0.3879 -0.0653 -0.1028
15116TIP3    H166839   6.330   0.270   1.564 -2.1093 -2.9341  0.5972
15116TIP3    H266840   6.384   0.245   1.703  0.3393 -0.6658  0.1364
15117TIP3   OH266841   5.867   5.623   6.875 -0.5701  0.4402  0.2721
15117TIP3    H166842   5.864   5.562   6.801  0.1689  0.2808  0.3767
15117TIP3    H266843   5.775   5.634   6.900 -0.8597  0.7382 -0.8711
15118TIP3   OH266844   6.571   4.259  15.261 -0.1959  0.6704 -0.3908
15118TIP3    H166845   6.591   4.189  15.198  0.6454  0.6222 -0.0907
15118TIP3    H266846   6.578   4.216  15.346 -3.3114  0.2340 -0.2605
15119TIP3   OH266847   5.922   5.817   4.906 -0.5918  0.5565 -0.4938
15119TIP3    H166848   5.910   5.904   4.867  0.5118  0.7477 -0.4338
15119TIP3    H266849   6.017   5.808   4.917 -0.8109  0.3093  1.6718
15120TIP3   OH266850   5.512   3.693  13.198 -0.0545  0.2244 -0.3897
15120TIP3    H166851   5.529   3.638  13.275 -1.7901  0.2356  0.0242
15120TIP3    H266852   5.447   3.645  13.148 -0.2048  1.0338 -0.9803
15121TIP3   OH266853   2.098   1.281   0.499 -0.3452  0.4547 -0.3666
15121TIP3    H166854   2.065   1.193   0.485  0.3325  0.2063 -0.4063
15121TIP3    H266855   2.061   1.307   0.584  0.2305 -0.2329  0.1012
15122TIP3   OH266856   4.307   2.598  13.848  0.4852 -0.0153  0.6376
15122TIP3    H166857   4.222   2.555  13.856  0.3252  0.5096  1.9963
15122TIP3    H266858   4.323   2.602  13.754 -1.8124  1.4875  0.2430
15123TIP3   OH266859   3.166   4.096   3.766 -0.4951 -0.0414 -0.2183
15123TIP3    H166860   3.073   4.102   3.747 -0.8062 -0.7622  0.9902
15123TIP3    H266861   3.171   4.073   3.859  0.9205  2.3545  0.4061
15124TIP3   OH266862   6.191   3.340   0.748  0.1643 -0.4006 -0.3006
15124TIP3    H166863   6.276   3.299   0.765 -0.4935 -1.1926  1.3163
15124TIP3    H266864   6.188   3.352   0.653  2.4110  0.4132 -0.3315
15125TIP3   OH266865   5.010   2.904  15.593 -0.5093 -0.1542  0.8003
15125TIP3    H166866   4.927   2.921  15.548 -0.6409  0.4698  1.2636
15125TIP3    H266867   5.024   2.810  15.581  0.8287  0.3547 -2.8721
15126TIP3   OH266868   0.845   0.526  11.885  0.2474 -0.3555  0.3219
15126TIP3    H166869   0.847   0.432  11.866  0.6742 -0.7699  2.2153
15126TIP3    H266870   0.763   0.557  11.847 -0.6155 -1.8026  0.9248
15127TIP3   OH266871   4.551   2.107   3.541  0.2571  0.1467 -0.2534
15127TIP3    H166872   4.573   2.096   3.449  1.2393 -0.5720  0.0515
15127TIP3    H266873   4.573   2.023   3.582  0.9902  0.8318  0.8405
15128TIP3   OH266874   5.365   2.036   3.135  0.0967 -0.2784 -0.0589
15128TIP3    H166875   5.308   2.095   3.185  0.2367  0.8505 -1.1801
15128TIP3    H266876   5.318   1.953   3.134 -1.2334  0.4421 -0.3902
15129TIP3   OH266877   0.003   0.248  13.070  0.0700  0.0364 -0.0137
15129TIP3    H166878   0.039   0.209  12.990 -3.2705  0.8151 -2.1069
15129TIP3    H266879   0.063   0.320  13.090  0.0843  1.0442 -3.0599
15130TIP3   OH266880   6.212   1.959  11.640 -0.2608  0.0877  0.2750
15130TIP3    H166881   6.239   1.955  11.731  0.0330  0.5858  0.2122
15130TIP3    H266882   6.265   2.030  11.602  0.0147 -0.4767 -0.4126
15131TIP3   OH266883   5.531   5.681  11.167 -0.1036 -0.1190  0.5211
15131TIP3    H166884   5.531   5.739  11.090  1.3576 -0.3407  0.3357
15131TIP3    H266885   5.505   5.596  11.133 -0.0699 -0.0751  0.3834
15132TIP3   OH266886   3.204   0.712  16.954 -0.0050  0.6313  0.2582
15132TIP3    H166887   3.175   0.801  16.933  0.4492  0.9317  0.8957
15132TIP3    H266888   3.123   0.661  16.956 -0.1658  0.7779 -1.2539
15133TIP3   OH266889   4.813   3.753  12.924  0.2301 -0.0333 -0.1094
15133TIP3    H166890   4.757   3.830  12.933  0.3239 -0.0618  0.7832
15133TIP3    H266891   4.770   3.700  12.856  1.0841  1.5842 -1.9948
15134TIP3   OH266892   1.601   2.930  10.539  0.1504 -0.1763 -0.0580
15134TIP3    H166893   1.527   2.990  10.539  1.4865  1.5541  0.5916
15134TIP3    H266894   1.564   2.845  10.562 -1.6321  0.6167  0.0970
15135TIP3   OH266895   2.018   1.376   3.012 -0.4420  0.9589 -0.2300
15135TIP3    H166896   2.060   1.443   2.958  1.8181  0.4691  0.7652
15135TIP3    H266897   1.957   1.332   2.953  0.7607  1.4943 -1.9534
15136TIP3   OH266898   5.046   3.611  12.119 -0.0816 -0.9957 -1.1145
15136TIP3    H166899   5.122   3.552  12.118 -0.6053 -1.6955 -2.1130
15136TIP3    H266900   5.012   3.605  12.208 -0.8127 -3.1805 -1.4723
15137TIP3   OH266901   3.925   4.984   6.439 -0.2299 -0.4646 -0.3678
15137TIP3    H166902   3.920   4.919   6.369 -0.2865 -1.8762  0.8993
15137TIP3    H266903   3.842   5.032   6.434 -0.5108 -0.9950 -0.8534
15138TIP3   OH266904   3.356   3.002  13.987  0.1740  0.0642  0.1920
15138TIP3    H166905   3.279   2.972  13.939 -0.6901 -0.1392  1.6430
15138TIP3    H266906   3.393   2.922  14.024  2.8128 -0.2773 -2.7692
15139TIP3   OH266907   3.503   4.643  16.020  0.0256  0.1911 -0.1922
15139TIP3    H166908   3.413   4.618  15.997  0.2427 -1.1985  0.3797
15139TIP3    H266909   3.558   4.588  15.964  0.5202  0.4966 -0.0095
15140TIP3   OH266910   5.795   5.522   2.822 -0.9190  0.6521  0.2226
15140TIP3    H166911   5.785   5.480   2.736 -1.0738  1.7749 -0.3351
15140TIP3    H266912   5.714   5.570   2.834 -0.4576  1.3734  0.4980
15141TIP3   OH266913   4.985   5.675   5.455 -0.2289 -0.0186  0.3359
15141TIP3    H166914   5.059   5.727   5.425 -0.7808  0.1201 -0.8628
15141TIP3    H266915   5.020   5.587   5.465  0.2363  0.1670  0.3841
15142TIP3   OH266916   2.177   3.417   5.273 -0.6336  0.1411  0.2975
15142TIP3    H166917   2.220   3.352   5.217 -0.7709 -0.4396  0.8539
15142TIP3    H266918   2.092   3.431   5.231 -1.5124 -1.7012  1.3237
15143TIP3   OH266919   2.003   5.010  17.123 -0.4389 -0.6494  0.4621
15143TIP3    H166920   1.919   5.041  17.158 -0.1670 -0.2211  0.7408
15143TIP3    H266921   2.035   4.949  17.190 -0.4773 -0.7380  0.4007
15144TIP3   OH266922   3.505   3.785  11.868  0.0452 -0.1761 -0.6693
15144TIP3    H166923   3.578   3.817  11.920 -1.4895 -0.7547  2.0454
15144TIP3    H266924   3.495   3.850  11.798  2.7668  0.1679 -0.8428
15145TIP3   OH266925   0.556   0.799  11.964 -0.1236 -0.2486 -0.2130
15145TIP3    H166926   0.592   0.761  11.884 -0.3356 -1.7521  0.3746
15145TIP3    H266927   0.598   0.884  11.970  2.0055 -1.2052 -0.5051
15146TIP3   OH266928   5.394   2.460  17.131 -0.0742 -0.1262  0.2518
15146TIP3    H166929   5.428   2.375  17.106  0.1019 -0.2990  1.0538
15146TIP3    H266930   5.471   2.511  17.158  0.1540  1.1058 -2.4003
15147TIP3   OH266931   5.515   2.430  16.786  0.4629 -0.0475 -0.9032
15147TIP3    H166932   5.486   2.497  16.724 -1.6078 -0.6781 -0.7040
15147TIP3    H266933   5.580   2.475  16.840 -2.7963  2.9075  1.0925
15148TIP3   OH266934   5.287   3.845   3.486  0.2192 -0.6957  0.0845
15148TIP3    H166935   5.235   3.919   3.519  1.7763  0.5646 -0.1767
15148TIP3    H266936   5.352   3.829   3.554  0.9882 -0.6656 -0.6316
15149TIP3   OH266937   3.019   1.049   0.344  0.5442  0.1791  0.3228
15149TIP3    H166938   3.026   1.129   0.397 -0.5093  0.3477  0.2265
15149TIP3    H266939   3.098   1.000   0.365  1.3781  1.4011  0.1228
15150TIP3   OH266940   1.472   1.796   0.247  0.0198  0.0088  0.1290
15150TIP3    H166941   1.484   1.702   0.262 -0.5092 -0.1816 -0.5734
15150TIP3    H266942   1.397   1.819   0.303 -1.0841 -0.4141 -1.1115
15151TIP3   OH266943   1.206   3.926  12.224 -0.0499  0.4934 -0.2624
15151TIP3    H166944   1.243   3.917  12.136 -2.4660 -1.4866 -1.2001
15151TIP3    H266945   1.218   3.839  12.264  0.9429  1.3441  1.3879
15152TIP3   OH266946   0.452   3.075   2.550  0.3668  0.3497 -0.4272
15152TIP3    H166947   0.468   3.169   2.559 -0.3215  0.4603 -0.3052
15152TIP3    H266948   0.428   3.063   2.458  0.3923  0.2978 -0.4276
15153TIP3   OH266949   0.204   0.360  16.686 -0.3938 -0.6624 -0.2737
15153TIP3    H166950   0.119   0.385  16.721 -0.7980 -2.6147  0.2677
15153TIP3    H266951   0.185   0.289  16.624  0.4552  1.7021 -3.4915
15154TIP3   OH266952   1.362   5.888  10.809  0.0294 -0.4052 -0.7068
15154TIP3    H166953   1.306   5.838  10.868 -0.1677 -0.9093 -1.2975
15154TIP3    H266954   1.335   5.859  10.721 -0.0082  0.6664 -1.0618
15155TIP3   OH266955   5.437   4.323  11.941 -0.7841  0.1174 -0.3228
15155TIP3    H166956   5.525   4.360  11.951 -1.4684  1.5950  0.5535
15155TIP3    H266957   5.436   4.289  11.852  0.9052 -0.5943 -0.1164
15156TIP3   OH266958   4.663   3.788   4.177 -0.6198  0.1144 -0.0002
15156TIP3    H166959   4.613   3.715   4.142 -0.7516 -0.6084  1.5911
15156TIP3    H266960   4.735   3.800   4.116 -1.2664 -0.5520 -0.9152
15157TIP3   OH266961   6.641   2.243  16.284 -0.0121  0.0529  0.5682
15157TIP3    H166962   6.577   2.313  16.272  0.7619  0.7367  0.3553
15157TIP3    H266963   6.659   2.211  16.196  0.7413  0.5964  0.5202
15158TIP3   OH266964   5.327   5.438   3.119 -0.7391  0.0089  0.3302
15158TIP3    H166965   5.399   5.421   3.180  0.3441 -0.5906 -1.0832
15158TIP3    H266966   5.277   5.357   3.117 -0.3563 -0.2138 -0.1338
15159TIP3   OH266967   3.777   3.495  15.540 -0.0599 -0.5137  0.4183
15159TIP3    H166968   3.717   3.439  15.589 -2.3780  0.6901 -0.9087
15159TIP3    H266969   3.803   3.442  15.465  1.5304 -1.4486  1.5628
15160TIP3   OH266970   5.334   2.404  12.052 -0.2554 -0.1187 -0.6176
15160TIP3    H166971   5.338   2.477  12.113  0.9456  1.0383 -2.0184
15160TIP3    H266972   5.401   2.423  11.987  1.9979 -3.7726  0.3428
15161TIP3   OH266973   5.900   5.409  11.581 -0.0715 -0.0466 -0.2290
15161TIP3    H166974   5.957   5.333  11.580 -1.3875 -1.0659 -0.5009
15161TIP3    H266975   5.827   5.383  11.637  0.9237  2.1718  2.3388
15162TIP3   OH266976   3.557   0.716   5.744  0.2895  0.3810  0.2391
15162TIP3    H166977   3.497   0.646   5.718  1.1722  0.4905 -2.3682
15162TIP3    H266978   3.576   0.698   5.836  0.2221 -2.5950 -0.2308
15163TIP3   OH266979   5.263   3.650   4.145  0.0504  0.1881 -0.2656
15163TIP3    H166980   5.212   3.712   4.093 -2.6086 -1.9834 -0.4248
15163TIP3    H266981   5.263   3.687   4.234 -1.2044  0.5843 -0.4182
15164TIP3   OH266982   3.656   4.351  15.059 -0.2446 -0.7101 -0.0985
15164TIP3    H166983   3.613   4.413  15.117 -0.6543  0.1612 -1.2993
15164TIP3    H266984   3.748   4.378  15.059 -0.1460 -1.0315  0.5276
15165TIP3   OH266985   3.933   3.825   0.703 -0.3242 -0.2003  0.1376
15165TIP3    H166986   4.004   3.800   0.644 -0.9458  0.8628 -1.1349
15165TIP3    H266987   3.976   3.876   0.772  0.2707 -0.4214 -0.0614
15166TIP3   OH266988   1.690   0.920   0.407 -0.4673 -0.1118 -0.0696
15166TIP3    H166989   1.653   0.915   0.319 -1.1725  1.2044  0.1205
15166TIP3    H266990   1.770   0.868   0.403 -1.8882 -2.4218 -0.7208
15167TIP3   OH266991   1.743   3.284  13.191  0.0303 -0.2953  0.2894
15167TIP3    H166992   1.743   3.193  13.223 -0.3167  0.2370  1.9160
15167TIP3    H266993   1.753   3.337  13.270  3.0258  1.0530 -0.8422
15168TIP3   OH266994   3.592   5.612   1.949  0.2709 -0.2988  0.4208
15168TIP3    H166995   3.569   5.562   2.027  0.6170 -0.1112  0.6433
15168TIP3    H266996   3.511   5.657   1.924  0.1297 -0.4549  0.5987
15169TIP3   OH266997   1.891   6.429   2.277  0.4637  0.4508 -0.0981
15169TIP3    H166998   1.910   6.418   2.184  1.2258  1.4681 -0.0750
15169TIP3    H266999   1.952   6.370   2.321  0.7322  0.6347 -0.2162
15170TIP3   OH267000   0.885   5.037  15.519  0.4824  0.5579 -0.0352
15170TIP3    H167001   0.869   5.057  15.611 -0.0374  0.0991 -0.0223
15170TIP3    H267002   0.854   5.115  15.472 -0.3332  0.3274  0.1025
15171TIP3   OH267003   0.228   2.063   0.380  0.3700 -0.1173 -0.1359
15171TIP3    H167004   0.138   2.046   0.352 -0.0925  1.9712 -0.0859
15171TIP3    H267005   0.278   2.070   0.299 -0.0031  1.0395 -0.2857
15172TIP3   OH267006   6.748   1.212  13.499  0.7521 -0.0854  0.3143
15172TIP3    H167007   6.785   1.203  13.411 -0.0882  0.9542 -0.1823
15172TIP3    H267008   6.796   1.285  13.538  0.1326  0.4397  0.1335
15173TIP3   OH267009   2.686   0.204  11.652 -0.2692 -0.7113  0.3220
15173TIP3    H167010   2.728   0.164  11.729  1.2228 -1.0204 -0.6039
15173TIP3    H267011   2.749   0.271  11.624 -1.2142  0.0033 -0.1081
15174TIP3   OH267012   1.407   0.465   3.362 -0.0077  0.8048  0.0832
15174TIP3    H167013   1.348   0.540   3.371  0.4848  1.3198 -0.7824
15174TIP3    H267014   1.435   0.467   3.271  1.1427  0.4272  0.4028
15175TIP3   OH267015   3.200   6.293   2.368 -0.2659 -0.2030  0.7085
15175TIP3    H167016   3.185   6.263   2.457 -1.1320  1.1716  1.0641
15175TIP3    H267017   3.274   6.353   2.375  2.0218 -2.7410 -0.1332
15176TIP3   OH267018   0.635   2.433  15.027  0.2677 -0.2961 -0.2161
15176TIP3    H167019   0.586   2.496  14.973 -0.8023  0.6610  1.7370
15176TIP3    H267020   0.588   2.351  15.016 -0.3872  0.0649 -0.1565
15177TIP3   OH267021   3.400   2.623  16.487  0.2423 -0.0592  0.4419
15177TIP3    H167022   3.438   2.705  16.520  0.0798  0.3613 -0.3894
15177TIP3    H267023   3.474   2.577  16.447  0.5388 -0.7844  1.7359
15178TIP3   OH267024   5.767   2.085   4.275 -0.1432  0.1728  0.2849
15178TIP3    H167025   5.709   2.161   4.289  0.1663  0.9189 -2.0568
15178TIP3    H267026   5.785   2.053   4.363 -2.8831  0.8367  1.1983
15179TIP3   OH267027   4.331   5.676  12.967 -0.1122  0.2611  0.6568
15179TIP3    H167028   4.343   5.631  13.051  0.8185  0.0324  0.4120
15179TIP3    H267029   4.417   5.712  12.946 -0.1863 -0.1767 -0.4812
15180TIP3   OH267030   2.069   3.078   5.327  0.3459 -0.3543  0.0598
15180TIP3    H167031   2.119   3.103   5.405  0.8648  2.8892 -1.1633
15180TIP3    H267032   1.986   3.126   5.336 -0.6482 -1.9431 -0.2339
15181TIP3   OH267033   3.257   1.564  11.532  0.4105  0.0867  0.0479
15181TIP3    H167034   3.223   1.649  11.506  0.1052 -0.3943 -1.2111
15181TIP3    H267035   3.244   1.508  11.455 -0.6247 -1.4554  1.2670
15182TIP3   OH267036   6.788   1.015  11.719  0.0455  0.2639  0.2339
15182TIP3    H167037   6.864   0.990  11.771  0.3519  0.7201  0.0117
15182TIP3    H267038   6.819   1.013  11.629 -1.0587 -2.7406 -0.1877
15183TIP3   OH267039   1.768   5.205   0.305  0.7621 -0.3872 -0.5710
15183TIP3    H167040   1.803   5.281   0.259  0.7399  0.0342  0.0943
15183TIP3    H267041   1.709   5.242   0.370  1.2868 -0.9365  0.2309
15184TIP3   OH267042   0.955   1.801   1.237 -0.1013  0.1284 -0.1947
15184TIP3    H167043   0.920   1.721   1.277  1.3330 -0.0764  0.7337
15184TIP3    H267044   0.997   1.847   1.310 -0.4022  1.4482 -0.8375
15185TIP3   OH267045   2.064   0.775  16.464 -0.5388 -0.0667 -0.4673
15185TIP3    H167046   2.112   0.856  16.449  0.0383 -0.3026  0.0695
15185TIP3    H267047   2.056   0.768  16.559 -3.0514  0.7740 -0.5407
15186TIP3   OH267048   0.950   3.391  15.026  0.3212 -0.3796 -0.7532
15186TIP3    H167049   1.007   3.466  15.043  2.3185 -2.0828  0.7277
15186TIP3    H267050   0.944   3.346  15.111  1.5236 -3.3491 -2.0913
15187TIP3   OH267051   0.938   0.456  14.628  0.5142  0.4197 -0.3834
15187TIP3    H167052   0.898   0.499  14.704 -0.2773  0.1028 -0.6094
15187TIP3    H267053   1.029   0.486  14.629 -0.1087  2.5147 -0.8256
15188TIP3   OH267054   5.289   4.825  17.236  0.2473  0.5964 -0.4235
15188TIP3    H167055   5.368   4.838  17.183  0.8218  2.8538  0.8442
15188TIP3    H267056   5.268   4.912  17.269 -2.4343 -0.0549 -0.1753
15189TIP3   OH267057   2.691   4.342   6.252  0.3305 -0.3256 -0.1994
15189TIP3    H167058   2.649   4.307   6.331 -1.2588  0.0724 -0.8357
15189TIP3    H267059   2.709   4.433   6.273  2.4216 -0.8621  0.6429
15190TIP3   OH267060   0.728   2.758   2.530 -0.8496 -0.1511  0.2817
15190TIP3    H167061   0.696   2.720   2.448  1.8709 -0.1459 -0.8685
15190TIP3    H267062   0.762   2.844   2.505 -1.1478  0.4111  1.6998
15191TIP3   OH267063   4.602   3.358  13.749  0.0645  0.1621 -0.0986
15191TIP3    H167064   4.697   3.368  13.739  0.0619 -0.1804 -0.4791
15191TIP3    H267065   4.589   3.349  13.843  0.6255 -1.8798 -0.1620
15192TIP3   OH267066   3.358   0.019   3.236 -0.0038  0.0645  0.1358
15192TIP3    H167067   3.356   0.025   3.331  0.4149  2.2835  0.0776
15192TIP3    H267068   3.304   0.093   3.206  0.1212 -0.3961 -1.3378
15193TIP3   OH267069   3.675   5.082   1.638 -0.4170  0.3171 -0.0389
15193TIP3    H167070   3.629   5.099   1.720  1.5669  2.0450  0.7865
15193TIP3    H267071   3.636   5.144   1.576 -1.7624 -0.8378 -0.4100
15194TIP3   OH267072   5.865   1.311  15.363 -0.0227 -0.4621 -0.4397
15194TIP3    H167073   5.866   1.304  15.267  0.1720  0.6104 -0.5311
15194TIP3    H267074   5.908   1.395  15.381  1.2920 -1.3191  0.6562
15195TIP3   OH267075   3.049   5.761   2.717 -0.4753 -0.5235  0.0132
15195TIP3    H167076   3.005   5.794   2.638 -0.1974 -0.4237 -0.1003
15195TIP3    H267077   3.029   5.826   2.784 -0.4039 -0.4164 -0.0683
15196TIP3   OH267078   4.136   3.766  12.082 -0.2499 -0.4618 -0.1964
15196TIP3    H167079   4.129   3.849  12.128  2.4374 -1.1182  1.5883
15196TIP3    H267080   4.045   3.741  12.064 -1.3934  0.7095  3.2046
15197TIP3   OH267081   4.585   2.490   2.316 -0.4780 -0.0612 -0.2080
15197TIP3    H167082   4.565   2.397   2.323 -1.1298 -0.0425 -1.5981
15197TIP3    H267083   4.515   2.526   2.262  0.2697  1.0752 -0.4622
15198TIP3   OH267084   0.782   6.019  11.444  0.0969 -0.6295 -0.2311
15198TIP3    H167085   0.787   5.927  11.416  1.5748 -0.7397  0.3100
15198TIP3    H267086   0.706   6.022  11.502  0.6255 -1.7608  0.5640
15199TIP3   OH267087   0.979   6.677  16.830 -0.0168 -0.3843 -0.3494
15199TIP3    H167088   0.980   6.681  16.735 -0.6741 -0.1781 -0.3579
15199TIP3    H267089   0.906   6.734  16.855  2.0319  2.0713  0.4398
15200TIP3   OH267090   5.799   0.235   3.844 -0.0325 -0.2869  0.6388
15200TIP3    H167091   5.780   0.309   3.787  0.4680  0.5437  1.5318
15200TIP3    H267092   5.895   0.227   3.841 -0.0498 -0.5969  0.9260
15201TIP3   OH267093   2.463   6.136   5.716 -0.3144  0.3096 -0.2842
15201TIP3    H167094   2.374   6.113   5.688 -0.7204  1.1850  0.2338
15201TIP3    H267095   2.483   6.216   5.666 -0.6403  1.2933  1.0941
15202TIP3   OH267096   3.118   6.260  14.505 -0.3345  0.2967 -0.4148
15202TIP3    H167097   3.126   6.197  14.576  0.7811 -0.2688 -1.0105
15202TIP3    H267098   3.147   6.343  14.542 -0.7793  0.2315  0.0814
15203TIP3   OH267099   2.900   3.387  13.947 -0.1644 -0.1313  0.3034
15203TIP3    H167100   2.837   3.435  14.002  1.1714 -0.6298  2.3495
15203TIP3    H267101   2.854   3.306  13.924 -1.2000  0.6254 -0.4037
15204TIP3   OH267102   0.651   0.151   5.201 -0.5556  0.0328  0.0045
15204TIP3    H167103   0.591   0.192   5.138  0.4239  0.2117 -0.8358
15204TIP3    H267104   0.731   0.135   5.151  0.2585  0.1943  1.2162
15205TIP3   OH267105   5.211   2.342  17.279 -0.4993  0.1747  0.4104
15205TIP3    H167106   5.268   2.294  17.338 -1.0964 -0.4384  0.4948
15205TIP3    H267107   5.270   2.400  17.230 -0.0765  1.3361  2.1897
15206TIP3   OH267108   4.905   2.378   5.328 -0.1439 -0.3279  0.1264
15206TIP3    H167109   4.991   2.404   5.361 -0.0775 -1.2897  0.7654
15206TIP3    H267110   4.860   2.343   5.405 -0.9379 -0.2741 -0.2990
15207TIP3   OH267111   3.973   3.419   5.481 -0.2810 -0.4668  0.2361
15207TIP3    H167112   4.028   3.342   5.471 -0.2011 -0.3919  0.0907
15207TIP3    H267113   3.899   3.404   5.422 -1.1005 -1.1695  1.4027
15208TIP3   OH267114   6.009   4.420  14.958 -0.4855 -0.1006 -0.3933
15208TIP3    H167115   6.052   4.409  14.873  0.4568 -2.4200  0.3080
15208TIP3    H267116   5.938   4.482  14.941  1.0193  1.2081 -2.3602
15209TIP3   OH267117   3.636   4.143  12.374  0.4045  0.1031 -0.5224
15209TIP3    H167118   3.555   4.166  12.330  0.2830 -1.1305 -1.0025
15209TIP3    H267119   3.705   4.167  12.312  0.2934 -0.5517 -0.9141
15210TIP3   OH267120   6.033   5.691  12.987 -0.4611  0.6151 -0.2580
15210TIP3    H167121   5.977   5.707  12.911 -0.2402 -0.7949 -0.7373
15210TIP3    H267122   6.055   5.598  12.982  2.9076  1.3138 -0.7685
15211TIP3   OH267123   2.600   5.216   0.940  0.0790 -0.4292 -0.5051
15211TIP3    H167124   2.638   5.194   1.024 -0.5975 -1.1278 -0.3669
15211TIP3    H267125   2.506   5.204   0.952 -0.0925  0.1749 -1.1475
15212TIP3   OH267126   1.599   5.854   3.345  0.2331 -0.1143 -0.1052
15212TIP3    H167127   1.611   5.759   3.354  0.5481 -0.1258 -0.6593
15212TIP3    H267128   1.527   5.863   3.283  0.0594  0.0101  0.1118
15213TIP3   OH267129   0.255   3.555   3.977  0.1131  0.0622  0.0867
15213TIP3    H167130   0.253   3.604   4.059 -1.3850 -0.3787  0.3590
15213TIP3    H267131   0.314   3.481   3.995  0.9790  0.7839  0.2565
15214TIP3   OH267132   5.366   2.537  11.705  0.5972 -0.1378 -0.0535
15214TIP3    H167133   5.392   2.589  11.781  0.3868 -0.7690  0.4490
15214TIP3    H267134   5.373   2.446  11.733 -1.2328 -0.3545 -0.1916
15215TIP3   OH267135   1.917   5.226   2.711 -0.4908  0.2457  0.3029
15215TIP3    H167136   1.858   5.190   2.777 -2.0993  0.4023 -0.9768
15215TIP3    H267137   1.861   5.244   2.635  0.9993  1.5045 -0.5798
15216TIP3   OH267138   1.541   4.770  15.930  0.2773 -0.9430  0.3536
15216TIP3    H167139   1.452   4.793  15.903 -0.0910 -1.1928  1.2893
15216TIP3    H267140   1.532   4.683  15.969  0.9126 -0.9275  0.5404
15217TIP3   OH267141   2.209   4.091  10.939 -0.1360  0.3374 -0.0241
15217TIP3    H167142   2.198   4.100  11.033  2.1572 -3.8011  0.9171
15217TIP3    H267143   2.246   4.174  10.910  0.1721  1.3317  2.9526
15218TIP3   OH267144   1.691   1.005   5.594 -0.4933  0.2830  0.6319
15218TIP3    H167145   1.623   0.954   5.551 -1.4364  0.5946  1.6954
15218TIP3    H267146   1.651   1.091   5.608 -0.4695  0.0087  2.6501
15219TIP3   OH267147   1.298   6.622   0.651  0.2623  0.4800 -0.5829
15219TIP3    H167148   1.290   6.694   0.588 -1.4835  1.7734  0.9961
15219TIP3    H267149   1.300   6.666   0.736  0.5781 -1.3167  0.3768
15220TIP3   OH267150   1.736   5.809   5.402  0.1335  0.5627 -0.2871
15220TIP3    H167151   1.735   5.902   5.381 -2.5465 -0.0245 -3.5761
15220TIP3    H267152   1.772   5.768   5.323  0.0293 -1.2790  0.5823
15221TIP3   OH267153   4.144   6.266   4.960 -0.1275  0.4564 -0.0300
15221TIP3    H167154   4.091   6.188   4.939 -3.3304  1.8442  2.1216
15221TIP3    H267155   4.142   6.318   4.879 -0.0785 -0.5569 -0.7069
15222TIP3   OH267156   1.009   0.788   0.337 -0.0685  0.2078 -0.1171
15222TIP3    H167157   0.963   0.846   0.276  0.5176  1.4564  0.6030
15222TIP3    H267158   1.101   0.793   0.311  0.2684  1.1648  1.1601
15223TIP3   OH267159   2.575   6.373   1.311  0.5344 -0.0001 -0.6357
15223TIP3    H167160   2.613   6.297   1.267  0.5058 -0.1016 -0.4881
15223TIP3    H267161   2.482   6.352   1.318  0.3965  0.3899 -1.2832
15224TIP3   OH267162   3.166   3.324   3.739  0.4007 -0.3299 -0.4480
15224TIP3    H167163   3.204   3.350   3.823 -1.0710  0.0504  0.1400
15224TIP3    H267164   3.084   3.373   3.734  1.2092  0.9694 -2.8966
15225TIP3   OH267165   4.595   1.319  13.305  0.0518  0.1595  0.6987
15225TIP3    H167166   4.593   1.270  13.387  1.4404  0.4793  0.9558
15225TIP3    H267167   4.510   1.362  13.300 -0.8319 -1.4695  0.9435
15226TIP3   OH267168   3.771   5.808   2.225  0.2400 -0.5849  0.0329
15226TIP3    H167169   3.803   5.747   2.159  1.1242 -1.2535  1.0568
15226TIP3    H267170   3.836   5.877   2.228 -0.9885  0.7083 -1.4542
15227TIP3   OH267171   1.848   5.128  12.336  0.8209  0.4445  0.0864
15227TIP3    H167172   1.823   5.171  12.254  1.5496 -0.9585 -0.9268
15227TIP3    H267173   1.941   5.108  12.325  0.4153 -1.8157  0.2603
15228TIP3   OH267174   3.131   6.258  15.577 -0.0428  0.7057  0.2961
15228TIP3    H167175   3.133   6.335  15.635 -1.5334  1.8980 -1.1541
15228TIP3    H267176   3.071   6.282  15.507  0.3731 -1.3646 -0.8462
15229TIP3   OH267177   3.903   0.394   2.926  0.4825  0.4489 -0.4352
15229TIP3    H167178   3.894   0.423   2.835 -1.7983  1.3078 -0.0259
15229TIP3    H267179   3.939   0.470   2.972  1.1358  0.1975 -0.5294
15230TIP3   OH267180   4.243   2.205   1.909 -0.0348 -0.3273 -0.6635
15230TIP3    H167181   4.295   2.125   1.919 -1.0045 -1.0267 -1.0908
15230TIP3    H267182   4.220   2.229   1.999  1.3623  0.2376 -0.4337
15231TIP3   OH267183   6.186   5.218  15.205 -0.0965 -0.0954  0.6632
15231TIP3    H167184   6.165   5.311  15.202 -0.9363 -0.2856  0.1371
15231TIP3    H267185   6.168   5.193  15.296  0.8142  0.3952  0.9867
15232TIP3   OH267186   4.687   2.054  13.496 -0.1509 -0.1641  0.0625
15232TIP3    H167187   4.724   1.980  13.544  1.4899  0.8187  0.3900
15232TIP3    H267188   4.707   2.035  13.404 -1.1551 -0.8734 -0.0268
15233TIP3   OH267189   2.078   0.544   0.675  0.5720 -0.2515 -0.6761
15233TIP3    H167190   2.101   0.466   0.726 -1.1065 -0.2669  0.1242
15233TIP3    H267191   2.074   0.614   0.740  1.3249  0.3663 -1.2749
15234TIP3   OH267192   0.870   0.005  15.768  0.9231 -0.3215  0.0338
15234TIP3    H167193   0.855  -0.089  15.758 -0.4203 -0.1754  0.4981
15234TIP3    H267194   0.937   0.026  15.703 -1.0152 -1.0311 -2.3253
15235TIP3   OH267195   6.098   5.598  17.281 -0.0335 -0.0153  0.1643
15235TIP3    H167196   6.045   5.525  17.314  0.5643 -0.5232  0.0124
15235TIP3    H267197   6.175   5.557  17.243  0.9002  0.7500  1.1485
15236TIP3   OH267198   4.028   6.694  13.299 -0.0074 -0.1756  0.0151
15236TIP3    H167199   4.011   6.717  13.390  0.7724  1.0497 -0.1165
15236TIP3    H267200   3.968   6.750  13.249  1.7651  1.5489 -0.3117
15237TIP3   OH267201   5.156   2.841  10.833  0.1798 -0.5159  0.5710
15237TIP3    H167202   5.168   2.853  10.738  1.3293  1.1663  0.8751
15237TIP3    H267203   5.063   2.822  10.843  0.0421 -0.7493 -0.9055
15238TIP3   OH267204   0.441   1.648  12.568  0.4543  0.4838  0.6362
15238TIP3    H167205   0.509   1.588  12.536  0.6319 -0.0072  1.8951
15238TIP3    H267206   0.490   1.718  12.612  0.1553  0.0537  1.6763
15239TIP3   OH267207   6.283   0.014  16.235  0.3558  0.2719 -0.2945
15239TIP3    H167208   6.224   0.020  16.161 -1.2234  4.6018  1.0493
15239TIP3    H267209   6.232  -0.031  16.303 -0.1089  0.8660 -0.2470
15240TIP3   OH267210   6.562   1.518  14.038 -0.3199  0.1477  0.2803
15240TIP3    H167211   6.548   1.588  13.973 -0.5751 -1.3040 -1.2901
15240TIP3    H267212   6.656   1.519  14.054 -0.2376  0.4579 -0.1975
15241TIP3   OH267213   0.464   4.180  14.848  0.3098 -0.0749 -0.6156
15241TIP3    H167214   0.534   4.227  14.803  0.2158  0.3657 -0.3042
15241TIP3    H267215   0.447   4.103  14.793  1.7948 -0.7835 -0.1438
15242TIP3   OH267216   1.307   4.440   1.152  0.2595 -0.1507 -0.3069
15242TIP3    H167217   1.296   4.502   1.225  2.0216  1.3572 -1.2549
15242TIP3    H267218   1.228   4.453   1.098 -1.5678 -1.9891  1.7200
15243TIP3   OH267219   6.355   6.455   1.272  0.5506  0.2537 -0.3304
15243TIP3    H167220   6.275   6.479   1.226  0.4813  0.0654 -0.3061
15243TIP3    H267221   6.412   6.419   1.204  1.0991  1.5295 -0.5957
15244TIP3   OH267222   1.351   5.115   6.281  0.2183  0.4885 -0.2462
15244TIP3    H167223   1.268   5.067   6.289  0.0966  0.8976  1.3356
15244TIP3    H267224   1.326   5.200   6.245  0.2580 -0.1025 -1.7567
15245TIP3   OH267225   4.206   0.531  13.262 -0.0676 -0.3728  0.1224
15245TIP3    H167226   4.118   0.553  13.233 -0.2340 -0.8964  0.2255
15245TIP3    H267227   4.248   0.495  13.184  0.4677  1.0220 -0.2673
15246TIP3   OH267228   0.691   1.356  14.532  0.3689  0.0472 -0.2235
15246TIP3    H167229   0.763   1.410  14.499  0.3889 -0.3217 -0.8017
15246TIP3    H267230   0.704   1.354  14.627  1.7732 -0.9280 -0.4182
15247TIP3   OH267231   6.599   3.567   1.240 -0.5957  0.4152 -0.1096
15247TIP3    H167232   6.639   3.641   1.194 -2.4780 -0.2958 -3.2525
15247TIP3    H267233   6.672   3.509   1.262  0.5146  1.0665 -1.8789
15248TIP3   OH267234   0.713   3.977  14.909  0.7437 -0.2177 -0.2600
15248TIP3    H167235   0.623   3.960  14.881  1.4426  0.8776 -3.6711
15248TIP3    H267236   0.725   4.071  14.896  2.4532 -0.3832 -0.1419
15249TIP3   OH267237   3.676   5.033   0.875  0.1809 -0.1660  0.4458
15249TIP3    H167238   3.630   5.114   0.854 -0.7861 -0.5185  1.1616
15249TIP3    H267239   3.670   4.981   0.795  1.0824  0.5706 -0.1281
15250TIP3   OH267240   5.515   6.486  14.653 -0.0496  0.1319  0.3636
15250TIP3    H167241   5.465   6.418  14.607 -0.5388  0.7502 -0.0426
15250TIP3    H267242   5.521   6.455  14.743  1.1934 -1.2645 -0.1548
15251TIP3   OH267243   3.879   3.417  10.697 -0.0877  0.5454 -0.2824
15251TIP3    H167244   3.855   3.479  10.766  0.6500  0.1349  0.3647
15251TIP3    H267245   3.796   3.383  10.664 -0.4474  0.2433  0.8856
15252TIP3   OH267246   2.686   1.815  11.106  0.1207 -0.5497  0.2413
15252TIP3    H167247   2.606   1.829  11.157 -1.0448 -0.6319 -1.5046
15252TIP3    H267248   2.663   1.841  11.017  2.5882  1.2280 -0.0040
15253TIP3   OH267249   3.196   1.348  12.546 -0.3935  0.2105  0.3830
15253TIP3    H167250   3.172   1.330  12.455  0.6412  2.5029 -0.4274
15253TIP3    H267251   3.215   1.262  12.584  0.0522 -0.7276 -1.8379
15254TIP3   OH267252   5.557   4.162   5.139 -0.0983 -0.0932  0.3558
15254TIP3    H167253   5.551   4.078   5.185 -1.2715 -0.7698 -0.9443
15254TIP3    H267254   5.468   4.197   5.144 -0.6780 -0.9040 -2.5917
15255TIP3   OH267255   2.650   3.821   4.074  0.2504 -0.6476 -0.3488
15255TIP3    H167256   2.722   3.880   4.050 -0.2168 -0.1198 -0.4722
15255TIP3    H267257   2.583   3.879   4.112  1.0324 -1.4341  2.5172
15256TIP3   OH267258   2.654   0.729   0.625  0.5352  0.0242  0.3562
15256TIP3    H167259   2.640   0.659   0.561  1.5733 -0.1443  0.2893
15256TIP3    H267260   2.588   0.714   0.692  1.0359 -1.3193  0.5746
15257TIP3   OH267261   6.209   3.859   1.954 -0.1332  0.2586  0.3840
15257TIP3    H167262   6.294   3.821   1.979  0.2690  1.6419  1.2546
15257TIP3    H267263   6.172   3.796   1.893  1.6086 -0.3014 -0.1681
15258TIP3   OH267264   5.446   3.878   5.358  0.0608 -0.2105 -0.4713
15258TIP3    H167265   5.477   3.836   5.438  0.0811 -0.2283 -0.4889
15258TIP3    H267266   5.392   3.951   5.389 -0.1408 -0.3729 -0.4432
15259TIP3   OH267267   0.222   4.466   6.485  0.1060  0.0834  0.0418
15259TIP3    H167268   0.134   4.442   6.514  1.3432 -2.3954  2.1422
15259TIP3    H267269   0.241   4.548   6.531 -0.7662  0.1798  0.2605
15260TIP3   OH267270   3.674   4.473  12.873 -0.1477  0.3966 -0.1533
15260TIP3    H167271   3.617   4.424  12.814  0.2031  0.7366 -0.7852
15260TIP3    H267272   3.654   4.565  12.854 -0.2141  0.5111  0.4452
15261TIP3   OH267273   5.350   0.018   2.797  0.5777  0.3727 -0.1415
15261TIP3    H167274   5.354   0.108   2.826  1.3076  0.2071  0.2823
15261TIP3    H267275   5.331   0.024   2.703 -0.8363  0.9248  0.1602
15262TIP3   OH267276   2.652   5.426  15.347  0.1859 -0.0037 -0.0826
15262TIP3    H167277   2.584   5.417  15.280 -1.0949  1.3709  0.9502
15262TIP3    H267278   2.606   5.407  15.429  1.3500 -0.1535  0.5456
15263TIP3   OH267279   2.435   6.174   6.723  0.4681  0.0842 -0.5962
15263TIP3    H167280   2.504   6.185   6.788 -0.2520 -1.9275  0.6255
15263TIP3    H267281   2.408   6.263   6.701  1.6371  0.8568  0.8752
15264TIP3   OH267282   3.337   5.496   3.978  0.4579  0.4195  0.0666
15264TIP3    H167283   3.394   5.572   3.972  0.1413  0.5818 -1.2551
15264TIP3    H267284   3.389   5.430   4.023  1.0483  1.1230  0.4391
15265TIP3   OH267285   4.427   1.443   5.031  0.0831  0.0711  0.1977
15265TIP3    H167286   4.448   1.363   5.078 -1.2330 -0.8456 -0.6992
15265TIP3    H267287   4.492   1.506   5.061  2.1536 -1.7366 -0.2012
15266TIP3   OH267288   2.976   3.583  16.126 -0.3720  0.4026 -0.1740
15266TIP3    H167289   2.903   3.549  16.176  0.7579 -1.0158  0.5966
15266TIP3    H267290   2.970   3.540  16.040  0.5714 -1.1915  0.5137
15267TIP3   OH267291   2.865   3.711  16.428  0.0824 -0.0758  0.5503
15267TIP3    H167292   2.789   3.681  16.377 -0.2967 -0.7661  1.4849
15267TIP3    H267293   2.829   3.773  16.491  0.6183  1.1257 -0.2914
15268TIP3   OH267294   3.661   6.809   4.133  0.4263 -0.6669 -0.1135
15268TIP3    H167295   3.659   6.856   4.216  1.2755  1.2046 -1.0999
15268TIP3    H267296   3.572   6.816   4.099  0.7336  1.1459 -0.6789
15269TIP3   OH267297   3.395   2.220  10.626 -0.6364  0.0448  0.4467
15269TIP3    H167298   3.365   2.256  10.542 -1.1596 -0.7893  0.2677
15269TIP3    H267299   3.396   2.126  10.613  1.5008  0.0027  0.6707
15270TIP3   OH267300   4.229   2.398   1.640 -0.1007 -0.1335 -0.6287
15270TIP3    H167301   4.201   2.338   1.710  1.8182 -1.4469 -0.9000
15270TIP3    H267302   4.322   2.413   1.658 -0.3959  2.4164 -0.8807
15271TIP3   OH267303   1.835   2.675   5.292 -0.2636 -0.3361  0.0896
15271TIP3    H167304   1.824   2.679   5.387 -1.3653  0.5246 -0.0492
15271TIP3    H267305   1.884   2.594   5.276 -0.4544 -0.7177  1.3577
15272TIP3   OH267306   0.133   6.696   3.182 -0.9418 -0.1580 -0.4810
15272TIP3    H167307   0.139   6.780   3.228  0.8828 -0.5979  0.1499
15272TIP3    H267308   0.089   6.638   3.245 -0.4815 -0.1645 -0.1607
15273TIP3   OH267309   2.635   0.783   4.702  0.1167 -0.1488  0.0711
15273TIP3    H167310   2.592   0.787   4.617  0.8859 -1.6419 -0.4120
15273TIP3    H267311   2.726   0.805   4.684  0.4550 -1.2729  0.3580
15274TIP3   OH267312   1.777   3.383  14.191  0.1440 -0.0486 -0.2658
15274TIP3    H167313   1.744   3.327  14.262 -1.3024  1.0639 -0.0379
15274TIP3    H267314   1.720   3.363  14.117 -0.6574  1.3900 -0.0642
15275TIP3   OH267315   5.425   0.095  14.309 -0.0620 -0.3722 -0.7482
15275TIP3    H167316   5.399   0.067  14.397 -0.1434  0.5707 -0.4596
15275TIP3    H267317   5.343   0.111  14.264 -0.0158 -0.0244 -0.7135
15276TIP3   OH267318   2.309   4.907  14.586  0.1268  0.1814  0.1199
15276TIP3    H167319   2.329   4.978  14.525 -0.2394 -0.4602 -0.7663
15276TIP3    H267320   2.263   4.950  14.658 -0.5937  0.7648 -0.6708
15277TIP3   OH267321   0.264   1.256  11.169 -0.1835  0.3386 -0.1273
15277TIP3    H167322   0.281   1.287  11.081 -0.2922 -1.3824 -0.7825
15277TIP3    H267323   0.304   1.322  11.226  0.5878  1.0506 -1.4591
15278TIP3   OH267324   1.574   6.510  14.581  0.3431  0.0809  0.4522
15278TIP3    H167325   1.622   6.563  14.645 -0.5260 -0.3343  1.4779
15278TIP3    H267326   1.593   6.420  14.605 -1.1191 -0.0959  1.0441
15279TIP3   OH267327   3.453   1.205   0.117  0.6065 -0.1004  0.2624
15279TIP3    H167328   3.427   1.276   0.058  0.5099  0.5814  1.1003
15279TIP3    H267329   3.548   1.197   0.106  0.2688 -1.9097 -2.0580
15280TIP3   OH267330   5.456   1.285   1.187 -0.7265 -0.6910 -0.6380
15280TIP3    H167331   5.456   1.335   1.105  0.0174 -1.6263 -1.2380
15280TIP3    H267332   5.369   1.245   1.190 -1.7582  1.4339  0.4075
15281TIP3   OH267333   4.324   6.643  13.295  0.4973 -0.2801  0.3183
15281TIP3    H167334   4.325   6.731  13.333 -0.4399 -0.5573  1.0240
15281TIP3    H267335   4.232   6.625  13.279  0.8024 -0.5352 -1.3031
15282TIP3   OH267336   3.085   3.627   3.512  0.1237  0.4563 -0.6668
15282TIP3    H167337   3.052   3.539   3.531 -1.2216  0.8891 -0.9346
15282TIP3    H267338   3.126   3.656   3.593 -3.8514  1.5466  1.1612
15283TIP3   OH267339   5.667   6.673   0.332  0.2122 -0.8068 -0.1049
15283TIP3    H167340   5.606   6.624   0.387  1.8214 -2.3750  0.3879
15283TIP3    H267341   5.633   6.664   0.243 -2.1612  1.3548  0.4362
15284TIP3   OH267342   0.234   1.387  10.902  0.0670 -0.0146 -0.0658
15284TIP3    H167343   0.150   1.428  10.918  0.2506  0.7712 -1.0246
15284TIP3    H267344   0.213   1.298  10.873 -0.5905  0.8789 -2.5860
15285TIP3   OH267345   0.133   5.718  14.323  0.5120 -0.3112 -0.6405
15285TIP3    H167346   0.045   5.680  14.330  0.3218  0.2704  0.4092
15285TIP3    H267347   0.119   5.812  14.333  1.4634 -0.3653  2.1403
15286TIP3   OH267348   5.791   6.359   2.351  0.0967 -0.5878  0.6641
15286TIP3    H167349   5.792   6.341   2.445  0.0745 -0.6459  0.6535
15286TIP3    H267350   5.846   6.290   2.313  0.4435 -0.3216  0.6760
15287TIP3   OH267351   0.771   5.912   6.345 -0.8878 -0.1128 -0.0298
15287TIP3    H167352   0.690   5.960   6.362 -1.5630 -1.1940 -0.1399
15287TIP3    H267353   0.765   5.834   6.399 -0.3417 -0.6616 -0.7478
15288TIP3   OH267354   4.160   4.607  11.677 -0.1775  0.5439  0.5131
15288TIP3    H167355   4.102   4.576  11.607  2.5848  0.9895 -2.1467
15288TIP3    H267356   4.172   4.531  11.733 -1.7882 -0.0836  0.0730
15289TIP3   OH267357   2.190   1.982   5.446  0.1257  0.0453  0.1145
15289TIP3    H167358   2.101   1.974   5.412  0.7097 -0.9102 -1.2925
15289TIP3    H267359   2.215   2.072   5.427 -0.5332  0.3204  0.5235
15290TIP3   OH267360   2.551   2.864  15.571 -0.3033  0.1924 -0.3594
15290TIP3    H167361   2.486   2.931  15.592 -0.3088  0.1832 -0.3474
15290TIP3    H267362   2.509   2.781  15.594 -0.7194  0.0963 -1.3972
15291TIP3   OH267363   0.226   1.928   2.061  0.2345  0.7184  0.2501
15291TIP3    H167364   0.281   1.874   2.005 -0.2260  1.1133 -0.5990
15291TIP3    H267365   0.285   1.996   2.094  0.4147  0.7291 -0.0940
15292TIP3   OH267366   2.809   2.510   5.001 -0.2860  0.2353 -0.0386
15292TIP3    H167367   2.744   2.567   5.043 -0.3967  1.3089 -1.6211
15292TIP3    H267368   2.867   2.569   4.955  1.3208 -0.7808  0.5969
15293TIP3   OH267369   5.328   0.356   3.475 -0.1533  0.0587 -0.5886
15293TIP3    H167370   5.333   0.425   3.541  0.1014 -0.8182  0.3302
15293TIP3    H267371   5.296   0.401   3.396  1.9462  1.6313 -0.6244
15294TIP3   OH267372   5.427   1.713  13.718 -0.4874  0.0886  0.1489
15294TIP3    H167373   5.360   1.670  13.664  0.2131  0.7601 -1.3272
15294TIP3    H267374   5.385   1.793  13.749 -0.8536 -0.2366  0.5096
15295TIP3   OH267375   3.410   5.136   3.516  0.6069  0.3510 -0.2038
15295TIP3    H167376   3.336   5.158   3.460 -0.8089  0.0803  1.4796
15295TIP3    H267377   3.409   5.202   3.585  1.4886 -0.0746  0.2388
15296TIP3   OH267378   1.200   6.402  15.869 -0.4335 -0.4359 -0.3240
15296TIP3    H167379   1.197   6.351  15.788  0.8256  0.0779 -0.7328
15296TIP3    H267380   1.109   6.406  15.899 -0.8002 -1.3584 -1.2535
15297TIP3   OH267381   2.709   4.529   1.276  0.3427  0.0034 -0.8113
15297TIP3    H167382   2.654   4.608   1.280 -1.8346 -1.3963 -1.0630
15297TIP3    H267383   2.767   4.537   1.352  0.3974  1.9754 -0.9964
15298TIP3   OH267384   4.388   5.446   4.025 -0.2334 -0.4548 -0.6007
15298TIP3    H167385   4.482   5.439   4.039 -0.2814  0.0400 -0.0209
15298TIP3    H267386   4.362   5.359   3.992  0.1615 -1.1233  0.7946
15299TIP3   OH267387   2.463   3.697  16.075 -0.3219  0.1963 -0.2765
15299TIP3    H167388   2.461   3.625  16.013 -1.3327 -0.9832  1.0417
15299TIP3    H267389   2.382   3.745  16.059 -0.4907  0.0034 -0.0167
15300TIP3   OH267390   5.240   0.947   0.988  0.0515 -0.2193  0.5833
15300TIP3    H167391   5.262   0.871   0.933  1.5189  2.4288 -2.8229
15300TIP3    H267392   5.146   0.960   0.974  0.3772  0.3271 -1.3193
15301TIP3   OH267393   0.428   4.015  13.501 -0.0523 -0.4201  0.4036
15301TIP3    H167394   0.372   3.980  13.432  1.7042  0.2729 -1.4391
15301TIP3    H267395   0.423   4.110  13.490  1.9955 -0.3471 -0.2920
15302TIP3   OH267396   2.609   4.377  12.260 -0.0153 -0.1274 -0.8168
15302TIP3    H167397   2.614   4.466  12.226 -0.0009  0.0291 -0.4152
15302TIP3    H267398   2.657   4.324  12.196  1.2467  0.3771 -0.3326
15303TIP3   OH267399   5.207   6.217  11.805 -0.2773 -0.1076  0.4078
15303TIP3    H167400   5.211   6.246  11.714  1.4616 -1.5872 -0.0588
15303TIP3    H267401   5.289   6.250  11.844 -1.0158  0.5386  1.4608
15304TIP3   OH267402   4.716   5.475  13.410  0.3359  0.3374  0.5941
15304TIP3    H167403   4.626   5.497  13.435  0.7072  0.9009  1.4708
15304TIP3    H267404   4.722   5.500  13.318 -0.1359  1.1709  0.7765
15305TIP3   OH267405   6.329   1.839   4.815 -0.1896  0.3832  0.1851
15305TIP3    H167406   6.396   1.779   4.781 -2.2248 -0.7044 -2.1529
15305TIP3    H267407   6.367   1.872   4.896  2.9202 -0.6293 -0.7033
15306TIP3   OH267408   5.775   5.636   2.030  0.1815  0.6572 -0.1630
15306TIP3    H167409   5.781   5.663   2.122 -0.3255 -0.1261  0.1062
15306TIP3    H267410   5.735   5.549   2.033  0.5165  0.4625 -1.1045
15307TIP3   OH267411   3.820   1.951  16.486  0.4167 -1.2053  0.1543
15307TIP3    H167412   3.851   1.921  16.572  0.7923 -0.9272  0.1194
15307TIP3    H267413   3.856   2.040  16.477 -2.0448 -0.0342  0.9829
15308TIP3   OH267414   6.110   5.288  12.702 -0.4268 -0.1897 -0.8210
15308TIP3    H167415   6.074   5.217  12.650  2.0651 -0.9224 -1.6955
15308TIP3    H267416   6.135   5.355  12.638 -3.6536  2.0672  0.0389
15309TIP3   OH267417   4.422   3.767   1.192 -0.1468  0.3959  0.2896
15309TIP3    H167418   4.468   3.710   1.130  0.8279 -1.4850  2.5564
15309TIP3    H267419   4.352   3.712   1.228  0.2680  0.8684  1.9119
15310TIP3   OH267420   3.808   0.403  13.469  0.2842  0.0440 -0.8226
15310TIP3    H167421   3.759   0.446  13.399 -1.1509  2.4087  1.4433
15310TIP3    H267422   3.744   0.344  13.510  0.1371  0.9933  0.3661
15311TIP3   OH267423   0.749   3.617   4.722  0.1253 -0.3625 -0.0127
15311TIP3    H167424   0.788   3.664   4.648 -0.3388 -0.3372 -0.2414
15311TIP3    H267425   0.823   3.602   4.782  0.8286 -1.6801 -1.1406
15312TIP3   OH267426   4.919   5.595  12.477  0.3791  0.2541  0.3896
15312TIP3    H167427   5.005   5.623  12.445  1.2489 -1.8098  0.7359
15312TIP3    H267428   4.924   5.609  12.572  0.9694 -1.2875  0.6188
15313TIP3   OH267429   5.983   2.520  15.855 -0.3705  0.3543  0.2536
15313TIP3    H167430   6.048   2.522  15.784 -0.8081 -0.2942 -0.1780
15313TIP3    H267431   6.025   2.566  15.927  0.0633  1.0763 -0.4441
15314TIP3   OH267432   2.003   2.310  13.263 -0.0292  0.1802 -0.1903
15314TIP3    H167433   1.989   2.357  13.181  0.4878  0.3619 -0.1778
15314TIP3    H267434   2.062   2.238  13.240  1.6174  1.3056  0.3618
15315TIP3   OH267435   5.339   4.024   2.383 -0.1005  0.2166  0.0107
15315TIP3    H167436   5.315   4.036   2.292 -0.2681 -2.1961 -0.3349
15315TIP3    H267437   5.399   4.096   2.402 -1.4502  1.7990 -1.4368
15316TIP3   OH267438   5.741   0.310  16.233  0.6713  0.2378 -0.0091
15316TIP3    H167439   5.822   0.278  16.272 -0.7205 -1.2327  1.8950
15316TIP3    H267440   5.718   0.386  16.286  0.9952  0.8872 -0.7956
15317TIP3   OH267441   5.524   2.931   6.003  0.1141 -0.3789  0.2241
15317TIP3    H167442   5.436   2.922   5.965  0.1727 -0.5171  0.1197
15317TIP3    H267443   5.535   3.025   6.016 -0.5267 -0.4350  1.3677
15318TIP3   OH267444   2.191   1.838   1.964 -0.0274 -0.4262 -0.4289
15318TIP3    H167445   2.261   1.815   1.903 -0.6194  0.6640 -1.5594
15318TIP3    H267446   2.221   1.806   2.049  2.0226  0.3265 -0.8211
15319TIP3   OH267447   6.080   0.289   0.984  0.0804 -0.1056 -0.1687
15319TIP3    H167448   6.032   0.207   0.978  1.5983 -0.9054 -2.2123
15319TIP3    H267449   6.022   0.354   0.943  0.9830 -1.2333 -3.5108
15320TIP3   OH267450   5.592   1.181  11.850  0.1840 -0.3431 -0.6483
15320TIP3    H167451   5.523   1.194  11.784 -0.4633 -0.9586 -0.1071
15320TIP3    H267452   5.673   1.193  11.801 -0.2910 -0.3385 -1.4662
15321TIP3   OH267453   5.277   0.797  13.509 -0.6444  0.8532  0.1103
15321TIP3    H167454   5.314   0.852  13.441  0.0683  0.7114  0.3735
15321TIP3    H267455   5.221   0.735  13.462  2.6983 -1.6930 -0.8564
15322TIP3   OH267456   3.990   4.220  11.790  0.0791  0.8914 -0.2206
15322TIP3    H167457   3.973   4.273  11.867 -2.0828  2.1003 -1.4217
15322TIP3    H267458   4.060   4.267  11.743  0.4379  0.8937  0.3084
15323TIP3   OH267459   4.546   5.222  12.023  0.2456  0.0721 -0.0454
15323TIP3    H167460   4.527   5.315  12.011 -1.3166 -0.2694 -0.3753
15323TIP3    H267461   4.636   5.220  12.054  1.1033  1.5525 -2.2208
15324TIP3   OH267462   0.117   1.547  16.365  0.3186 -0.0145 -0.3795
15324TIP3    H167463   0.076   1.514  16.285  0.0125  0.7776 -0.5629
15324TIP3    H267464   0.081   1.492  16.435 -0.8818  0.4904 -0.5683
15325TIP3   OH267465   1.208   3.268  11.715 -0.0485  0.4230 -0.2634
15325TIP3    H167466   1.148   3.299  11.647 -1.6623  1.4395  1.5083
15325TIP3    H267467   1.294   3.295  11.685 -0.5287 -0.3193 -2.5050
15326TIP3   OH267468   4.090   2.551  14.975  0.1663  0.2149 -0.0812
15326TIP3    H167469   4.083   2.554  14.880  0.3876  1.1844 -0.0860
15326TIP3    H267470   4.031   2.621  15.005 -0.4498 -0.5525  0.5348
15327TIP3   OH267471   5.166   0.228  13.288  0.5004  0.3300  0.4211
15327TIP3    H167472   5.091   0.286  13.276 -0.5214 -1.4135 -2.8783
15327TIP3    H267473   5.188   0.236  13.381 -1.8813  3.0974  0.8921
15328TIP3   OH267474   5.678   4.358   3.264  0.3612  0.7087  0.3561
15328TIP3    H167475   5.730   4.293   3.216  0.0378 -0.4095  1.4786
15328TIP3    H267476   5.595   4.362   3.216 -0.2999 -1.0631  1.2752
15329TIP3   OH267477   0.338   2.164  15.153 -0.0502  0.0818  0.4848
15329TIP3    H167478   0.383   2.203  15.228  0.2724  0.9578 -0.1475
15329TIP3    H267479   0.245   2.168  15.176  0.0522  0.2614  0.8800
15330TIP3   OH267480   2.984   6.427   0.985 -0.4855 -0.3058  0.0505
15330TIP3    H167481   3.025   6.401   1.068 -0.0737 -0.8524 -0.3234
15330TIP3    H267482   3.012   6.361   0.922 -1.1747 -0.1499 -0.4278
15331TIP3   OH267483   2.254   0.738   4.910 -0.1187 -0.0525 -0.7081
15331TIP3    H167484   2.198   0.684   4.854  0.0653  0.7305 -1.6845
15331TIP3    H267485   2.291   0.803   4.850 -0.4501  1.2518  0.4570
15332TIP3   OH267486   1.587   0.574   5.494 -0.2412 -0.0319 -0.3588
15332TIP3    H167487   1.658   0.513   5.514 -0.1180  0.1467 -0.2543
15332TIP3    H267488   1.620   0.660   5.521  0.4922  0.4455 -2.6086
15333TIP3   OH267489   3.029   4.468   0.050 -0.1843 -0.8454  0.0631
15333TIP3    H167490   3.084   4.392   0.064  2.1239  0.7665  0.2890
15333TIP3    H267491   3.000   4.493   0.138 -2.7917 -2.6150 -0.1614
15334TIP3   OH267492   0.777   2.780  16.979  0.1248  0.6881 -0.3554
15334TIP3    H167493   0.715   2.853  16.982  1.5984  2.0043 -0.9400
15334TIP3    H267494   0.728   2.707  17.017 -1.6236  1.7823 -0.3519
15335TIP3   OH267495   4.443   0.191  15.072 -0.0161  0.0151 -0.0357
15335TIP3    H167496   4.459   0.206  15.165  0.4604 -1.1112  0.0806
15335TIP3    H267497   4.524   0.219  15.029  0.8593 -2.0609  0.1776
15336TIP3   OH267498   6.259   2.415  13.481  0.3724 -0.1051  0.1304
15336TIP3    H167499   6.245   2.322  13.463 -1.6292 -0.0184  0.9239
15336TIP3    H267500   6.326   2.416  13.549 -1.2094 -1.1833  1.8394
15337TIP3   OH267501   1.133   5.218   5.882 -0.2512 -0.0490  0.2502
15337TIP3    H167502   1.169   5.288   5.827 -1.0031 -0.2424 -0.5046
15337TIP3    H267503   1.143   5.251   5.971  0.5153  0.4940 -0.0200
15338TIP3   OH267504   0.832   4.803   0.798  0.3560 -0.3936  0.1466
15338TIP3    H167505   0.880   4.838   0.723 -0.0306 -0.0504  0.0547
15338TIP3    H267506   0.889   4.819   0.873  1.6586 -2.5560 -0.3105
15339TIP3   OH267507   4.337   6.644   3.285  0.2795  0.1232  0.0635
15339TIP3    H167508   4.271   6.713   3.287  0.3711  0.1966  0.7701
15339TIP3    H267509   4.378   6.647   3.372  0.0259 -1.0774  0.2367
15340TIP3   OH267510   1.902   1.130  11.322 -0.0094 -0.3377  0.0693
15340TIP3    H167511   1.846   1.168  11.254 -0.9294 -2.0818 -0.2072
15340TIP3    H267512   1.943   1.054  11.280 -0.1597 -1.1133  1.2711
15341TIP3   OH267513   3.901   2.952  14.354 -0.4761  0.3423 -0.0637
15341TIP3    H167514   3.864   2.888  14.414 -0.8632  1.8119  1.3297
15341TIP3    H267515   3.971   2.905  14.308 -1.1612 -1.2240  0.4576
15342TIP3   OH267516   5.760   2.364  16.409  0.2992 -0.3042 -0.1044
15342TIP3    H167517   5.812   2.344  16.331 -1.1749 -1.4434 -0.8325
15342TIP3    H267518   5.687   2.417  16.377  0.3195  0.2324  0.7071
15343TIP3   OH267519   3.181   5.982   6.079 -0.4846  0.1360 -0.2997
15343TIP3    H167520   3.152   6.068   6.046  3.3735  1.3813 -0.9441
15343TIP3    H267521   3.140   5.976   6.166 -2.0501  1.8996 -0.8197
15344TIP3   OH267522   4.155   0.524  15.181 -0.0338  0.1289  0.6722
15344TIP3    H167523   4.224   0.563  15.235  0.0816  0.4517  0.2974
15344TIP3    H267524   4.095   0.596  15.162  0.5371  0.3088 -0.5863
15345TIP3   OH267525   5.598   2.866  17.113  0.3724  0.2378  0.4604
15345TIP3    H167526   5.545   2.871  17.033 -0.0027  0.4449  0.7171
15345TIP3    H267527   5.573   2.784  17.154 -0.6968  0.9102  1.2231
15346TIP3   OH267528   3.335   5.693   2.670 -0.0666 -0.4350 -0.3085
15346TIP3    H167529   3.285   5.730   2.598 -1.3798  0.5692  1.0413
15346TIP3    H267530   3.269   5.674   2.737  1.2357 -0.0553  1.1379
15347TIP3   OH267531   2.079   5.345   4.316 -0.0088  0.2528 -0.4373
15347TIP3    H167532   2.121   5.325   4.232  0.6017  0.8815 -0.2950
15347TIP3    H267533   1.995   5.384   4.293 -0.0185  0.0464 -0.7512
15348TIP3   OH267534   2.786   5.447   4.481 -0.0307  0.2524  0.3182
15348TIP3    H167535   2.796   5.495   4.399 -0.7276 -1.8492 -1.0982
15348TIP3    H267536   2.837   5.496   4.545 -0.4245  2.6083 -1.0823
15349TIP3   OH267537   3.152   6.502  15.176  0.1658 -0.4268 -0.6897
15349TIP3    H167538   3.165   6.407  15.172 -1.6364 -0.9880  2.7855
15349TIP3    H267539   3.070   6.517  15.129  0.2233 -0.6260 -0.8577
15350TIP3   OH267540   3.646   4.690  11.720  0.2375  0.0548 -0.1057
15350TIP3    H167541   3.569   4.745  11.735  1.4862  1.5152  1.3094
15350TIP3    H267542   3.695   4.735  11.651  1.6767  1.2576  1.6229
15351TIP3   OH267543   4.809   4.871  11.136 -0.3593 -0.4038 -0.5024
15351TIP3    H167544   4.881   4.912  11.087 -0.8091  1.0334 -0.0200
15351TIP3    H267545   4.750   4.944  11.155 -0.8803 -1.1861  0.9559
15352TIP3   OH267546   2.467   5.798  14.863 -0.0805  0.4842 -0.9710
15352TIP3    H167547   2.404   5.797  14.791 -1.1505  0.4334 -0.0642
15352TIP3    H267548   2.414   5.812  14.941  1.1112  1.0968 -0.2362
15353TIP3   OH267549   0.132   0.780  12.981  0.0236  0.2223  1.0670
15353TIP3    H167550   0.061   0.728  13.019  1.1609 -0.5519  2.2482
15353TIP3    H267551   0.103   0.800  12.893 -2.1786  0.9818  1.9125
15354TIP3   OH267552   1.644   6.182   1.235  0.0070  0.6368  0.2181
15354TIP3    H167553   1.687   6.138   1.309 -0.1031 -0.0857 -0.1377
15354TIP3    H267554   1.693   6.263   1.223  0.7290  0.2309  0.3770
15355TIP3   OH267555   3.710   1.940  11.424  0.1531  0.3898  0.2208
15355TIP3    H167556   3.706   2.031  11.455 -0.1861  0.4781 -0.0773
15355TIP3    H267557   3.640   1.934  11.359 -3.1436 -1.3901  3.5820
15356TIP3   OH267558   2.237   5.483  16.680 -0.0678  0.0736  0.0853
15356TIP3    H167559   2.321   5.483  16.633  0.2369 -0.0830  0.6188
15356TIP3    H267560   2.255   5.435  16.761 -0.3268  1.1730  0.8124
15357TIP3   OH267561   3.334   5.137  13.843  0.5458  0.1182 -0.6002
15357TIP3    H167562   3.238   5.129  13.843  0.5207 -0.1307  1.2352
15357TIP3    H267563   3.351   5.226  13.813 -0.4198  1.0236  1.3342
15358TIP3   OH267564   4.719   5.761  14.205 -0.1275  0.0554  0.1999
15358TIP3    H167565   4.745   5.705  14.133 -0.5256  1.9436 -1.5059
15358TIP3    H267566   4.756   5.847  14.183 -3.6258  1.6973  0.0816
15359TIP3   OH267567   2.171   2.166   6.018  0.3607 -0.1575 -0.0086
15359TIP3    H167568   2.263   2.150   6.039  1.0324  2.3579 -0.6761
15359TIP3    H267569   2.151   2.248   6.062 -1.6590 -0.7551  0.2671
15360TIP3   OH267570   6.080   0.869  16.844  0.1770  0.7058 -0.4657
15360TIP3    H167571   6.163   0.851  16.889 -0.7625  0.0810  1.0960
15360TIP3    H267572   6.048   0.950  16.883 -0.4245  0.4124 -0.3343
15361TIP3   OH267573   1.819   0.343   5.200 -0.1152  0.0632  0.3290
15361TIP3    H167574   1.869   0.269   5.235  1.1788  0.5805 -0.3414
15361TIP3    H267575   1.858   0.420   5.241  1.0730  0.6401 -1.7474
15362TIP3   OH267576   1.202   1.911   5.658  0.2737 -0.1932  0.1525
15362TIP3    H167577   1.124   1.944   5.614  0.5181 -0.6572 -0.6514
15362TIP3    H267578   1.275   1.953   5.612  0.6019 -1.9506 -1.0331
15363TIP3   OH267579   5.449   2.801   5.043  0.4026 -0.5548 -0.6915
15363TIP3    H167580   5.434   2.793   5.137 -0.0003 -0.1508 -0.7181
15363TIP3    H267581   5.509   2.730   5.022 -0.0552 -1.0776 -0.2539
15364TIP3   OH267582   1.349   2.907   0.702  0.5608  0.4769  0.0608
15364TIP3    H167583   1.421   2.936   0.758  0.7996 -0.8768  0.4880
15364TIP3    H267584   1.330   2.818   0.731 -2.2146  1.2540  0.8939
15365TIP3   OH267585   5.458   0.327  16.785  0.6689  0.0880  0.1267
15365TIP3    H167586   5.377   0.313  16.835  0.4636  0.2766 -0.1494
15365TIP3    H267587   5.524   0.275  16.831  0.7596  1.1829  1.3012
15366TIP3   OH267588   3.837   3.283   1.300  0.2704 -0.2613 -0.6157
15366TIP3    H167589   3.913   3.252   1.350 -0.0226  0.6595  0.4556
15366TIP3    H267590   3.764   3.232   1.333  0.1273  0.1269 -0.3262
15367TIP3   OH267591   2.270   0.182  12.565  0.1695  0.0073 -0.4019
15367TIP3    H167592   2.309   0.206  12.649 -1.6326 -0.9588  0.7808
15367TIP3    H267593   2.344   0.177  12.505  1.3581  1.9774  0.7949
15368TIP3   OH267594   1.053   4.432  16.187 -0.2643  0.3247 -0.3035
15368TIP3    H167595   0.999   4.406  16.262 -0.8655  2.7972  0.2121
15368TIP3    H267596   0.993   4.480  16.130  0.3570 -0.8963 -2.0521
15369TIP3   OH267597   4.993   1.591   4.771 -0.1667 -0.4327 -0.2488
15369TIP3    H167598   5.049   1.603   4.848 -1.7206  0.1113  0.8538
15369TIP3    H267599   5.053   1.594   4.697  1.2312  0.3553  0.8618
15370TIP3   OH267600   4.942   4.955   2.786  0.0257  0.3093 -0.8565
15370TIP3    H167601   4.907   4.866   2.778 -0.1968  0.4242 -1.1672
15370TIP3    H267602   4.910   4.986   2.871  3.7663 -1.5229  1.5091
15371TIP3   OH267603   6.361   3.248   5.545  0.1447 -0.8483  0.4972
15371TIP3    H167604   6.321   3.193   5.478 -0.7860  0.9825 -0.5406
15371TIP3    H267605   6.361   3.195   5.624 -0.2560 -2.4772 -0.5490
15372TIP3   OH267606   3.808   5.041  14.276 -0.6099  0.2760  0.1667
15372TIP3    H167607   3.718   5.031  14.246 -1.2359  1.0215  1.6780
15372TIP3    H267608   3.857   5.064  14.197 -2.2143  2.4360 -0.3037
15373TIP3   OH267609   0.940   2.172  15.747 -0.2208 -0.1804 -0.1737
15373TIP3    H167610   1.005   2.232  15.712  1.3112 -0.2236  2.3885
15373TIP3    H267611   0.955   2.090  15.699  1.7290 -0.2139  0.3932
15374TIP3   OH267612   2.762   5.565   0.760  0.5701 -0.4496  0.1169
15374TIP3    H167613   2.690   5.521   0.804 -2.1037  0.7523 -2.7014
15374TIP3    H267614   2.784   5.639   0.816 -2.4111  0.8055 -0.2447
15375TIP3   OH267615   5.369   3.822  14.593 -0.1710  0.2201  0.1049
15375TIP3    H167616   5.317   3.742  14.607 -0.7025  0.7022  0.9540
15375TIP3    H267617   5.355   3.843  14.501 -2.2154  0.8141  0.5033
15376TIP3   OH267618   4.534   6.447  14.428  0.3878 -0.0709 -0.1572
15376TIP3    H167619   4.483   6.512  14.380  1.8187  1.3407  0.1832
15376TIP3    H267620   4.559   6.383  14.362 -0.2614  0.2083 -0.6822
15377TIP3   OH267621   2.585   4.405   4.236 -0.4352  0.3154  0.1092
15377TIP3    H167622   2.582   4.381   4.328  1.1798  1.1917  0.4265
15377TIP3    H267623   2.556   4.497   4.234  1.1967  0.8700  0.0227
15378TIP3   OH267624   2.361   6.711  14.428  0.5130 -0.0095  1.3268
15378TIP3    H167625   2.379   6.667  14.511  0.4507  0.0419  1.3675
15378TIP3    H267626   2.409   6.660  14.363 -0.2291 -0.6369  1.2558
15379TIP3   OH267627   3.626   0.194  15.235  0.7579  0.2914  0.0553
15379TIP3    H167628   3.692   0.246  15.190  2.0824 -0.6883  0.7992
15379TIP3    H267629   3.641   0.211  15.328 -1.0185  1.1927  0.2173
15380TIP3   OH267630   2.340   0.823   5.320 -0.0338 -0.5337  0.2193
15380TIP3    H167631   2.302   0.860   5.400  2.9379  0.7466  1.1567
15380TIP3    H267632   2.283   0.854   5.250 -0.9870  0.8816  1.5565
15381TIP3   OH267633   1.436   0.407  10.824  0.1845  0.5059 -0.3069
15381TIP3    H167634   1.378   0.331  10.829  1.5651 -0.5731  0.0477
15381TIP3    H267635   1.406   0.454  10.746  0.9765 -1.9174 -2.2370
15382TIP3   OH267636   5.076   4.917   3.590  0.0264 -0.9648 -0.2016
15382TIP3    H167637   5.159   4.960   3.570 -1.1296  0.6228 -1.9492
15382TIP3    H267638   5.100   4.829   3.618  2.3101 -0.3341 -0.0085
15383TIP3   OH267639   6.601   0.512  15.367 -0.2450  0.0941 -0.5947
15383TIP3    H167640   6.675   0.512  15.307  0.0492  1.1609 -0.2462
15383TIP3    H267641   6.559   0.597  15.354 -1.8795 -0.8000 -1.3513
15384TIP3   OH267642   4.831   6.648  16.175 -0.2949  0.1023 -0.8844
15384TIP3    H167643   4.802   6.563  16.140 -0.4604 -0.4556  0.5150
15384TIP3    H267644   4.881   6.625  16.254  3.2210  1.0786 -2.6339
15385TIP3   OH267645   1.455   3.245   0.149 -0.3909 -0.4916 -0.2510
15385TIP3    H167646   1.497   3.165   0.119 -0.4318 -0.8011  0.5203
15385TIP3    H267647   1.450   3.300   0.070  0.1774 -1.0030 -0.6491
15386TIP3   OH267648   2.878   3.710   0.934  0.1561  0.7286  0.5811
15386TIP3    H167649   2.785   3.736   0.932  0.4685  1.8494 -0.3627
15386TIP3    H267650   2.876   3.615   0.939 -1.0475  0.7723  1.8358
15387TIP3   OH267651   5.447   0.378   2.505  0.4625  0.1987  0.0455
15387TIP3    H167652   5.540   0.385   2.482  0.1054  1.3738 -1.1226
15387TIP3    H267653   5.418   0.468   2.514 -0.4735 -0.1697  0.9091
15388TIP3   OH267654   2.031   5.219  11.885 -0.8176  0.4290 -0.3152
15388TIP3    H167655   2.087   5.239  11.960 -0.5714 -0.0633 -0.3658
15388TIP3    H267656   2.014   5.125  11.892 -0.2872  0.2539 -1.2094
15389TIP3   OH267657   6.161   1.715  15.622  0.4513 -0.9397  0.0605
15389TIP3    H167658   6.124   1.795  15.658  0.9471 -0.1064 -1.2167
15389TIP3    H267659   6.153   1.651  15.692 -0.2115  0.1475  1.0054
15390TIP3   OH267660   5.357   0.056  12.772 -0.1620 -0.0863  0.1998
15390TIP3    H167661   5.450   0.052  12.796  0.1696 -1.1353 -1.1529
15390TIP3    H267662   5.315   0.096  12.848  1.7460  3.1138 -0.2136
15391TIP3   OH267663   4.902   1.983  13.216  0.2804 -0.2947 -0.0260
15391TIP3    H167664   4.834   2.034  13.173  0.4481 -0.7560 -0.8703
15391TIP3    H267665   4.939   1.929  13.146  1.6541  0.0962  0.3608
15392TIP3   OH267666   5.289   4.589  13.746 -0.0617 -0.0519 -0.1517
15392TIP3    H167667   5.217   4.601  13.684  0.1453 -1.4626 -0.7114
15392TIP3    H267668   5.330   4.507  13.719 -2.0582 -2.7157  3.9005
15393TIP3   OH267669   0.648   2.157   3.860  0.4451 -0.7324 -0.1368
15393TIP3    H167670   0.702   2.236   3.856 -1.8476  0.9149 -0.7011
15393TIP3    H267671   0.682   2.101   3.790  0.3923  0.9784 -1.6105
15394TIP3   OH267672   1.274   6.097  15.705 -0.4800  0.5457  0.7119
15394TIP3    H167673   1.349   6.112  15.763  0.2363 -1.1668  0.2916
15394TIP3    H267674   1.218   6.035  15.752 -1.0377  0.8914  0.5178
15395TIP3   OH267675   3.390   1.677  14.246  0.2952  0.3557 -0.1526
15395TIP3    H167676   3.442   1.615  14.194  1.4040  0.5641  0.6826
15395TIP3    H267677   3.400   1.646  14.336  0.0452  1.1746  0.1591
15396TIP3   OH267678   1.770   4.341  12.454  0.1804 -0.0721  0.2262
15396TIP3    H167679   1.690   4.306  12.494 -1.3151  1.4678 -1.2032
15396TIP3    H267680   1.782   4.288  12.375 -0.7347  1.0332 -0.6983
15397TIP3   OH267681   6.259   3.945  12.155 -0.3901  0.6848 -0.6855
15397TIP3    H167682   6.318   3.968  12.227 -1.3270  1.4696 -0.1363
15397TIP3    H267683   6.287   3.858  12.127  1.5728  1.3688 -1.0296
15398TIP3   OH267684   6.544   4.069  11.578  0.1745 -0.2141 -0.2832
15398TIP3    H167685   6.620   4.023  11.614 -0.9984 -2.5853 -0.6179
15398TIP3    H267686   6.577   4.110  11.498  2.2084  3.0788  1.9908
15399TIP3   OH267687   6.043   0.046   5.935 -0.0239 -0.1544  0.9489
15399TIP3    H167688   6.024   0.040   6.028 -0.2273  1.4428  1.0339
15399TIP3    H267689   5.969   0.003   5.892 -0.9904  0.9298  1.4768
15400TIP3   OH267690   2.626   4.868  16.421  0.5456 -0.0036 -0.3649
15400TIP3    H167691   2.599   4.806  16.353 -1.0541  0.5044 -0.2516
15400TIP3    H267692   2.577   4.948  16.401 -1.1489 -0.2741  2.1407
15401TIP3   OH267693   5.261   0.020   4.058  0.2182 -0.3733  0.2316
15401TIP3    H167694   5.281   0.074   3.982 -0.6696 -0.1135  0.1676
15401TIP3    H267695   5.346   0.001   4.098  0.5270  1.5339  0.5841
15402TIP3   OH267696   2.836   0.855  17.216 -0.7536  0.2810  0.5688
15402TIP3    H167697   2.828   0.760  17.203  0.0905  0.2249  0.4231
15402TIP3    H267698   2.748   0.883  17.242 -0.6072 -0.8237  2.4218
15403TIP3   OH267699   5.476   1.428   1.686 -0.2304  0.0332 -0.4807
15403TIP3    H167700   5.568   1.454   1.680 -0.6818  2.2317  0.9393
15403TIP3    H267701   5.468   1.388   1.772 -0.6241 -0.0846 -0.5725
15404TIP3   OH267702   2.079   4.868  16.329 -0.5806  0.3259  0.1100
15404TIP3    H167703   2.001   4.894  16.378  0.8468  1.8169  1.7015
15404TIP3    H267704   2.083   4.928  16.254 -0.3622  0.9976  0.6546
15405TIP3   OH267705   3.368   1.130   5.097  0.2377  0.1789 -0.4351
15405TIP3    H167706   3.318   1.108   5.018  0.4380 -2.2927  0.0355
15405TIP3    H267707   3.307   1.111   5.169  0.9385 -0.2411  0.0588
15406TIP3   OH267708   1.067   4.957   6.120 -0.2978  0.4567  0.0922
15406TIP3    H167709   0.989   4.934   6.070 -1.6120  4.6082 -0.2177
15406TIP3    H267710   1.034   5.016   6.188  2.5374  3.0482 -0.5514
15407TIP3   OH267711   3.544   4.928   3.278 -0.1249  0.0863  0.2440
15407TIP3    H167712   3.504   4.954   3.361  0.4241 -1.4571  1.0375
15407TIP3    H267713   3.551   4.833   3.284  1.7597  0.1180 -0.7338
15408TIP3   OH267714   2.601   1.586   6.714 -0.5819 -0.2015  0.4928
15408TIP3    H167715   2.630   1.637   6.638 -0.5270 -1.2353 -0.1976
15408TIP3    H267716   2.626   1.496   6.694  0.4371 -0.3540  2.2346
15409TIP3   OH267717   2.429   1.855   1.353  0.3761  0.0911 -0.8808
15409TIP3    H167718   2.506   1.812   1.390  1.0493  0.0213 -2.3224
15409TIP3    H267719   2.463   1.936   1.315 -0.3544  0.3069 -1.0947
15410TIP3   OH267720   4.001   1.022  16.084 -0.3688 -0.0548  0.1580
15410TIP3    H167721   4.009   1.105  16.036  0.5370  0.2025  0.7302
15410TIP3    H267722   3.965   1.047  16.169  0.8696 -0.0927  0.7133
15411TIP3   OH267723   0.030   4.285   6.750 -0.6611 -0.1827  0.0652
15411TIP3    H167724  -0.009   4.316   6.668 -1.0969  0.9138  0.6655
15411TIP3    H267725   0.078   4.360   6.784 -0.9664 -0.4394  1.1066
15412TIP3   OH267726   2.855   3.468   6.335 -0.3374 -0.3580  0.2617
15412TIP3    H167727   2.851   3.400   6.402  0.1797  1.9747  2.8495
15412TIP3    H267728   2.942   3.458   6.296 -0.1653 -0.9989  0.7902
15413TIP3   OH267729   2.889   4.576  11.385  0.3324  0.4133 -0.2855
15413TIP3    H167730   2.826   4.510  11.357 -0.7833  1.1379  0.4460
15413TIP3    H267731   2.949   4.529  11.443 -0.9413  0.1950  0.8975
15414TIP3   OH267732   0.124   3.685   2.876 -0.0693  0.6183  0.2483
15414TIP3    H167733   0.163   3.615   2.928  1.3174  1.0665 -0.1397
15414TIP3    H267734   0.198   3.730   2.836 -0.8553  2.7086  0.9525
15415TIP3   OH267735   2.042   1.449   1.579  0.0711  0.1333  0.2678
15415TIP3    H167736   2.087   1.440   1.663  0.6550 -0.4447 -0.1024
15415TIP3    H267737   2.087   1.522   1.536 -0.0461  0.2474  0.3371
15416TIP3   OH267738   3.192   4.578   3.098 -0.3437  0.5288 -0.3327
15416TIP3    H167739   3.169   4.565   3.007  1.9674  0.8149 -1.0269
15416TIP3    H267740   3.183   4.492   3.138 -0.0305  0.0955 -1.1746
15417TIP3   OH267741   2.320   3.044  11.529 -0.0061  0.4481  0.2410
15417TIP3    H167742   2.338   3.138  11.531  1.2759  0.2233  0.0737
15417TIP3    H267743   2.335   3.019  11.438 -0.2520  0.0691  0.3049
15418TIP3   OH267744   1.007   6.190  14.183 -0.0512 -0.1061  0.2280
15418TIP3    H167745   1.056   6.250  14.128  0.3513 -0.0641  0.6359
15418TIP3    H267746   0.921   6.232  14.194  0.1871  0.3357  0.4159
15419TIP3   OH267747   5.468   5.201   3.375  0.5708 -0.3374  0.1789
15419TIP3    H167748   5.492   5.291   3.354 -1.3329  0.7422  2.2575
15419TIP3    H267749   5.551   5.157   3.392  1.4829  1.2573 -0.0034
15420TIP3   OH267750   3.679   3.185  14.071  0.9850  0.0193 -0.0897
15420TIP3    H167751   3.700   3.278  14.063  0.8843 -0.0948 -2.5434
15420TIP3    H267752   3.588   3.184  14.102  1.0182  0.7228  0.0473
15421TIP3   OH267753   4.973   2.598   6.608 -0.2856 -0.4490  0.3009
15421TIP3    H167754   4.999   2.655   6.680 -1.1617 -1.5563  1.5243
15421TIP3    H267755   4.906   2.540   6.645 -0.3563 -1.4180 -1.2444
15422TIP3   OH267756   0.550   6.233   1.293  0.3567  0.4008 -0.1687
15422TIP3    H167757   0.633   6.185   1.301  0.5789  0.7103 -0.5670
15422TIP3    H267758   0.483   6.170   1.319  0.7930  0.4522  1.1432
15423TIP3   OH267759   1.132   2.017   1.903  0.1721 -0.1308  0.1850
15423TIP3    H167760   1.073   2.014   1.979  0.1755  0.6689  0.2291
15423TIP3    H267761   1.218   2.037   1.940  0.1011  0.6657 -0.0578
15424TIP3   OH267762   5.042   6.470   3.359  0.4014 -0.3294 -1.0400
15424TIP3    H167763   5.051   6.393   3.416  0.6912  0.1681 -0.3917
15424TIP3    H267764   4.954   6.463   3.322 -0.4133  0.1391  0.7111
15425TIP3   OH267765   0.158   3.988  16.508  0.4007 -0.0098  0.4123
15425TIP3    H167766   0.163   3.912  16.566 -3.5705 -0.1397  0.8385
15425TIP3    H267767   0.201   3.960  16.427  0.7379 -1.9729  1.2227
15426TIP3   OH267768   3.891   3.843   4.470 -0.4451 -0.1286  0.4646
15426TIP3    H167769   3.864   3.821   4.381 -0.4772  0.5012  0.3098
15426TIP3    H267770   3.902   3.759   4.514 -0.6917 -0.4370 -0.0569
15427TIP3   OH267771   6.592   0.837  15.482  0.1495  0.8269 -0.2691
15427TIP3    H167772   6.498   0.839  15.502 -0.0145 -0.9433 -0.7154
15427TIP3    H267773   6.596   0.829  15.387  0.5892 -3.1609 -0.0565
15428TIP3   OH267774   0.760   4.831   4.340 -0.0906 -0.3244 -0.2028
15428TIP3    H167775   0.761   4.737   4.355 -3.3445 -0.8570 -2.3613
15428TIP3    H267776   0.718   4.867   4.418  0.2988 -0.7339  0.2032
15429TIP3   OH267777   5.489   1.065   0.862  0.0385  0.6205  0.2951
15429TIP3    H167778   5.443   1.137   0.818 -1.7375 -2.3807 -3.3293
15429TIP3    H267779   5.425   1.028   0.922 -0.4052 -0.1108 -0.5962
15430TIP3   OH267780   4.604   3.551   2.571 -0.5609  0.6342 -0.8064
15430TIP3    H167781   4.652   3.542   2.653  2.4928 -2.4636 -2.6597
15430TIP3    H267782   4.547   3.474   2.567 -2.6926  2.1057 -0.5549
15431TIP3   OH267783   6.226   6.016  14.302 -0.3026 -0.0989  0.8337
15431TIP3    H167784   6.191   5.989  14.217  0.8596  1.4220 -0.1997
15431TIP3    H267785   6.318   5.990  14.300  0.1310  1.3125  0.9464
15432TIP3   OH267786   2.871   4.334  13.076  0.2176 -0.0118  0.0202
15432TIP3    H167787   2.835   4.254  13.037  1.2444 -1.0545  1.1395
15432TIP3    H267788   2.795   4.391  13.087 -0.6706 -1.1255 -0.1061
15433TIP3   OH267789   2.859   3.969   3.223 -0.4282  0.4856 -0.1781
15433TIP3    H167790   2.887   4.039   3.282 -0.0062  0.3039 -0.1623
15433TIP3    H267791   2.882   3.888   3.269  0.4360  0.3431 -0.8487
15434TIP3   OH267792   2.634   1.029   5.806  0.8571 -0.0054  0.1634
15434TIP3    H167793   2.722   1.033   5.768  0.4291 -3.4926 -1.6061
15434TIP3    H267794   2.584   1.097   5.759  1.3612 -1.5301 -2.8340
15435TIP3   OH267795   6.171   1.498  14.908 -0.1159 -0.3307  0.8410
15435TIP3    H167796   6.173   1.405  14.927 -0.0818 -0.1732  1.6302
15435TIP3    H267797   6.253   1.515  14.860 -0.5945 -0.8819 -0.1970
15436TIP3   OH267798   3.537   1.142   1.320  0.3770  0.1383  0.8775
15436TIP3    H167799   3.444   1.119   1.319 -0.2446  2.4066 -0.8138
15436TIP3    H267800   3.579   1.073   1.270 -1.0403  1.0679 -1.8168
15437TIP3   OH267801   4.333   2.262  16.756 -0.2956 -0.3775  0.4501
15437TIP3    H167802   4.339   2.262  16.661  0.1254 -0.1619  0.4764
15437TIP3    H267803   4.317   2.354  16.779  1.0492 -0.1748  0.6703
15438TIP3   OH267804   1.099   6.249   6.024  0.3063  0.4578  0.0039
15438TIP3    H167805   1.134   6.335   6.046  0.4453  0.2751  0.5402
15438TIP3    H267806   1.143   6.225   5.943  0.3086  0.8660 -0.1171
15439TIP3   OH267807   4.301   3.071  12.449 -0.3817  0.1260  0.1414
15439TIP3    H167808   4.226   3.094  12.504 -0.5307 -0.1563  0.0590
15439TIP3    H267809   4.265   3.011  12.384  0.4832 -2.6881  2.0420
15440TIP3   OH267810   1.903   5.668  10.890 -0.0367  0.3033  0.0516
15440TIP3    H167811   1.920   5.616  10.969  1.6620 -1.2932 -1.2668
15440TIP3    H267812   1.837   5.731  10.917  0.4784 -0.1669  2.7482
15441TIP3   OH267813   3.700   0.567  11.119  0.2372 -0.2848 -0.1259
15441TIP3    H167814   3.627   0.523  11.164  1.3677 -0.4623  1.6462
15441TIP3    H267815   3.659   0.638  11.071 -0.9702  1.1875  2.7998
15442TIP3   OH267816   4.067   0.529   1.056  0.3042  0.3874 -0.1000
15442TIP3    H167817   4.024   0.444   1.057 -0.0536  0.5721  0.0835
15442TIP3    H267818   4.105   0.538   1.144 -1.1153  1.1569  0.4733
15443TIP3   OH267819   2.798   3.508  14.414 -0.3653  0.0169 -0.1058
15443TIP3    H167820   2.770   3.591  14.452 -0.9965 -0.7069  1.1193
15443TIP3    H267821   2.800   3.448  14.489 -0.4529 -1.1899 -1.0431
15444TIP3   OH267822   5.742   6.172  12.936 -0.2534 -0.1448 -0.0666
15444TIP3    H167823   5.707   6.115  13.004 -1.5085 -0.6105 -1.0653
15444TIP3    H267824   5.719   6.129  12.854  2.0880 -0.1009 -0.8122
15445TIP3   OH267825   2.368   0.033  17.155  0.3311  0.8821  0.4155
15445TIP3    H167826   2.377   0.005  17.064 -0.4652  1.4276  0.1570
15445TIP3    H267827   2.299  -0.023  17.191 -0.6524  1.8860  0.1452
15446TIP3   OH267828   1.261   1.166   5.572 -0.1880  0.3231 -0.5336
15446TIP3    H167829   1.268   1.151   5.478 -0.5161 -0.4393 -0.4375
15446TIP3    H267830   1.202   1.241   5.579 -1.4487 -0.5976 -0.8864
15447TIP3   OH267831   3.436   3.798   2.336  0.1745  0.0844  0.4525
15447TIP3    H167832   3.522   3.761   2.355  1.3282  0.6905 -2.8959
15447TIP3    H267833   3.378   3.722   2.326  0.7522 -0.4234  0.9370
15448TIP3   OH267834   6.516   5.196  15.685  0.2278 -0.6481  0.6800
15448TIP3    H167835   6.585   5.153  15.735 -0.2678 -1.5413  0.6043
15448TIP3    H267836   6.439   5.193  15.741 -0.3108 -1.5787 -0.0815
15449TIP3   OH267837   2.684   2.157  15.758  0.2023  0.5622 -0.3672
15449TIP3    H167838   2.673   2.220  15.687 -2.4322 -0.3157 -0.8712
15449TIP3    H267839   2.611   2.173  15.817  1.8378  0.6820  1.7684
15450TIP3   OH267840   4.228   1.477  14.066 -0.2047 -0.1430  0.0361
15450TIP3    H167841   4.199   1.448  13.980 -1.0552 -0.0462  0.2802
15450TIP3    H267842   4.147   1.491  14.115  0.2769 -1.5387  1.3073
15451TIP3   OH267843   6.209   1.988  13.309  0.5755 -0.3158 -0.3145
15451TIP3    H167844   6.194   1.919  13.244  0.9117  0.4134 -1.1996
15451TIP3    H267845   6.296   1.969  13.344  0.8568 -0.1113 -0.8775
15452TIP3   OH267846   0.019   3.589   4.644  0.0294  0.2009  0.8413
15452TIP3    H167847  -0.033   3.509   4.632  1.4393 -0.8454  1.3636
15452TIP3    H267848  -0.041   3.651   4.685 -0.5330 -1.3536  2.5192
15453TIP3   OH267849   5.977   0.106  12.027 -0.4256  0.2910 -0.1685
15453TIP3    H167850   6.070   0.099  12.050  0.2032 -0.5562 -2.6952
15453TIP3    H267851   5.976   0.156  11.946 -1.9482 -1.7499 -1.4905
15454TIP3   OH267852   0.075   6.164   4.429 -0.1678  0.1722 -0.3499
15454TIP3    H167853  -0.008   6.119   4.412  0.2375 -0.3340 -1.0350
15454TIP3    H267854   0.068   6.195   4.519 -1.0073 -0.0711 -0.3284
15455TIP3   OH267855   2.377   2.007  14.863 -0.5114 -0.1262  0.5508
15455TIP3    H167856   2.294   2.049  14.843 -0.6218  0.2822  1.7826
15455TIP3    H267857   2.401   2.041  14.950  0.8743 -0.3311  0.2692
15456TIP3   OH267858   4.014   3.232   5.089 -0.3866 -0.3402  0.3748
15456TIP3    H167859   3.964   3.241   5.007  0.6765 -0.4836 -0.3096
15456TIP3    H267860   4.048   3.320   5.105 -0.0881 -0.4488  0.3338
15457TIP3   OH267861   3.206   5.190   1.954 -0.0665 -0.2925  0.1016
15457TIP3    H167862   3.127   5.194   1.901  0.4801  1.4455 -0.6680
15457TIP3    H267863   3.241   5.103   1.940 -1.0516 -0.5670 -0.7205
15458TIP3   OH267864   4.283   3.665  16.378 -0.2248  0.6145 -0.1004
15458TIP3    H167865   4.326   3.605  16.316 -0.1857 -0.2907  0.7713
15458TIP3    H267866   4.249   3.607  16.446 -1.1834  1.5000  0.1893
15459TIP3   OH267867   1.470   1.797   5.774 -0.6473 -0.6943  0.7338
15459TIP3    H167868   1.393   1.844   5.741 -0.7941 -0.9600  0.6934
15459TIP3    H267869   1.440   1.758   5.857  0.3685  1.9084  2.4709
15460TIP3   OH267870   5.067   2.783  12.312  0.1223  0.2603  0.4128
15460TIP3    H167871   4.975   2.796  12.335  0.1960  1.5524  0.0811
15460TIP3    H267872   5.108   2.868  12.330  0.9861  0.0848 -0.6154
15461TIP3   OH267873   5.937   1.214  12.631 -0.1462 -0.6074 -0.0557
15461TIP3    H167874   5.897   1.281  12.575  1.2919  0.0927 -0.2743
15461TIP3    H267875   5.890   1.223  12.714 -2.0443 -1.4074 -0.9778
15462TIP3   OH267876   2.339   6.650   3.520 -0.4898 -0.2695 -0.6781
15462TIP3    H167877   2.414   6.655   3.579 -1.6280 -1.6708  1.0080
15462TIP3    H267878   2.306   6.739   3.514  0.6966  0.1812 -0.5968
15463TIP3   OH267879   1.406   2.079   4.314 -0.1688  0.1089  0.5753
15463TIP3    H167880   1.435   2.090   4.405  0.9611 -0.2030  0.2610
15463TIP3    H267881   1.311   2.067   4.321  0.0529 -1.2823  1.8525
15464TIP3   OH267882   6.719   5.280   4.975 -1.1785  0.6064 -0.3189
15464TIP3    H167883   6.702   5.312   5.063 -1.5069  1.5994 -0.7251
15464TIP3    H267884   6.783   5.210   4.986  0.5840  2.2620  0.5288
15465TIP3   OH267885   1.544   1.821  12.967 -0.5619 -0.1574 -0.1174
15465TIP3    H167886   1.616   1.867  12.923 -0.1421 -0.9440 -0.2723
15465TIP3    H267887   1.541   1.859  13.054 -0.0906  0.0269 -0.1777
15466TIP3   OH267888   6.579   4.656  11.522 -0.3330  0.0642  0.1763
15466TIP3    H167889   6.639   4.726  11.547  2.5540 -2.1974  0.1915
15466TIP3    H267890   6.575   4.661  11.427 -0.5433  0.5290  0.2057
15467TIP3   OH267891   0.190   4.548  13.726 -0.3887 -0.3942  0.2913
15467TIP3    H167892   0.117   4.523  13.670 -1.3903 -0.1812  1.4684
15467TIP3    H267893   0.151   4.560  13.812  1.3260 -1.9492  1.3353
15468TIP3   OH267894   0.830   5.471   4.041  0.0628  0.0137  0.5170
15468TIP3    H167895   0.923   5.449   4.036 -0.0342 -0.2687 -0.1816
15468TIP3    H267896   0.828   5.567   4.035  0.2118 -0.0648 -1.5256
15469TIP3   OH267897   5.235   0.346   5.299  0.3809 -0.1637  0.3125
15469TIP3    H167898   5.229   0.251   5.298 -0.8563 -0.1638  2.1145
15469TIP3    H267899   5.159   0.375   5.249  1.3499 -0.0920 -1.1618
15470TIP3   OH267900   1.256   2.585  11.792  0.1614  0.2198 -0.2491
15470TIP3    H167901   1.186   2.645  11.767 -1.0304 -0.8167  0.4453
15470TIP3    H267902   1.331   2.641  11.811 -0.9316  1.4998  0.4707
15471TIP3   OH267903   4.932   5.572   4.412  0.0788  0.6708 -0.2847
15471TIP3    H167904   4.929   5.549   4.505  0.8367  0.3196 -0.3382
15471TIP3    H267905   4.881   5.503   4.369 -0.9954  1.2980 -0.0602
15472TIP3   OH267906   1.180   0.828  12.221  0.5324 -0.2592 -0.2118
15472TIP3    H167907   1.118   0.820  12.294  1.1177 -0.0807  0.3153
15472TIP3    H267908   1.166   0.750  12.168 -1.3842  0.6087 -1.0802
15473TIP3   OH267909   2.550   5.143   1.660 -0.7986 -0.2125  0.1515
15473TIP3    H167910   2.485   5.160   1.728 -0.1098 -1.6538  1.2013
15473TIP3    H267911   2.616   5.212   1.673 -1.7295  0.8406 -0.4885
15474TIP3   OH267912   2.467   3.434  10.544 -0.4443 -0.2400 -1.0073
15474TIP3    H167913   2.535   3.450  10.478  0.5957 -2.3778 -0.5316
15474TIP3    H267914   2.391   3.404  10.494 -0.7455  1.1903 -1.4551
15475TIP3   OH267915   2.793   6.789  11.432 -0.3648 -0.3774  0.3301
15475TIP3    H167916   2.775   6.719  11.369  0.9928 -0.7543  0.3157
15475TIP3    H267917   2.711   6.838  11.438 -0.9782 -1.2445 -0.5749
15476TIP3   OH267918   3.282   6.003  17.092  0.6979  0.0408  0.6687
15476TIP3    H167919   3.204   6.000  17.037  0.5582  0.8698  0.7965
15476TIP3    H267920   3.310   5.912  17.100 -0.6203 -0.3492  1.1484
15477TIP3   OH267921   3.738   0.864  14.725 -0.2665 -0.2609  0.3987
15477TIP3    H167922   3.756   0.925  14.797 -1.9746 -0.0300  0.6831
15477TIP3    H267923   3.648   0.886  14.699 -0.8506 -2.5145  0.3736
15478TIP3   OH267924   1.251   2.361  16.332 -0.0498 -0.1339 -0.3648
15478TIP3    H167925   1.231   2.452  16.355 -0.9423 -1.0434  2.9542
15478TIP3    H267926   1.339   2.347  16.366  0.8569 -0.0620 -2.5455
15479TIP3   OH267927   3.156   1.307  15.450  0.0274 -0.1178  0.5441
15479TIP3    H167928   3.090   1.345  15.392  1.8016  0.6156 -1.0873
15479TIP3    H267929   3.220   1.377  15.463  1.3037 -1.2878  0.7814
15480TIP3   OH267930   5.645   4.476  13.540  0.2167 -0.0740  0.0749
15480TIP3    H167931   5.616   4.558  13.499  1.0399  1.1283  1.7279
15480TIP3    H267932   5.658   4.416  13.468  0.2597  1.4888 -1.2782
15481TIP3   OH267933   3.221   4.997  14.137 -0.5931  0.1079  0.4130
15481TIP3    H167934   3.202   5.059  14.207  0.6461  0.3904  0.5282
15481TIP3    H267935   3.152   4.931  14.144  0.2011 -0.5561  2.7076
15482TIP3   OH267936   0.174   3.565  13.711 -0.5768 -0.4483 -0.5084
15482TIP3    H167937   0.104   3.517  13.754 -0.5495 -0.1046 -0.0704
15482TIP3    H267938   0.197   3.634  13.774 -0.9770  0.4634 -1.3390
15483TIP3   OH267939   0.573   1.070  14.600 -0.0863 -0.5314 -0.9064
15483TIP3    H167940   0.581   1.102  14.510  0.3098  1.0985 -0.3171
15483TIP3    H267941   0.488   1.103  14.629 -1.1198 -2.6811 -1.2619
15484TIP3   OH267942   6.107   2.581  14.393 -0.5363  0.0947 -0.4465
15484TIP3    H167943   6.107   2.524  14.470  0.1214  0.4487 -0.1752
15484TIP3    H267944   6.049   2.654  14.417 -0.3932  0.1653 -0.3084
15485TIP3   OH267945   1.472   1.572  16.815 -0.1825 -0.0023  0.7397
15485TIP3    H167946   1.491   1.593  16.906 -0.3053  0.0718  0.7492
15485TIP3    H267947   1.457   1.657  16.773  0.7661  0.0234  0.4437
15486TIP3   OH267948   0.607   1.402   2.891 -0.5256 -0.1734 -0.0700
15486TIP3    H167949   0.602   1.467   2.822 -1.7576 -1.1502 -0.9533
15486TIP3    H267950   0.517   1.393   2.922 -0.6179 -2.3206 -0.8218
15487TIP3   OH267951   3.661   5.622   0.374  0.1783  0.0701  0.0115
15487TIP3    H167952   3.706   5.658   0.298  1.4858 -1.6899 -0.1052
15487TIP3    H267953   3.593   5.687   0.395  2.2253  2.4386 -0.3066
15488TIP3   OH267954   1.130   1.550   1.884 -0.0402  0.8152 -0.5004
15488TIP3    H167955   1.180   1.631   1.872  1.0996  0.5746  1.9735
15488TIP3    H267956   1.188   1.481   1.851 -0.2865  0.8574 -1.0210
15489TIP3   OH267957   0.453   5.254  15.095  0.4992 -0.2376 -0.0825
15489TIP3    H167958   0.538   5.263  15.051  0.9030  1.3784  0.9278
15489TIP3    H267959   0.397   5.320  15.054  0.4022  0.1979  0.7282
15490TIP3   OH267960   2.802   0.541   5.326 -0.0257  0.2469 -0.5395
15490TIP3    H167961   2.847   0.593   5.259 -0.7572 -0.3939 -1.5625
15490TIP3    H267962   2.731   0.498   5.279  1.0043 -2.3031  0.0773
15491TIP3   OH267963   1.287   5.648   2.231  0.8036 -0.5842  0.2108
15491TIP3    H167964   1.379   5.629   2.212  0.6535 -0.4023 -0.7182
15491TIP3    H267965   1.249   5.563   2.256  1.0070 -0.8227 -0.2987
15492TIP3   OH267966   3.813   5.782   0.151  0.3842 -0.1240 -0.9339
15492TIP3    H167967   3.838   5.874   0.136  0.1575  0.1578  0.3257
15492TIP3    H267968   3.886   5.732   0.117  2.2150  0.6464  1.5835
15493TIP3   OH267969   6.102   3.766   1.528  0.1178  0.7235  0.5981
15493TIP3    H167970   6.159   3.740   1.600 -0.1224  0.5581  0.7301
15493TIP3    H267971   6.047   3.689   1.512  1.6947 -0.0936 -1.2906
15494TIP3   OH267972   3.829   0.326   4.937 -0.3453  0.6087  0.3008
15494TIP3    H167973   3.833   0.353   4.845  0.1369 -1.2994 -0.2918
15494TIP3    H267974   3.910   0.276   4.951 -1.4466 -1.0232  1.0959
15495TIP3   OH267975   5.396   4.610  12.683  0.2377 -1.0811 -0.0445
15495TIP3    H167976   5.455   4.677  12.719  2.6749 -2.0460 -1.9501
15495TIP3    H267977   5.450   4.532  12.677 -1.4213 -2.1924 -1.4332
15496TIP3   OH267978   4.783   1.163   2.435  0.0337  0.0345  0.3257
15496TIP3    H167979   4.859   1.218   2.457  0.7871  0.0894 -2.1062
15496TIP3    H267980   4.791   1.147   2.341 -3.3739  0.6327 -0.2100
15497TIP3   OH267981   5.154   4.394  10.875 -0.7174 -0.3011 -0.6164
15497TIP3    H167982   5.176   4.345  10.954 -0.4457 -1.3101 -1.2884
15497TIP3    H267983   5.094   4.336  10.827 -2.1270  0.9589 -0.4252
15498TIP3   OH267984   3.898   5.668  16.004  0.6168 -0.1757 -0.0024
15498TIP3    H167985   3.954   5.656  15.927  0.6392 -1.2937  0.1608
15498TIP3    H267986   3.953   5.641  16.078  0.3004  0.0075  0.3033
15499TIP3   OH267987   3.146   4.572  11.544  0.0401  0.0696  0.1682
15499TIP3    H167988   3.183   4.484  11.541  0.5999  0.2736  0.7411
15499TIP3    H267989   3.185   4.612  11.622 -2.0970  0.0060  1.3367
15500TIP3   OH267990   1.186   5.723   1.574  0.1244 -0.4834  0.1582
15500TIP3    H167991   1.164   5.631   1.590  0.7092 -0.4440  1.2670
15500TIP3    H267992   1.142   5.744   1.492 -3.4148 -0.5758  1.8504
15501TIP3   OH267993   3.652   1.011  15.142 -0.1727 -0.1441 -0.4566
15501TIP3    H167994   3.649   1.060  15.060 -0.2688  1.7440  0.6209
15501TIP3    H267995   3.569   0.965  15.147 -1.8613  2.7501  0.2948
15502TIP3   OH267996   5.833   5.124   5.708  0.6952  0.0944  0.1756
15502TIP3    H167997   5.755   5.070   5.694  0.8312 -0.0239 -0.1399
15502TIP3    H267998   5.868   5.138   5.620  1.5039 -0.5617  0.3780
15503TIP3   OH267999   4.417   1.903   2.809  0.6110 -0.0651 -0.7614
15503TIP3    H168000   4.423   1.897   2.904 -0.2930  0.2939 -0.6693
15503TIP3    H268001   4.493   1.956   2.783  0.6699  0.1332 -0.2023
15504TIP3   OH268002   5.216   1.751   5.766  0.3151 -0.0160 -0.2501
15504TIP3    H168003   5.262   1.709   5.838  0.3199  1.8727  0.9093
15504TIP3    H268004   5.179   1.831   5.804 -1.5871 -0.0804 -1.8130
15505TIP3   OH268005   1.414   2.482  10.854 -0.0638  0.7608 -0.0726
15505TIP3    H168006   1.503   2.511  10.875 -0.2346  0.3608  1.3096
15505TIP3    H268007   1.402   2.506  10.762  1.2629  1.3324 -0.1214
15506TIP3   OH268008   4.694   2.122   2.534  0.3096 -0.3248  0.3824
15506TIP3    H168009   4.652   2.160   2.458 -0.6662 -1.5193  0.2798
15506TIP3    H268010   4.647   2.039   2.548 -0.3492  0.4101  2.9911
15507TIP3   OH268011   1.636   3.732   0.173  0.5996  0.1284  0.2571
15507TIP3    H168012   1.572   3.798   0.201  1.1242  0.2313  1.2675
15507TIP3    H268013   1.713   3.749   0.227  0.7178 -1.3545  0.6045
15508TIP3   OH268014   3.059   0.287  16.830  0.3265  0.2164  0.5228
15508TIP3    H168015   3.051   0.194  16.808  1.4676  0.1113  0.5185
15508TIP3    H268016   2.970   0.313  16.855 -0.0611 -0.8042  0.2577
15509TIP3   OH268017   1.735   5.530   2.330  0.1993 -0.5607 -0.0103
15509TIP3    H168018   1.690   5.510   2.247 -0.3098  2.0888 -0.4391
15509TIP3    H268019   1.671   5.507   2.398 -0.2006 -0.7215 -0.4336
15510TIP3   OH268020   5.910   5.594  13.742 -0.2429 -0.1265 -0.1402
15510TIP3    H168021   5.815   5.600  13.756 -0.1503 -1.3121  1.2564
15510TIP3    H268022   5.919   5.541  13.663 -0.7504 -0.4152 -0.0142
15511TIP3   OH268023   3.102   6.091  15.809  1.0346 -0.2378 -0.1162
15511TIP3    H168024   3.196   6.105  15.820  1.3484 -0.2933 -2.3179
15511TIP3    H268025   3.080   6.133  15.726 -1.0009  0.1873  0.5692
15512TIP3   OH268026   6.231   5.555   1.502 -0.2384  0.3192 -0.6858
15512TIP3    H168027   6.158   5.496   1.487  0.3481 -0.9734  1.2162
15512TIP3    H268028   6.308   5.498   1.511  0.4201  1.3495  0.7562
15513TIP3   OH268029   2.702   6.688  13.367  0.0292 -0.4259  0.2731
15513TIP3    H168030   2.683   6.781  13.357 -1.3370 -0.4631  2.0046
15513TIP3    H268031   2.767   6.685  13.438 -0.1093 -0.8022  0.3855
15514TIP3   OH268032   4.209   4.108  15.954 -0.7574 -0.6426 -0.2773
15514TIP3    H168033   4.269   4.155  15.897 -1.5954 -0.2338 -0.8432
15514TIP3    H268034   4.266   4.062  16.016  0.1384 -0.4958 -0.9694
15515TIP3   OH268035   2.355   5.300  16.476  0.6017  0.7047  0.0764
15515TIP3    H168036   2.409   5.379  16.487  0.1450  1.0077  0.1933
15515TIP3    H268037   2.269   5.334  16.448  0.3375  0.2628  0.3426
15516TIP3   OH268038   1.140   4.908   5.659 -0.8335 -0.2770  0.5889
15516TIP3    H168039   1.189   4.985   5.688 -1.3655  0.6375 -0.7775
15516TIP3    H268040   1.180   4.834   5.704  3.3880  0.0646 -2.1145
15517TIP3   OH268041   0.617   2.598  11.707 -0.2688 -0.7661  0.0192
15517TIP3    H168042   0.685   2.578  11.642  0.7903 -2.1866  1.4778
15517TIP3    H268043   0.639   2.685  11.738 -0.3116 -0.3972 -0.9477
15518TIP3   OH268044   4.280   2.058  12.947  0.6896 -0.4895 -0.0024
15518TIP3    H168045   4.210   2.121  12.929  1.4733  0.1239 -1.0411
15518TIP3    H268046   4.253   1.979  12.901 -0.3597 -0.9943  1.4093
15519TIP3   OH268047   6.461   6.067   2.970 -0.2384 -0.0972  0.0817
15519TIP3    H168048   6.457   5.979   2.933 -0.3420  0.8536 -2.3688
15519TIP3    H268049   6.380   6.076   3.021 -1.1576 -0.8001 -1.2008
15520TIP3   OH268050   0.037   2.945  16.552 -0.3032  0.2517 -0.3342
15520TIP3    H168051  -0.021   2.917  16.481 -1.1287 -1.0842  0.8023
15520TIP3    H268052   0.117   2.895  16.538 -0.5817 -0.2559 -0.1778
15521TIP3   OH268053   2.012   4.351   4.279 -0.5614 -0.3256  0.2398
15521TIP3    H168054   2.094   4.360   4.328 -0.9949 -0.9175  1.0904
15521TIP3    H268055   1.977   4.266   4.305 -1.8733  0.2873  0.5611
15522TIP3   OH268056   0.767   6.517   2.193 -0.5460  0.3611  0.2569
15522TIP3    H168057   0.741   6.441   2.141 -0.1950  1.1339 -1.0965
15522TIP3    H268058   0.724   6.591   2.150  1.1343  1.2388  0.0129
15523TIP3   OH268059   2.368   0.172   5.056 -0.6881  0.1672  0.4298
15523TIP3    H168060   2.385   0.231   4.982  0.5789 -0.7203 -0.0203
15523TIP3    H268061   2.293   0.211   5.100 -1.1139  1.0493 -0.9863
15524TIP3   OH268062   6.664   5.135  15.171  0.4048 -0.1724  0.0793
15524TIP3    H168063   6.700   5.058  15.127 -0.1146 -0.2664 -0.1861
15524TIP3    H268064   6.740   5.178  15.210  0.6615 -0.9753  0.4853
15525TIP3   OH268065   0.296   6.484   0.720  0.0410  0.1961  0.1269
15525TIP3    H168066   0.272   6.420   0.653  1.0372  0.4588 -0.4956
15525TIP3    H268067   0.213   6.528   0.742 -0.4844 -0.6438 -0.1165
15526TIP3   OH268068   4.327   0.240  16.180  0.6265  0.2894 -0.6949
15526TIP3    H168069   4.363   0.310  16.234  0.7352 -0.7482  0.6162
15526TIP3    H268070   4.401   0.183  16.161  0.2312 -0.3529 -0.3495
15527TIP3   OH268071   6.075   6.187   3.801 -0.0992 -0.6696 -0.1430
15527TIP3    H168072   6.160   6.156   3.768 -0.7928 -2.2777 -0.5052
15527TIP3    H268073   6.066   6.145   3.886 -0.2125  0.1043  0.2327
15528TIP3   OH268074   0.643   2.438   3.495  0.0445 -0.2015  0.1012
15528TIP3    H168075   0.707   2.368   3.508  0.3513 -0.0452 -0.5128
15528TIP3    H268076   0.574   2.419   3.558  0.1382 -1.0459 -0.0259
15529TIP3   OH268077   1.104   5.387   3.615 -0.4275 -0.6524  0.3608
15529TIP3    H168078   1.148   5.327   3.555 -1.0298  0.2218 -0.9889
15529TIP3    H268079   1.161   5.464   3.619 -0.6412 -0.4990  0.4954
15530TIP3   OH268080   2.564   1.891   4.695  0.2760 -1.0569 -0.3752
15530TIP3    H168081   2.472   1.866   4.685 -0.4692  0.6177  1.6019
15530TIP3    H268082   2.588   1.860   4.782  1.1608 -0.2424 -0.3126
15531TIP3   OH268083   3.405   6.359  15.498 -0.1331 -0.4879  0.6534
15531TIP3    H168084   3.332   6.297  15.504  0.6449 -1.3446  1.5949
15531TIP3    H268085   3.366   6.438  15.462 -0.8268 -2.0675 -2.4264
15532TIP3   OH268086   4.950   1.709   5.814  0.0947 -0.6627  0.5364
15532TIP3    H168087   4.874   1.742   5.862 -0.3398 -0.0491 -0.5317
15532TIP3    H268088   5.025   1.747   5.859 -0.2947 -0.2655  0.8618
15533TIP3   OH268089   0.721   3.573  12.436 -0.0517  0.1311 -0.4789
15533TIP3    H168090   0.647   3.597  12.491 -0.4491 -1.0794 -0.4461
15533TIP3    H268091   0.724   3.641  12.369  0.3824  1.5805  0.9507
15534TIP3   OH268092   1.412   3.881   0.626  0.1433  0.3053  0.0327
15534TIP3    H168093   1.347   3.857   0.692  0.7189  0.6767  0.7531
15534TIP3    H268094   1.473   3.807   0.623  0.3820  0.4898  0.2674
15535TIP3   OH268095   4.913   3.866   0.831 -0.6587  0.2165  0.0384
15535TIP3    H168096   4.827   3.835   0.802 -1.4347  1.2805  1.0941
15535TIP3    H268097   4.961   3.882   0.750 -1.2656 -0.8536 -0.5646
15536TIP3   OH268098   3.305   5.787   1.792 -0.7081  0.0046  0.1415
15536TIP3    H168099   3.285   5.880   1.799 -0.1803  0.0434  1.2550
15536TIP3    H268100   3.400   5.782   1.782 -0.8334 -0.3735 -0.9703
15537TIP3   OH268101   6.430   1.605  15.135  0.2231 -0.1165  0.4970
15537TIP3    H168102   6.417   1.699  15.148 -0.1821 -0.1955  0.7068
15537TIP3    H268103   6.379   1.564  15.206  1.7343 -0.4643  1.4187
15538TIP3   OH268104   4.996   2.055   5.384  0.5312 -0.3342  0.3088
15538TIP3    H168105   5.039   2.077   5.467  0.3731  0.7711  0.1222
15538TIP3    H268106   4.905   2.038   5.407 -0.2507  2.8063  0.1062
15539TIP3   OH268107   1.921   0.169   2.909  0.2678 -0.0812 -0.2289
15539TIP3    H168108   1.914   0.142   3.000  0.3788  0.7113  0.0202
15539TIP3    H268109   1.934   0.087   2.861 -1.1645 -0.6444  0.3014
15540TIP3   OH268110   1.076   1.109  15.599 -0.1872 -0.3287  0.0615
15540TIP3    H168111   1.155   1.058  15.581  0.5549  0.5838  0.6770
15540TIP3    H268112   1.083   1.185  15.541 -0.4501 -0.0786  0.3601
15541TIP3   OH268113   0.493   5.609  14.863  0.1665  0.4918  0.8821
15541TIP3    H168114   0.539   5.621  14.946 -1.2306 -0.3470  1.8173
15541TIP3    H268115   0.513   5.520  14.836  0.8309  0.8440  0.1488
15542TIP3   OH268116   0.483   1.554   0.852 -0.4406  0.3416  0.5162
15542TIP3    H168117   0.545   1.602   0.796 -0.1504 -0.5785  0.0275
15542TIP3    H268118   0.400   1.599   0.840 -0.9832 -1.2407 -2.6076
15543TIP3   OH268119   2.016   3.911   5.298 -0.6314 -0.2287 -0.3790
15543TIP3    H168120   2.051   3.841   5.353  1.1224  0.2224 -0.8305
15543TIP3    H268121   2.080   3.919   5.227 -1.4037  1.0549 -0.9689
15544TIP3   OH268122   1.228   1.371  14.910  0.2919  0.1607  0.0617
15544TIP3    H168123   1.293   1.440  14.911  1.4058 -0.8682  0.4987
15544TIP3    H268124   1.249   1.316  14.985 -1.9547  0.5754  1.0799
15545TIP3   OH268125   1.095   1.283   5.861 -0.2908 -0.6354 -0.2580
15545TIP3    H168126   1.160   1.353   5.866  1.3050 -2.1026  0.4920
15545TIP3    H268127   1.023   1.312   5.917  2.1059 -1.3372  3.4481
15546TIP3   OH268128   1.450   0.758   2.767  0.7644  0.0857  0.6229
15546TIP3    H168129   1.426   0.735   2.856  0.0674 -0.3814  0.3257
15546TIP3    H268130   1.475   0.850   2.771  1.2844 -0.0860  1.3996
15547TIP3   OH268131   4.894   3.581   2.227  0.4587 -0.4921  0.0044
15547TIP3    H168132   4.952   3.632   2.172  0.3786 -0.2697  0.1241
15547TIP3    H268133   4.946   3.505   2.254  0.6200 -0.4060 -0.0662
15548TIP3   OH268134   5.386   5.495  16.232 -0.8235  0.1077  0.2892
15548TIP3    H168135   5.297   5.520  16.257 -0.7622 -0.0459  0.6595
15548TIP3    H268136   5.443   5.554  16.281 -0.7341  0.7614 -0.5671
15549TIP3   OH268137   1.786   5.834   0.969  0.3226  0.5130 -0.0068
15549TIP3    H168138   1.735   5.854   0.891 -1.1811 -0.4047  0.7003
15549TIP3    H268139   1.841   5.912   0.982 -0.6695  1.4165 -0.9803
15550TIP3   OH268140   1.418   5.171  13.374  1.0942 -0.2805 -0.2078
15550TIP3    H168141   1.456   5.213  13.296  0.8178 -0.6013 -0.5166
15550TIP3    H268142   1.325   5.189  13.367  0.9608 -1.0184 -0.3895
15551TIP3   OH268143   0.092   4.050   2.350 -0.2377  0.0800 -0.1446
15551TIP3    H168144   0.102   4.103   2.271  0.1218 -0.4910 -0.4890
15551TIP3    H268145   0.021   3.990   2.330 -0.3236  0.1085  0.0676
15552TIP3   OH268146   4.665   6.524  15.587  0.3749 -0.3527  0.2801
15552TIP3    H168147   4.628   6.587  15.649  1.6869 -0.7939  1.5568
15552TIP3    H268148   4.599   6.456  15.578  0.0070 -0.0809  0.8996
15553TIP3   OH268149   0.845   0.529   3.953  0.2537  0.4647 -0.1932
15553TIP3    H168150   0.803   0.521   3.868  0.3789  1.3359 -0.3453
15553TIP3    H268151   0.776   0.559   4.012 -0.2112 -1.5346  0.3723
15554TIP3   OH268152   4.866   2.299  15.783 -0.7847  0.8307  0.0555
15554TIP3    H168153   4.772   2.297  15.765 -1.0610  1.7950  1.2610
15554TIP3    H268154   4.882   2.388  15.815  0.1543  0.0454  1.8744
15555TIP3   OH268155   6.305   2.894  10.754 -0.2685 -0.2732  0.0497
15555TIP3    H168156   6.381   2.952  10.753  2.0051 -3.0228  1.0132
15555TIP3    H268157   6.287   2.877  10.661  1.2895 -0.7178 -0.2059
15556TIP3   OH268158   5.828   6.300   4.091 -0.2068 -0.6073  0.6481
15556TIP3    H168159   5.868   6.380   4.128 -2.9248  1.2260 -0.1286
15556TIP3    H268160   5.903   6.243   4.073  2.3854  3.1887 -2.2659
15557TIP3   OH268161   2.579   3.189  11.025  0.1700 -0.5423  0.8007
15557TIP3    H168162   2.568   3.099  10.993  0.6954 -1.0075  1.8527
15557TIP3    H268163   2.523   3.242  10.969  0.1446 -1.4743 -0.0879
15558TIP3   OH268164   5.805   2.049  12.078  0.2823 -0.5199  0.7849
15558TIP3    H168165   5.788   1.958  12.103  2.2532 -0.9131  0.7849
15558TIP3    H268166   5.879   2.045  12.018 -1.4401  0.8611 -1.5906
15559TIP3   OH268167   3.490   1.409   1.447  0.3914  0.1313 -0.3179
15559TIP3    H168168   3.582   1.425   1.464  0.7163 -2.4650  0.8582
15559TIP3    H268169   3.482   1.313   1.444 -2.4435  0.2067  0.9866
15560TIP3   OH268170   3.125   1.791  17.240 -0.3037 -0.3330 -0.1798
15560TIP3    H168171   3.142   1.850  17.313 -1.8772 -0.6882  0.5169
15560TIP3    H268172   3.211   1.759  17.214  0.3691  0.5953  0.8473
15561TIP3   OH268173   0.410   4.151  16.046 -0.0558  0.8533 -0.5237
15561TIP3    H168174   0.437   4.238  16.016  0.7682  1.1352  0.9382
15561TIP3    H268175   0.379   4.107  15.967  1.6812  1.6645 -1.7206
15562TIP3   OH268176   1.364   2.600   4.663  0.4982  0.8122  0.0707
15562TIP3    H168177   1.399   2.512   4.677 -4.0962 -1.0663  1.9012
15562TIP3    H268178   1.356   2.637   4.750  0.8777  2.4629 -0.5536
15563TIP3   OH268179   6.301   2.608  12.012  0.1183  0.4144  0.2254
15563TIP3    H168180   6.349   2.623  11.931 -1.3154  0.4260 -0.6525
15563TIP3    H268181   6.308   2.513  12.027  2.3453  0.6878  1.4042
15564TIP3   OH268182   2.568   0.905   4.937 -0.4001 -0.3496 -0.1267
15564TIP3    H168183   2.637   0.966   4.910 -0.0765 -0.7265 -0.1592
15564TIP3    H268184   2.567   0.838   4.869  0.2182 -1.1429  0.6244
15565TIP3   OH268185   4.157   4.008  14.679  0.3712 -0.2171 -0.4340
15565TIP3    H168186   4.090   4.047  14.736  1.2913 -2.1350  2.1551
15565TIP3    H268187   4.117   3.927  14.648  0.4053  0.1341 -1.4432
15566TIP3   OH268188   1.929   5.794  14.805 -0.6511  0.3578  0.0017
15566TIP3    H168189   1.868   5.811  14.734  1.0536 -0.4880 -1.7765
15566TIP3    H268190   1.908   5.704  14.833 -1.0596  0.5464  0.3165
15567TIP3   OH268191   6.368   0.294  12.215 -0.6962  0.2657 -0.6736
15567TIP3    H168192   6.443   0.354  12.218 -0.4239 -0.0099 -1.6930
15567TIP3    H268193   6.329   0.301  12.302 -1.2372  2.6136 -1.0557
15568TIP3   OH268194   5.197   5.308  13.304  0.7646 -0.0441  0.3513
15568TIP3    H168195   5.266   5.265  13.354  0.4603 -0.5927  0.3081
15568TIP3    H268196   5.119   5.255  13.319  0.5814 -0.0135 -0.4160
15569TIP3   OH268197   2.948   4.222  17.154  0.1165  0.0989  0.4811
15569TIP3    H168198   3.033   4.204  17.114  0.4183 -2.1002  1.9206
15569TIP3    H268199   2.966   4.290  17.219  0.5451  0.4055  0.0484
15570TIP3   OH268200   1.651   5.415  12.607 -0.2627  0.2381 -0.1967
15570TIP3    H168201   1.664   5.338  12.551 -0.2788  0.1424 -0.0671
15570TIP3    H268202   1.644   5.380  12.695 -2.9204  0.0909 -0.3695
15571TIP3   OH268203   4.770   0.307   2.197 -0.6234  0.0591 -0.0373
15571TIP3    H168204   4.761   0.395   2.235 -0.5028  0.0684 -0.0297
15571TIP3    H268205   4.749   0.319   2.105  0.4962  0.3161 -0.2752
15572TIP3   OH268206   1.782   6.200   6.187 -0.2681 -0.0982 -0.2463
15572TIP3    H168207   1.872   6.233   6.178 -1.1153  2.2920 -0.7704
15572TIP3    H268208   1.740   6.222   6.104 -1.1689 -1.8808 -0.3058
15573TIP3   OH268209   5.583   5.377  12.302  0.8288  0.2595  0.7385
15573TIP3    H168210   5.540   5.455  12.267  0.1119 -0.2915  0.3584
15573TIP3    H268211   5.666   5.408  12.337  1.3290  0.9423 -0.9696
15574TIP3   OH268212   2.979   2.218   0.491  0.1756 -0.1673 -0.2444
15574TIP3    H168213   2.982   2.311   0.471  1.5521 -0.3133 -0.7871
15574TIP3    H268214   2.933   2.179   0.417 -2.6567  0.3105  1.1035
15575TIP3   OH268215   0.225   3.290  14.791  0.1522 -0.1828  0.2686
15575TIP3    H168216   0.319   3.283  14.775  0.8991  1.5204  3.2068
15575TIP3    H268217   0.199   3.369  14.744  0.5492  0.2112  0.6966
15576TIP3   OH268218   4.426   5.967   1.851 -0.5635 -0.3107 -0.1636
15576TIP3    H168219   4.439   5.872   1.847 -1.3246 -0.3955 -1.6872
15576TIP3    H268220   4.480   5.997   1.924 -0.2145 -1.8986  0.2537
15577TIP3   OH268221   0.621   0.368   0.223 -0.0449  0.3990  0.6426
15577TIP3    H168222   0.539   0.418   0.219 -0.5936 -0.3240  2.0098
15577TIP3    H268223   0.594   0.281   0.254  1.1201 -0.1692  0.1183
15578TIP3   OH268224   0.578   0.573  14.469  0.6211  0.6302  0.8139
15578TIP3    H168225   0.565   0.657  14.512  1.0460  0.7659  0.6810
15578TIP3    H268226   0.530   0.510  14.524  0.9818  0.8317  1.3675
15579TIP3   OH268227   0.917   3.472  15.950  0.0607  0.2698  0.5466
15579TIP3    H168228   0.871   3.537  15.897  0.2345 -0.1965 -0.1988
15579TIP3    H268229   0.992   3.518  15.986  0.7877  0.2361 -0.8435
15580TIP3   OH268230   1.570   2.661   2.493  0.2188  0.5122  0.0412
15580TIP3    H168231   1.564   2.744   2.446 -0.8783 -0.7159 -2.0977
15580TIP3    H268232   1.508   2.670   2.566 -1.3983  0.8907 -1.3272
15581TIP3   OH268233   3.361   5.771  15.404  0.0493 -0.1826  0.3048
15581TIP3    H168234   3.333   5.769  15.312  2.0940 -0.3170 -0.3677
15581TIP3    H268235   3.334   5.686  15.439 -1.9086  0.3663  0.2421
15582TIP3   OH268236   0.326   1.363   2.229 -0.5753  0.0617  0.4230
15582TIP3    H168237   0.286   1.287   2.187 -0.7973 -0.4425  1.5079
15582TIP3    H268238   0.403   1.383   2.174  0.3918 -1.9230  0.9629
15583TIP3   OH268239   0.458   2.126  13.043 -0.4073 -0.3404 -0.1110
15583TIP3    H168240   0.435   2.044  13.000 -2.6151  1.0769 -1.8466
15583TIP3    H268241   0.513   2.172  12.980  0.5524 -0.3079  0.7192
15584TIP3   OH268242   3.945   1.170   5.842  0.2015 -0.2582  0.1352
15584TIP3    H168243   3.958   1.076   5.829 -0.5861 -0.5001  0.9463
15584TIP3    H268244   3.856   1.176   5.878 -1.4488  1.1163 -3.7004
15585TIP3   OH268245   1.282   4.292  13.583 -0.1743 -0.1017  0.5140
15585TIP3    H168246   1.236   4.251  13.509 -2.2189  0.0326  1.6240
15585TIP3    H268247   1.293   4.383  13.556  0.8362 -0.4574 -0.3674
15586TIP3   OH268248   1.067   4.922  14.533  0.3666 -0.3814  0.2641
15586TIP3    H168249   1.100   4.998  14.581 -0.7414  0.8786 -0.8594
15586TIP3    H268250   1.035   4.958  14.451 -2.0226 -1.7305  0.4874
15587TIP3   OH268251   2.842   3.581   5.034 -0.3263 -0.2924  0.5351
15587TIP3    H168252   2.884   3.667   5.039  1.9421 -1.2425 -0.7375
15587TIP3    H268253   2.883   3.531   5.104  0.2852 -1.0721 -0.3606
15588TIP3   OH268254   5.623   2.240  11.528  0.4211  0.6778  0.1679
15588TIP3    H168255   5.569   2.235  11.607  0.6330  0.5966  0.3087
15588TIP3    H268256   5.603   2.326  11.491 -1.2501 -0.0949 -0.8265
15589TIP3   OH268257   4.155   1.137  13.341 -0.3058 -0.0150 -0.0569
15589TIP3    H168258   4.133   1.077  13.412 -1.5125 -0.1440 -0.5150
15589TIP3    H268259   4.081   1.131  13.280 -1.2724  3.1254  0.6430
15590TIP3   OH268260   3.019   0.548   0.709  0.0514 -0.1269  0.3175
15590TIP3    H168261   3.100   0.594   0.730  0.7910 -0.9531 -0.6253
15590TIP3    H268262   3.023   0.467   0.759 -0.2535 -0.1174  0.3604
15591TIP3   OH268263   1.898   2.658   1.834  0.9003 -0.3501  0.3187
15591TIP3    H168264   1.915   2.592   1.766  0.6739  3.1484 -3.5177
15591TIP3    H268265   1.803   2.661   1.841  0.9368 -1.1401  1.3521
15592TIP3   OH268266   1.768   1.875  16.088 -0.4011  0.3393 -0.4443
15592TIP3    H168267   1.738   1.785  16.075 -0.2350 -0.0084  1.3103
15592TIP3    H268268   1.859   1.874  16.060 -0.8637  0.4229 -2.0632
15593TIP3   OH268269   2.868   1.038   3.544 -0.5523  0.5267  0.3233
15593TIP3    H168270   2.910   0.956   3.518 -0.5306  0.9892 -1.2065
15593TIP3    H268271   2.797   1.011   3.601  0.4050 -0.4342  1.1100
15594TIP3   OH268272   2.065   1.206   1.387 -0.5780 -0.2889 -0.0079
15594TIP3    H168273   2.049   1.113   1.368 -0.8274 -0.3820  0.6424
15594TIP3    H268274   2.079   1.209   1.481 -0.0251  0.2631 -0.1052
15595TIP3   OH268275   2.780   2.259  12.351  0.5005 -0.4483  0.4907
15595TIP3    H168276   2.717   2.208  12.401 -0.7215  0.2785 -0.2653
15595TIP3    H268277   2.776   2.222  12.263  0.0689  0.5182  0.0934
15596TIP3   OH268278   5.386   3.517   2.967  0.1490 -0.2843  1.0345
15596TIP3    H168279   5.351   3.485   3.050  1.4110 -1.6500  1.0695
15596TIP3    H268280   5.349   3.459   2.900  1.7394 -1.3364  1.0113
15597TIP3   OH268281   1.631   6.613   4.181  0.4168  0.0803  0.2165
15597TIP3    H168282   1.724   6.629   4.160  0.5996  0.4975  1.2652
15597TIP3    H268283   1.613   6.674   4.252 -1.0530  0.9803 -0.8813
15598TIP3   OH268284   1.729   1.700   2.763  0.1597 -0.6019 -0.0968
15598TIP3    H168285   1.820   1.700   2.792  0.4341 -0.1646 -0.9256
15598TIP3    H268286   1.725   1.767   2.694 -1.3279  1.1423  1.5711
15599TIP3   OH268287   2.675   5.804   3.820  0.2322 -0.1708  0.4535
15599TIP3    H168288   2.672   5.892   3.783 -0.9224 -0.7619 -0.9368
15599TIP3    H268289   2.649   5.746   3.748 -0.1498 -1.5516  1.6452
15600TIP3   OH268290   4.944   0.443  15.238  0.5545  0.1360 -0.0508
15600TIP3    H168291   4.979   0.445  15.328  3.5201 -2.8888 -0.9137
15600TIP3    H268292   5.009   0.492  15.187 -0.0404  0.1235 -0.8237
15601TIP3   OH268293   0.950   1.639   4.179  0.5558  0.3720 -0.1436
15601TIP3    H168294   1.015   1.675   4.238 -0.7674  1.9847  0.4244
15601TIP3    H268295   0.866   1.663   4.218 -0.4860 -2.9828  0.0049
15602TIP3   OH268296   1.034   6.341  12.209 -0.5395 -0.1665  0.1284
15602TIP3    H168297   1.058   6.249  12.196  0.3639  0.1036 -0.2404
15602TIP3    H268298   1.042   6.355  12.303 -1.5546 -0.6838  0.3047
15603TIP3   OH268299   3.817   5.214   3.150  0.8728  0.1774 -0.2468
15603TIP3    H168300   3.782   5.302   3.144  1.2458  0.3164 -0.4891
15603TIP3    H268301   3.778   5.167   3.076  1.0618  0.2825 -0.4139
15604TIP3   OH268302   3.369   0.269   1.132 -0.2525 -0.1395 -0.0001
15604TIP3    H168303   3.431   0.229   1.194  1.8781  2.6604 -0.0787
15604TIP3    H268304   3.338   0.197   1.078 -0.1115 -2.2796  2.5728
15605TIP3   OH268305   4.811   0.759   2.866 -0.0903 -0.4230 -0.3089
15605TIP3    H168306   4.800   0.797   2.779 -2.1657 -0.1745  0.0268
15605TIP3    H268307   4.764   0.676   2.862  0.6550 -0.8936  0.2997
15606TIP3   OH268308   5.358   1.630  14.072 -0.5249  0.1932  0.0772
15606TIP3    H168309   5.413   1.708  14.066  0.3555 -0.3157  1.1138
15606TIP3    H268310   5.418   1.561  14.102 -1.4990 -0.6311  0.1681
15607TIP3   OH268311   2.933   3.403   3.578  0.2476 -0.0070 -0.4773
15607TIP3    H168312   2.859   3.435   3.629  0.7493  0.4252 -0.0122
15607TIP3    H268313   2.926   3.308   3.582  1.5922 -0.0896  2.4081
15608TIP3   OH268314   1.813   4.338  12.897  0.3565  0.3054 -0.0722
15608TIP3    H168315   1.792   4.306  12.809  0.0467  1.4895 -0.4482
15608TIP3    H268316   1.734   4.320  12.948 -0.3194  1.5892 -0.6106
15609TIP3   OH268317   0.241   3.449  16.864  0.1632 -0.0400  0.0128
15609TIP3    H168318   0.316   3.487  16.910  0.0999  0.4296 -0.2655
15609TIP3    H268319   0.165   3.492  16.904  0.1870  2.7723 -2.5704
15610TIP3   OH268320   5.414   4.833  13.193 -0.1979  0.5117  0.1918
15610TIP3    H168321   5.349   4.888  13.148 -1.5223  0.3926  1.8376
15610TIP3    H268322   5.394   4.744  13.164 -0.6840  0.4929  0.5699
15611TIP3   OH268323   2.419   6.620   3.208 -0.0765 -0.3013 -0.3512
15611TIP3    H168324   2.347   6.671   3.245  0.8041  0.7364  0.0062
15611TIP3    H268325   2.473   6.684   3.163  2.0251 -0.5457  1.6026
15612TIP3   OH268326   4.363   4.206  14.644  0.1580 -0.1074 -0.1875
15612TIP3    H168327   4.326   4.245  14.565  1.8977 -1.9545 -2.0383
15612TIP3    H268328   4.291   4.156  14.682  0.2136 -2.5735 -2.9899
15613TIP3   OH268329   2.278   2.812  12.612 -0.1358 -0.9398 -0.4882
15613TIP3    H168330   2.183   2.812  12.599 -0.1358  2.4213 -1.5566
15613TIP3    H268331   2.290   2.823  12.706 -0.9767  1.1547 -0.5643
15614TIP3   OH268332   5.604   6.115  15.979 -0.2715 -0.1101 -0.4260
15614TIP3    H168333   5.641   6.093  15.894  1.0058  1.4131 -0.3178
15614TIP3    H268334   5.579   6.031  16.017  1.5964 -1.0887 -1.2253
15615TIP3   OH268335   4.590   4.054   3.583  0.0280  0.5225  0.3652
15615TIP3    H168336   4.530   4.024   3.651  0.2283  1.5682  1.0311
15615TIP3    H268337   4.588   3.985   3.517 -0.5106 -0.3085  1.2225
15616TIP3   OH268338   1.347   5.720  11.383 -0.1829  0.3398  0.2449
15616TIP3    H168339   1.258   5.748  11.363  0.0624  0.1715 -1.1568
15616TIP3    H268340   1.337   5.662  11.458 -1.3130  0.0250 -0.1311
15617TIP3   OH268341   0.738   6.085   4.846  0.3063 -0.7600 -0.5657
15617TIP3    H168342   0.652   6.117   4.873  0.5898  1.3469 -1.9405
15617TIP3    H268343   0.735   6.086   4.750  2.3770  0.9555 -0.6736
15618TIP3   OH268344   0.003   4.358   3.714 -0.3795  0.3389 -0.0989
15618TIP3    H168345   0.079   4.413   3.732  0.1824 -0.7025  0.8026
15618TIP3    H268346  -0.070   4.420   3.707  0.6688  1.4297 -1.8848
15619TIP3   OH268347   4.631   2.840  12.728 -0.2488  0.0322 -0.1903
15619TIP3    H168348   4.677   2.915  12.690  1.3154  0.4203  2.2813
15619TIP3    H268349   4.578   2.877  12.799  0.1050 -1.1091  0.7033
15620TIP3   OH268350   2.592   2.474   0.816 -0.6964 -0.3261 -0.2819
15620TIP3    H168351   2.603   2.433   0.729 -0.0128 -1.5895  0.3675
15620TIP3    H268352   2.519   2.426   0.856 -0.0114 -0.8035  0.4198
15621TIP3   OH268353   2.609   0.133   5.684 -0.6600  0.1283  0.1386
15621TIP3    H168354   2.633   0.153   5.594 -0.3881 -0.7874 -0.0032
15621TIP3    H268355   2.692   0.130   5.731 -0.5218 -2.1457 -0.1657
15622TIP3   OH268356   1.074   5.020  15.994  0.7034 -0.4039 -0.2453
15622TIP3    H168357   0.990   4.990  16.030 -0.3722  2.2603 -0.2680
15622TIP3    H268358   1.139   4.992  16.058 -0.1482 -2.5751 -0.2446
15623TIP3   OH268359   1.330   0.731   3.320  0.2048 -0.3279  0.3014
15623TIP3    H168360   1.266   0.799   3.301  0.1060 -0.4929  0.0392
15623TIP3    H268361   1.396   0.775   3.374 -0.4012 -0.2999  1.0254
15624TIP3   OH268362   2.866   2.504   0.932  0.1191 -0.9216  0.4384
15624TIP3    H168363   2.792   2.457   0.894  0.2675 -0.2591 -0.6934
15624TIP3    H268364   2.827   2.561   0.998 -0.2055 -1.6403  0.8816
15625TIP3   OH268365   0.509   0.201  11.272  0.0620  0.3666 -0.2088
15625TIP3    H168366   0.601   0.213  11.248  0.2829  0.1042  0.4612
15625TIP3    H268367   0.513   0.167  11.362 -0.6997  0.7360 -0.0287
15626TIP3   OH268368   5.399   5.114  17.068 -0.6684  0.7258 -0.5538
15626TIP3    H168369   5.361   5.130  16.982  0.0420  3.2919 -0.4524
15626TIP3    H268370   5.348   5.167  17.128  0.7274  1.3424  0.1345
15627TIP3   OH268371   5.184   2.369  14.738 -0.0086 -0.7582 -0.7812
15627TIP3    H168372   5.230   2.380  14.821  1.9653 -1.9199 -1.6361
15627TIP3    H268373   5.097   2.340  14.763  0.3694 -0.5508  0.8994
15628TIP3   OH268374   5.746   1.635  15.615  0.0872 -0.3745  0.0658
15628TIP3    H168375   5.730   1.670  15.703  1.6367 -0.5706  0.4478
15628TIP3    H268376   5.694   1.554  15.612 -1.3127  0.4884  0.1681
15629TIP3   OH268377   1.167   6.696   6.516  0.6722 -0.6183 -0.4792
15629TIP3    H168378   1.191   6.710   6.608  0.1159 -0.4710 -0.3515
15629TIP3    H268379   1.098   6.630   6.519 -0.1365  0.1873 -0.6860
15630TIP3   OH268380   2.421   4.065   2.753  0.2945 -0.8004 -0.0954
15630TIP3    H168381   2.435   4.136   2.690  0.4794 -3.4506 -3.3794
15630TIP3    H268382   2.347   4.093   2.806  0.8385  2.1016 -0.7189
15631TIP3   OH268383   3.873   1.391  16.548  0.0431  0.1071 -0.0560
15631TIP3    H168384   3.817   1.314  16.553 -1.7366  1.3625  0.2785
15631TIP3    H268385   3.825   1.459  16.596  1.2227  1.6194 -0.9136
15632TIP3   OH268386   0.707   4.339  12.075  0.2249 -0.1453  0.8956
15632TIP3    H168387   0.689   4.339  12.169 -0.1060  0.3790  0.8344
15632TIP3    H268388   0.637   4.392  12.037 -1.0203 -2.2525  0.0833
15633TIP3   OH268389   4.341   2.599   2.550  0.0076  0.3633  0.5887
15633TIP3    H168390   4.332   2.687   2.588  2.7137  1.0546 -0.1414
15633TIP3    H268391   4.417   2.562   2.594 -0.5394 -1.2646  0.2021
15634TIP3   OH268392   1.719   5.723   3.931 -0.2940  0.2881 -0.1895
15634TIP3    H168393   1.742   5.742   3.840  1.9989  0.3114  0.3244
15634TIP3    H268394   1.739   5.805   3.977 -0.3641 -0.0858  0.5077
15635TIP3   OH268395   2.645   5.752  11.104 -0.1372  0.3390 -0.2311
15635TIP3    H168396   2.705   5.825  11.116  0.9719 -0.4703 -0.6342
15635TIP3    H268397   2.696   5.687  11.055 -1.2311 -0.5184 -0.2757
15636TIP3   OH268398   5.471   1.859  14.301  0.3121 -0.5303  0.3621
15636TIP3    H168399   5.445   1.818  14.219  0.4321  0.8095 -0.3702
15636TIP3    H268400   5.565   1.875  14.291 -0.0158  1.3523 -0.0455
15637TIP3   OH268401   0.422   1.646  17.292  0.2382  0.2521  0.1354
15637TIP3    H168402   0.411   1.705  17.216 -1.4002  0.7189  0.6935
15637TIP3    H268403   0.504   1.600  17.274  0.7996  1.6216 -1.0620
15638TIP3   OH268404   5.436   3.527   4.942  0.3516 -0.2683  0.0759
15638TIP3    H168405   5.420   3.584   5.017 -0.7933  1.4283 -1.3725
15638TIP3    H268406   5.447   3.587   4.868  1.2216 -1.8795 -1.1702
15639TIP3   OH268407   5.481   6.437  12.337 -0.8307  0.4359 -0.7906
15639TIP3    H168408   5.559   6.477  12.301  2.0102 -3.3428  0.5033
15639TIP3    H268409   5.445   6.385  12.265 -0.9810  0.6072 -0.8403
15640TIP3   OH268410   5.754   4.602  11.585 -0.3401 -0.1220 -0.0910
15640TIP3    H168411   5.680   4.655  11.555 -0.4025 -0.4774 -0.5886
15640TIP3    H268412   5.829   4.634  11.534  0.1082  1.0167  1.2286
15641TIP3   OH268413   3.535   0.887   4.198  0.0879 -0.3051  0.2789
15641TIP3    H168414   3.443   0.862   4.201 -0.7555  2.5857  1.5297
15641TIP3    H268415   3.567   0.847   4.117 -1.7775 -2.7383  0.6174
15642TIP3   OH268416   5.859   0.970  14.128 -0.3817 -0.0739 -0.1939
15642TIP3    H168417   5.865   1.047  14.184  1.2497  0.2356 -0.7372
15642TIP3    H268418   5.937   0.919  14.150  0.5437  0.2696 -2.4527
15643TIP3   OH268419   2.954   4.567  13.727  0.0132  0.0706  0.5669
15643TIP3    H168420   2.907   4.542  13.807 -1.0002 -1.8997 -0.5871
15643TIP3    H268421   2.889   4.558  13.657  1.6733 -1.2704 -0.8984
15644TIP3   OH268422   4.581   0.698  15.812  0.5088 -0.0636  0.4044
15644TIP3    H168423   4.636   0.620  15.803 -0.7465 -0.7359 -2.4565
15644TIP3    H268424   4.504   0.668  15.859  0.6620 -0.1717  0.5887
15645TIP3   OH268425   6.189   6.561   3.586 -0.5468  0.3016 -0.0398
15645TIP3    H168426   6.157   6.521   3.667 -2.3867  1.2027 -0.2899
15645TIP3    H268427   6.196   6.488   3.525  1.3313 -0.4817  0.9986
15646TIP3   OH268428   0.989   0.648   4.163  0.4406 -0.0347  0.1379
15646TIP3    H168429   0.996   0.738   4.133 -1.7700  0.1784  0.0683
15646TIP3    H268430   0.973   0.597   4.084 -0.1201 -0.2180  0.3638
15647TIP3   OH268431   1.395   3.365   0.400  0.7477  1.1731  0.6976
15647TIP3    H168432   1.476   3.365   0.451  0.0174  0.4149  1.9127
15647TIP3    H268433   1.419   3.321   0.318  1.9196  2.3263  0.3913
15648TIP3   OH268434   2.460   2.550  17.097 -0.2789  0.1025  0.1138
15648TIP3    H168435   2.472   2.539  17.002 -1.1057 -2.0697  0.1925
15648TIP3    H268436   2.375   2.509  17.114 -1.5165  2.9705  1.4232
15649TIP3   OH268437   3.636   1.128   5.140  0.3976 -0.0859 -0.0519
15649TIP3    H168438   3.547   1.116   5.107  0.5879  0.8881 -0.9690
15649TIP3    H268439   3.638   1.081   5.223 -0.9266 -0.2499 -0.1035
15650TIP3   OH268440   0.017   6.149  14.699  0.3509  0.2195 -0.3130
15650TIP3    H168441  -0.075   6.123  14.709 -0.0172  1.3080 -0.7109
15650TIP3    H268442   0.056   6.135  14.785 -0.2030 -0.1746 -0.1184
15651TIP3   OH268443   5.326   2.809  13.563 -0.0749  0.1951  0.2926
15651TIP3    H168444   5.252   2.835  13.510  0.2296 -1.1879 -0.8479
15651TIP3    H268445   5.350   2.889  13.611 -1.8577  0.8229  0.1989
15652TIP3   OH268446   6.816   5.504  15.770 -0.3986 -0.4742 -0.1888
15652TIP3    H168447   6.822   5.426  15.825 -1.2738 -1.3875 -1.3329
15652TIP3    H268448   6.889   5.494  15.707 -1.4452 -1.2372 -1.3427
15653TIP3   OH268449   1.218   0.216   1.407  0.2719 -0.2496 -0.6906
15653TIP3    H168450   1.258   0.151   1.349 -1.1684 -1.2034 -0.6754
15653TIP3    H268451   1.207   0.293   1.352 -0.1148 -0.7960 -1.4131
15654TIP3   OH268452   3.266   2.864   3.401  0.3518 -0.7004 -0.0265
15654TIP3    H168453   3.264   2.808   3.324 -1.5864 -0.6551 -0.0619
15654TIP3    H268454   3.213   2.940   3.377  0.5337 -0.2155  1.0249
15655TIP3   OH268455   0.194   0.801  15.949  0.7267 -0.3747 -0.3871
15655TIP3    H168456   0.208   0.802  16.044  0.7040  1.9831 -0.3714
15655TIP3    H268457   0.277   0.832  15.912 -0.3050  1.9143 -0.9195
15656TIP3   OH268458   1.281   3.134   3.793  0.0396  0.3347  0.4391
15656TIP3    H168459   1.292   3.150   3.887 -0.4157 -0.3321  0.6090
15656TIP3    H268460   1.278   3.221   3.755  1.5676  0.6207  0.8767
15657TIP3   OH268461   0.340   5.977   4.969  0.0464 -0.6309 -0.0598
15657TIP3    H168462   0.406   5.963   4.901 -0.3868 -0.3825 -0.5366
15657TIP3    H268463   0.361   5.913   5.037  0.6027 -0.7444 -0.3366
15658TIP3   OH268464   0.087   2.461   1.369  0.6425  0.3536 -0.8048
15658TIP3    H168465   0.057   2.426   1.285 -2.9949 -0.8142  0.7887
15658TIP3    H268466   0.017   2.521   1.396  0.5360 -0.9986  2.3281
15659TIP3   OH268467   2.323   1.414  16.472  0.3369  0.0457  0.0577
15659TIP3    H168468   2.352   1.502  16.449  2.2863 -0.7788 -0.8283
15659TIP3    H268469   2.383   1.385  16.541 -0.3068 -0.5849  0.3714
15660TIP3   OH268470   0.298   1.197   0.829  0.4941  0.2507  0.3133
15660TIP3    H168471   0.228   1.246   0.873 -0.1378  2.2198 -2.6115
15660TIP3    H268472   0.254   1.124   0.787  0.4743  0.5027 -0.1066
15661TIP3   OH268473   3.292   4.700   0.799  0.1463 -0.9090  0.1326
15661TIP3    H168474   3.328   4.754   0.869  1.1943 -0.9880 -0.3278
15661TIP3    H268475   3.256   4.763   0.736  1.2920 -0.7332 -0.3643
15662TIP3   OH268476   1.910   3.367  13.744 -0.3165 -0.2348  0.4813
15662TIP3    H168477   1.983   3.330  13.794 -0.3453 -0.4623  0.3542
15662TIP3    H268478   1.951   3.432  13.687 -0.4077  0.8497  1.5820
15663TIP3   OH268479   2.465   0.105  15.649  0.3961  0.1915  0.0594
15663TIP3    H168480   2.401   0.168  15.617 -0.3972 -0.5499  0.1378
15663TIP3    H268481   2.515   0.079  15.570 -0.2747 -0.2017 -0.2416
15664TIP3   OH268482   1.048   5.227  14.471 -0.4539 -0.1934 -0.3557
15664TIP3    H168483   1.070   5.303  14.416  0.3107 -0.0075  0.2064
15664TIP3    H268484   1.119   5.220  14.534 -0.8552 -0.9789  0.0326
15665TIP3   OH268485   0.263   5.395  17.169  0.1788 -0.2254 -0.4278
15665TIP3    H168486   0.290   5.470  17.116 -1.2753  1.0057  0.5026
15665TIP3    H268487   0.183   5.363  17.127 -0.6793  0.4198  0.6673
15666TIP3   OH268488   3.379   0.589   4.107 -0.2783  0.1152 -0.1752
15666TIP3    H168489   3.296   0.579   4.060  0.0262  0.0284 -0.6872
15666TIP3    H268490   3.430   0.649   4.054  0.4268 -0.7030 -0.4397
15667TIP3   OH268491   4.487   6.323   1.442 -0.1065  0.4237 -0.0474
15667TIP3    H168492   4.563   6.303   1.387  0.5167  0.2762  0.8436
15667TIP3    H268493   4.464   6.239   1.482 -1.5062  0.2024 -1.2104
15668TIP3   OH268494   6.614   5.383   1.262  0.2516 -0.2675 -0.1857
15668TIP3    H168495   6.662   5.377   1.179 -0.0497 -2.5137 -0.2611
15668TIP3    H268496   6.562   5.463   1.254  0.3286 -0.3654 -2.1260
15669TIP3   OH268497   5.051   5.929  13.417 -0.7584 -0.3478  0.4277
15669TIP3    H168498   5.122   5.900  13.359 -2.1173  0.0651 -1.5635
15669TIP3    H268499   5.058   6.024  13.418 -0.1609 -0.3871  1.7840
15670TIP3   OH268500   1.533   6.363   3.600  0.3708 -0.0741  0.7200
15670TIP3    H168501   1.490   6.437   3.643 -0.0651 -0.3944  0.8432
15670TIP3    H268502   1.626   6.380   3.611  0.2706  0.2801  1.0539
15671TIP3   OH268503   1.580   6.347  15.066  0.1915  0.5617 -0.2250
15671TIP3    H168504   1.505   6.323  15.121 -0.3399 -0.1743 -1.2222
15671TIP3    H268505   1.651   6.291  15.097  0.3201  1.2127  0.6842
15672TIP3   OH268506   5.820   4.704  14.204 -0.1376  0.4658 -0.6062
15672TIP3    H168507   5.756   4.635  14.188  1.2999 -1.5810  1.7149
15672TIP3    H268508   5.890   4.686  14.141  0.1738 -0.1551 -0.0962
15673TIP3   OH268509   4.464   0.984  17.221  0.5085  0.3310 -0.0082
15673TIP3    H168510   4.541   0.952  17.176 -0.1579  0.1645 -1.0806
15673TIP3    H268511   4.457   0.930  17.299  0.5856 -0.7335 -0.7133
15674TIP3   OH268512   0.800   4.894  14.590 -0.0160  0.2712 -0.2768
15674TIP3    H168513   0.895   4.894  14.589  0.0133  1.7338  0.1705
15674TIP3    H268514   0.776   4.804  14.610  1.2566 -0.2371 -0.9527
15675TIP3   OH268515   1.718   3.993  13.136  0.1426  0.0493 -0.0844
15675TIP3    H168516   1.808   3.974  13.110  0.7214 -1.5225  2.7237
15675TIP3    H268517   1.689   3.914  13.181 -1.2896  1.8675  2.4303
15676TIP3   OH268518   2.798   2.006  14.196  0.0105 -0.0103 -0.1584
15676TIP3    H168519   2.801   1.978  14.288 -0.7509  1.1527  0.2384
15676TIP3    H268520   2.752   1.935  14.151 -0.7550 -0.0042  0.5947
15677TIP3   OH268521   5.811   3.287  13.697 -0.0340 -0.4429  0.1288
15677TIP3    H168522   5.902   3.264  13.718  0.5386  1.0973 -0.5257
15677TIP3    H268523   5.781   3.216  13.640  0.5668 -1.2234  0.7482
15678TIP3   OH268524   0.462   2.041   2.928 -0.2875  0.0046 -0.6894
15678TIP3    H168525   0.412   2.019   3.007 -0.9001 -0.6211 -1.2293
15678TIP3    H268526   0.549   2.062   2.959 -0.7901  0.7491  0.2484
15679TIP3   OH268527   2.491   3.675  16.512 -0.8017 -0.1294  0.1704
15679TIP3    H168528   2.436   3.730  16.568 -0.8076  0.4033 -0.3530
15679TIP3    H268529   2.504   3.595  16.563 -1.7734 -0.1264  0.4443
15680TIP3   OH268530   0.555   4.012  12.945 -0.0364  0.0253 -0.0805
15680TIP3    H168531   0.525   3.989  13.032 -1.1007  0.9912 -0.1676
15680TIP3    H268532   0.647   4.035  12.956 -0.7512  2.5531  1.2756
15681TIP3   OH268533   2.397   2.209  13.607 -0.2885 -0.0077  0.3831
15681TIP3    H168534   2.417   2.258  13.687  1.3307  0.7392 -0.4368
15681TIP3    H268535   2.404   2.273  13.537 -2.1630 -0.5477 -0.3418
15682TIP3   OH268536   3.161   1.743   3.870  0.0494  0.4499 -0.1858
15682TIP3    H168537   3.229   1.714   3.809  0.5769 -0.2720  0.7291
15682TIP3    H268538   3.100   1.670   3.876 -0.0851  0.5769  0.0417
15683TIP3   OH268539   4.000   2.654   6.008 -0.4197 -0.1417  0.0796
15683TIP3    H168540   3.947   2.729   6.036 -0.5816  0.0542 -0.7338
15683TIP3    H268541   3.941   2.579   6.015 -0.9318  0.1207 -1.1338
15684TIP3   OH268542   6.151   0.930  15.308 -0.4503 -0.0915  0.3162
15684TIP3    H168543   6.160   0.941  15.213  0.4004  0.6160  0.4674
15684TIP3    H268544   6.056   0.932  15.323 -0.5717  0.5876 -0.4362
15685TIP3   OH268545   0.591   5.524  16.639 -0.3537  0.3789  0.2534
15685TIP3    H168546   0.521   5.486  16.586 -0.2185  0.9652 -0.3617
15685TIP3    H268547   0.585   5.618  16.623 -0.9812  0.6909  2.1032
15686TIP3   OH268548   3.342   0.447  16.298  0.2696 -0.4255  0.4717
15686TIP3    H168549   3.293   0.529  16.298 -0.2985 -0.7398 -0.3819
15686TIP3    H268550   3.283   0.384  16.339  0.5720 -0.4788  0.8252
15687TIP3   OH268551   2.682   1.382   4.158 -0.2488 -0.2877 -0.0342
15687TIP3    H168552   2.736   1.449   4.199 -0.8115 -0.0799  0.3679
15687TIP3    H268553   2.662   1.320   4.228 -0.4426 -0.4215 -0.2064
15688TIP3   OH268554   6.697   3.729   5.535  0.5744  0.3089 -0.1763
15688TIP3    H168555   6.735   3.702   5.619  0.6940  1.7593  0.2688
15688TIP3    H268556   6.746   3.808   5.512  0.9119 -0.3628 -1.9050
15689TIP3   OH268557   4.566   4.542   2.560 -0.1277 -0.2378 -0.2526
15689TIP3    H168558   4.529   4.619   2.603  1.1561 -0.1248  0.7080
15689TIP3    H268559   4.544   4.469   2.617 -1.7236 -0.6950 -1.3816
15690TIP3   OH268560   0.678   4.222  14.154  0.0270  0.4207  0.1557
15690TIP3    H168561   0.694   4.131  14.129 -1.9987  0.7651 -2.8842
15690TIP3    H268562   0.672   4.219  14.250  3.3030 -1.9713  0.4704
15691TIP3   OH268563   2.185   3.717   4.085 -0.1081  0.2107 -0.5467
15691TIP3    H168564   2.161   3.656   4.015 -2.6960 -0.5104  0.8602
15691TIP3    H268565   2.184   3.665   4.165 -2.1087  1.9254  0.6560
15692TIP3   OH268566   4.607   3.162   1.848 -0.4424  0.1710  0.6069
15692TIP3    H168567   4.694   3.191   1.821 -0.4971  0.3429  0.6135
15692TIP3    H268568   4.586   3.089   1.789 -1.0858  1.3381 -0.6630
15693TIP3   OH268569   2.403   2.992  11.260 -0.3984 -0.5956 -0.4775
15693TIP3    H168570   2.329   2.979  11.201 -0.8814  1.6999 -0.4513
15693TIP3    H268571   2.479   2.962  11.210 -0.8943  0.6258 -2.0287
15694TIP3   OH268572   1.054   4.532  13.368  0.4324  0.5013  0.0209
15694TIP3    H168573   1.084   4.600  13.307  0.6240 -0.7799 -1.3710
15694TIP3    H268574   1.123   4.526  13.433  1.4206  0.2075 -1.0219
15695TIP3   OH268575   1.559   0.191   4.968  0.1817 -0.4057 -0.0762
15695TIP3    H168576   1.544   0.239   5.049  0.7031 -1.6827  0.7988
15695TIP3    H268577   1.640   0.228   4.932  0.5560 -0.5970  0.5650
15696TIP3   OH268578   2.394   5.999   0.372 -0.2596 -0.1888 -0.1196
15696TIP3    H168579   2.333   5.935   0.336 -1.8657 -0.0289  2.1266
15696TIP3    H268580   2.362   6.084   0.341 -0.0604 -0.2256 -0.4355
15697TIP3   OH268581   4.476   0.733   0.900 -0.0378  0.5844 -0.0757
15697TIP3    H168582   4.429   0.806   0.940 -0.5468  0.0711  0.2744
15697TIP3    H268583   4.413   0.661   0.898  0.6838 -0.0771  0.2842
15698TIP3   OH268584   0.524   6.102  14.778 -0.0750 -0.2304  0.4637
15698TIP3    H168585   0.455   6.077  14.716  0.3115  0.9407 -0.4943
15698TIP3    H268586   0.596   6.133  14.722  1.3059 -1.5713  1.4390
15699TIP3   OH268587   1.970   4.660  13.885  0.2810 -0.2637 -0.7485
15699TIP3    H168588   1.952   4.726  13.818  0.2818  1.2708  0.6848
15699TIP3    H268589   2.061   4.635  13.869  1.0198  1.7446 -0.0189
15700TIP3   OH268590   5.365   4.593   2.095  0.7380  0.3542  0.1558
15700TIP3    H168591   5.456   4.605   2.068  1.2869  0.0460  1.7158
15700TIP3    H268592   5.320   4.672   2.065  0.5053 -1.1714 -4.2417
15701TIP3   OH268593   3.402   3.359   4.998 -0.7666 -1.0213  0.4184
15701TIP3    H168594   3.441   3.277   5.028  0.8513 -0.6258 -0.4660
15701TIP3    H268595   3.477   3.415   4.977 -1.7701  1.2689  2.4063
15702TIP3   OH268596   3.509   2.379  17.018  0.0030 -0.0528  0.7517
15702TIP3    H168597   3.453   2.332  16.956  0.8820 -0.2270  0.0704
15702TIP3    H268598   3.451   2.402  17.090 -1.1040  0.3258 -0.2195
15703TIP3   OH268599   3.958   1.628   1.292  0.2874  0.1267 -0.0144
15703TIP3    H168600   3.939   1.715   1.325  0.8255  0.6331 -0.9767
15703TIP3    H268601   3.943   1.569   1.366 -1.0259  0.9254  0.3717
15704TIP3   OH268602   3.895   4.575   0.190 -0.2350 -0.5405  0.2801
15704TIP3    H168603   3.840   4.569   0.112  0.2560 -2.2568  0.0044
15704TIP3    H268604   3.833   4.574   0.263 -0.6804  0.6535 -0.0587
15705TIP3   OH268605   4.113   4.752   0.118 -1.0985  0.5069 -0.3151
15705TIP3    H168606   4.110   4.757   0.022  1.4528 -1.1182 -0.5735
15705TIP3    H268607   4.054   4.680   0.140 -1.6987  0.8876 -0.6387
15706TIP3   OH268608   5.904   5.847   1.127 -0.8822 -0.1839 -0.0816
15706TIP3    H168609   5.895   5.940   1.104 -0.3381 -0.6884 -2.6066
15706TIP3    H268610   5.821   5.825   1.169 -1.5016  1.1547 -0.5508
15707TIP3   OH268611   0.913   3.253   3.021 -0.6403  0.6058  0.1182
15707TIP3    H168612   0.952   3.275   3.106  0.9704 -0.8210 -0.1982
15707TIP3    H268613   0.835   3.202   3.043  0.2464 -0.5132  0.7750
15708TIP3   OH268614   1.585   2.209   1.652  1.0665 -0.2532 -0.0470
15708TIP3    H168615   1.515   2.271   1.672  0.3352 -1.3945  1.0218
15708TIP3    H268616   1.539   2.128   1.627  1.9560 -1.2995  1.5380
15709TIP3   OH268617   4.447   5.504  12.062  0.3325 -0.3721 -0.0887
15709TIP3    H168618   4.454   5.593  12.098  1.5571 -1.3044  2.1764
15709TIP3    H268619   4.360   5.475  12.091 -0.2153  0.1709 -1.1293
15710TIP3   OH268620   6.764   5.723  14.042  0.1034 -1.1510  0.4366
15710TIP3    H168621   6.745   5.640  14.000  0.0151 -0.3135 -1.2436
15710TIP3    H268622   6.828   5.765  13.985  0.8611 -0.4519  1.7468
15711TIP3   OH268623   0.131   2.705   3.190 -0.0161  0.0241 -0.3502
15711TIP3    H168624   0.178   2.640   3.137 -2.3470 -2.6482  0.6000
15711TIP3    H268625   0.040   2.675   3.188 -0.4696  0.5488  3.9971
15712TIP3   OH268626   3.306   2.063  15.435  0.4629  0.8111  0.3008
15712TIP3    H168627   3.275   2.112  15.511 -0.5876  0.6241  0.0131
15712TIP3    H268628   3.303   2.126  15.363 -2.5046 -0.0105 -0.4350
15713TIP3   OH268629   4.697   2.509  12.169 -0.5141 -0.3462  0.1190
15713TIP3    H168630   4.782   2.552  12.160 -0.6304 -0.2163 -0.4390
15713TIP3    H268631   4.713   2.434  12.225 -0.7550  1.6979  3.1908
15714TIP3   OH268632   1.871   0.598  16.026  0.0620 -0.0382 -0.1650
15714TIP3    H168633   1.783   0.627  16.002  0.4382  2.9156  1.5389
15714TIP3    H268634   1.882   0.627  16.117  1.7349 -3.0768  0.7383
15715TIP3   OH268635   3.111   4.571  16.668 -0.9069  0.8481  0.7861
15715TIP3    H168636   3.166   4.642  16.634 -0.0492  0.6090  1.6577
15715TIP3    H268637   3.022   4.609  16.670 -0.3373  2.2215  2.1006
15716TIP3   OH268638   6.271   0.554  13.832  0.7068 -0.3868 -0.1775
15716TIP3    H168639   6.323   0.586  13.758  1.1280 -3.2543 -1.2555
15716TIP3    H268640   6.293   0.461  13.838 -0.9610 -0.7144  2.2189
15717TIP3   OH268641   6.461   2.603   5.823 -0.0806 -0.2573  0.0757
15717TIP3    H168642   6.417   2.608   5.908  1.1264  0.6168  0.6903
15717TIP3    H268643   6.403   2.650   5.763 -0.6580 -0.3641  0.5452
15718TIP3   OH268644   1.573   1.781   2.984 -0.3819  0.3322  0.1057
15718TIP3    H168645   1.623   1.750   2.908  1.1294  0.8286  0.8611
15718TIP3    H268646   1.626   1.756   3.059 -0.2313  2.6495  0.8523
15719TIP3   OH268647   3.939   4.166  12.413 -0.1692  0.0419  0.4037
15719TIP3    H168648   3.947   4.257  12.443  2.1455  0.2141 -0.5123
15719TIP3    H268649   3.951   4.114  12.493  0.5469  0.5490  0.6428
15720TIP3   OH268650   4.192   3.828   3.068 -0.2626  0.3794  0.0660
15720TIP3    H168651   4.201   3.919   3.040 -0.7501  0.1332 -0.9139
15720TIP3    H268652   4.247   3.778   3.008  0.7268  0.1006  1.1538
15721TIP3   OH268653   2.341   0.602   0.192  0.1591  0.3725  0.0107
15721TIP3    H168654   2.335   0.634   0.282 -1.3446  1.2392 -0.3459
15721TIP3    H268655   2.262   0.636   0.150  1.0350  0.3484 -1.7560
15722TIP3   OH268656   6.319   0.461   5.361 -0.0753 -0.0499 -0.1643
15722TIP3    H168657   6.245   0.511   5.397  0.8428  0.9624  0.3806
15722TIP3    H268658   6.305   0.464   5.266 -0.7991  0.0097 -0.0659
15723TIP3   OH268659   6.755   2.330  15.888  0.2265 -0.0340  0.1014
15723TIP3    H168660   6.781   2.240  15.905 -0.5266 -0.2054  0.3708
15723TIP3    H268661   6.663   2.335  15.915 -0.3397  0.2967 -1.6989
15724TIP3   OH268662   5.430   1.557   0.725  0.4550 -0.0779 -0.3440
15724TIP3    H168663   5.354   1.529   0.674 -0.0631  1.3685 -0.4145
15724TIP3    H268664   5.501   1.500   0.696 -0.0846 -0.0032 -1.8962
15725TIP3   OH268665   3.211   5.427   6.224 -0.3714  0.5341  0.2371
15725TIP3    H168666   3.161   5.383   6.294  0.8474  0.9445  1.4186
15725TIP3    H268667   3.194   5.520   6.238  1.3890  0.7442  1.2412
15726TIP3   OH268668   0.159   5.220  11.685 -0.0876 -0.3559  0.5906
15726TIP3    H168669   0.079   5.251  11.643 -0.6193  0.6942  2.2528
15726TIP3    H268670   0.194   5.154  11.626 -1.5454  0.0157 -0.7476
15727TIP3   OH268671   6.319   1.710  15.384  0.1819 -0.2035 -0.2630
15727TIP3    H168672   6.332   1.616  15.402 -1.5785 -0.6012 -0.8402
15727TIP3    H268673   6.290   1.746  15.468  0.2773 -0.2831 -0.1941
15728TIP3   OH268674   5.778   6.654  16.032  0.6111  0.2272  0.5658
15728TIP3    H168675   5.746   6.698  15.953 -0.3614  0.3251  1.0025
15728TIP3    H268676   5.844   6.593  16.000  1.9019  1.8843 -0.0704
15729TIP3   OH268677   3.187   5.786   4.856  0.0696  0.3092  0.0215
15729TIP3    H168678   3.152   5.872   4.880  0.0625 -0.0563  1.3718
15729TIP3    H268679   3.202   5.792   4.761 -1.6280  1.1857 -0.2207
15730TIP3   OH268680   6.024   0.436   4.413 -0.6940 -0.0305  0.2755
15730TIP3    H168681   6.069   0.428   4.329 -0.0346 -3.9159  0.8044
15730TIP3    H268682   5.933   0.415   4.393 -0.5564 -0.8520  0.4729
15731TIP3   OH268683   5.604   4.622   1.951  0.1395  0.2713  0.1470
15731TIP3    H168684   5.555   4.576   1.882 -0.1218  0.1046  0.4378
15731TIP3    H268685   5.677   4.663   1.906  0.2892 -0.3087 -0.1412
15732TIP3   OH268686   6.060   3.638   0.545 -0.2058  0.6768  0.6660
15732TIP3    H168687   6.012   3.691   0.481 -2.4188 -1.4194  0.4346
15732TIP3    H268688   6.004   3.637   0.622 -0.4071 -1.4752  0.5622
15733TIP3   OH268689   5.364   5.042  15.064  0.6346 -0.2347  0.4034
15733TIP3    H168690   5.412   5.124  15.049  1.9401 -0.6838  1.8432
15733TIP3    H268691   5.363   5.033  15.159 -2.2267 -0.3442  0.4389
15734TIP3   OH268692   0.180   1.690  13.739 -0.3305 -0.1051  0.1595
15734TIP3    H168693   0.203   1.732  13.822 -1.4397 -1.3929  1.1590
15734TIP3    H268694   0.085   1.680  13.742 -0.1705 -2.2534 -0.2225
15735TIP3   OH268695   0.418   4.335   0.994 -0.1083 -0.7171 -0.3476
15735TIP3    H168696   0.436   4.241   0.994 -1.7263 -1.0414 -0.2365
15735TIP3    H268697   0.370   4.351   1.075 -1.4780 -0.1266 -1.2464
15736TIP3   OH268698   3.689   6.734   4.499  0.1749 -0.2349  0.1219
15736TIP3    H168699   3.671   6.654   4.449 -0.6123 -0.3049  0.4987
15736TIP3    H268700   3.606   6.782   4.497 -0.0649 -0.5232  1.8491
15737TIP3   OH268701   5.155   3.064  16.274  0.2873 -0.2520  0.6110
15737TIP3    H168702   5.191   2.976  16.264  2.3651  0.7805 -2.7663
15737TIP3    H268703   5.196   3.098  16.353  0.3870 -1.8863  1.2992
15738TIP3   OH268704   3.415   6.500  12.699 -0.5058 -0.0565  0.2211
15738TIP3    H168705   3.350   6.429  12.690 -0.4902 -0.2342  1.3495
15738TIP3    H268706   3.401   6.554  12.622 -1.0675 -0.8507 -0.2606
15739TIP3   OH268707   0.740   4.530  13.834 -0.4511 -0.6545 -0.2018
15739TIP3    H168708   0.798   4.503  13.905 -0.2928  0.4731  0.1170
15739TIP3    H268709   0.674   4.462  13.830  1.2375 -2.3298 -1.0205
15740TIP3   OH268710   2.589   3.883   0.305  0.1486  0.1257  0.2171
15740TIP3    H168711   2.645   3.811   0.333 -2.6359 -1.6999  1.4374
15740TIP3    H268712   2.537   3.847   0.233 -0.1184  1.4750 -0.3016
15741TIP3   OH268713   6.006   3.972   5.097  0.0029  0.0216 -0.1333
15741TIP3    H168714   6.068   4.009   5.160 -0.5928  0.3694  0.2588
15741TIP3    H268715   6.059   3.955   5.019  0.6881 -0.1343  0.3552
15742TIP3   OH268716   5.131   6.722   1.996 -0.3056 -0.0001  0.0386
15742TIP3    H168717   5.059   6.743   2.056 -0.0002 -1.4797  0.9845
15742TIP3    H268718   5.093   6.729   1.909 -0.8542  1.8926  0.3790
15743TIP3   OH268719   3.016   2.366  12.732  0.3472 -0.0704 -0.4653
15743TIP3    H168720   3.041   2.457  12.716  0.6000 -0.0537 -0.0062
15743TIP3    H268721   3.099   2.317  12.728  0.3354 -0.1511  0.1378
15744TIP3   OH268722   1.607   3.253   4.298  0.5838 -0.0688  0.2844
15744TIP3    H168723   1.633   3.337   4.259  0.4958 -1.0122 -1.9502
15744TIP3    H268724   1.667   3.189   4.261  0.2393 -1.1109  1.4459
15745TIP3   OH268725   3.472   6.185  14.817  0.0962 -0.2029  0.2740
15745TIP3    H168726   3.516   6.230  14.889 -0.7643  0.6837  0.2556
15745TIP3    H268727   3.453   6.253  14.753 -0.8324 -0.6583  0.0464
15746TIP3   OH268728   4.590   5.400  17.194 -0.1709 -0.1257 -0.0495
15746TIP3    H168729   4.651   5.339  17.153 -0.3804 -0.8472  0.6902
15746TIP3    H268730   4.504   5.370  17.167 -0.2255  1.0880 -1.3590
15747TIP3   OH268731   2.050   0.009   2.246  0.1912  0.0278 -0.4108
15747TIP3    H168732   2.108  -0.033   2.182 -0.3055  0.3514 -1.0862
15747TIP3    H268733   1.962  -0.023   2.223  0.0119  0.1367  0.1191
15748TIP3   OH268734   3.732   1.591  16.655  0.5198 -0.2690  0.2980
15748TIP3    H168735   3.669   1.599  16.584  1.3332 -0.9862 -0.5231
15748TIP3    H268736   3.798   1.658  16.637  1.0656 -0.8705 -0.0005
15749TIP3   OH268737   4.967   0.033   3.955  0.0813  0.0810 -0.0581
15749TIP3    H168738   4.931   0.118   3.928  0.3802 -0.3485 -1.9969
15749TIP3    H268739   5.051   0.054   3.995 -0.3399  0.7744  0.4836
15750TIP3   OH268740   3.687   4.113   2.530  0.4297  0.4726 -0.5051
15750TIP3    H168741   3.642   4.115   2.446  0.5493 -1.8353 -0.6817
15750TIP3    H268742   3.779   4.124   2.509  0.6065 -1.3518 -0.8746
15751TIP3   OH268743   6.704   6.395  13.639 -0.5212  0.4485  0.3128
15751TIP3    H168744   6.711   6.473  13.583 -0.8453  0.0245 -0.3252
15751TIP3    H268745   6.651   6.334  13.589  0.1249 -0.3680  0.6106
15752TIP3   OH268746   3.363   5.741  12.800  0.7642 -0.0400 -0.1775
15752TIP3    H168747   3.318   5.688  12.866 -0.6289  0.5448 -0.6250
15752TIP3    H268748   3.388   5.678  12.733 -1.2087 -0.1439 -0.8854
15753TIP3   OH268749   4.705   0.682  12.261  0.1663 -0.1110  0.7905
15753TIP3    H168750   4.660   0.621  12.203  0.7488 -0.2634  0.4966
15753TIP3    H268751   4.717   0.761  12.208 -4.9503  2.2707  2.5164
15754TIP3   OH268752   3.285   5.931   1.222  0.3124 -0.3333 -0.0993
15754TIP3    H168753   3.231   5.854   1.203 -1.2921  0.3616  1.3206
15754TIP3    H268754   3.347   5.936   1.150 -1.3185 -1.3869 -1.6558
15755TIP3   OH268755   6.372   3.339   3.914  0.2172 -0.4940  0.0864
15755TIP3    H168756   6.465   3.320   3.925 -0.0881 -2.3683 -0.3329
15755TIP3    H268757   6.366   3.381   3.828  0.7286  0.1645  0.3652
15756TIP3   OH268758   1.965   2.922  11.282 -0.1410  0.0632 -0.6432
15756TIP3    H168759   1.956   3.017  11.276  0.8591  0.1233 -1.5264
15756TIP3    H268760   1.981   2.894  11.192  2.9441 -0.5591 -0.0096
15757TIP3   OH268761   5.413   6.467  16.246 -0.0507 -0.3884  0.2010
15757TIP3    H168762   5.402   6.391  16.190 -0.9644 -0.8443  0.9708
15757TIP3    H268763   5.329   6.512  16.244 -0.3381 -0.8036  1.7362
15758TIP3   OH268764   6.108   1.649   4.981  0.4576 -0.3333  0.2284
15758TIP3    H168765   6.097   1.636   5.075 -2.8111  1.8519  0.2951
15758TIP3    H268766   6.149   1.735   4.973  0.2930 -0.3049 -0.3434
15759TIP3   OH268767   4.231   2.266   5.291  0.2544 -0.0754 -0.2521
15759TIP3    H168768   4.151   2.258   5.238 -1.5823 -0.2892  2.3412
15759TIP3    H268769   4.292   2.315   5.236 -2.7114  2.7453 -1.3466
15760TIP3   OH268770   3.849   0.084  15.613 -0.2819 -0.4034  0.3078
15760TIP3    H168771   3.819   0.016  15.674 -2.6110  0.2343 -0.0453
15760TIP3    H268772   3.916   0.132  15.662 -1.6921 -0.2574  2.2139
15761TIP3   OH268773   3.523   4.281  17.073  0.0763 -0.4354  0.2223
15761TIP3    H168774   3.480   4.281  17.158 -0.0411  0.6879  0.1764
15761TIP3    H268775   3.515   4.191  17.042  0.5528 -0.9776  1.6043
15762TIP3   OH268776   1.113   3.964   3.145 -0.0645  0.4504  0.0417
15762TIP3    H168777   1.063   4.035   3.105  2.0855  1.1870 -1.5467
15762TIP3    H268778   1.196   4.004   3.170  0.3910 -1.0673  1.1113
15763TIP3   OH268779   6.769   1.554  11.550 -0.2681 -0.3677 -0.3593
15763TIP3    H168780   6.756   1.594  11.465 -0.7328 -2.2473 -1.2255
15763TIP3    H268781   6.693   1.580  11.602 -0.8258 -0.5628 -1.0760
15764TIP3   OH268782   1.572   1.346   4.950 -0.2197  0.1088  0.1762
15764TIP3    H168783   1.560   1.435   4.983  2.7549  1.1456 -1.2252
15764TIP3    H268784   1.607   1.297   5.024  1.9513  1.2043 -0.0609
15765TIP3   OH268785   5.404   5.024   5.093  0.1545  0.2450  0.3983
15765TIP3    H168786   5.490   5.059   5.115 -0.3748  0.6458  2.0330
15765TIP3    H268787   5.421   4.953   5.031  1.5915  0.7390  0.1938
15766TIP3   OH268788   6.429   0.176   4.552 -0.1443  0.7449  0.3274
15766TIP3    H168789   6.421   0.088   4.515 -0.4129  0.4717  1.0127
15766TIP3    H268790   6.339   0.199   4.577 -0.1428  1.3875 -0.2138
15767TIP3   OH268791   6.704   0.821   4.011 -0.0771  0.4143  0.2599
15767TIP3    H168792   6.797   0.834   3.994 -0.1174  0.7974  0.3376
15767TIP3    H268793   6.690   0.854   4.099 -0.3768  0.7851  0.0787
15768TIP3   OH268794   1.405   4.092   4.964  0.2386 -1.0546 -0.6308
15768TIP3    H168795   1.428   4.180   4.934  0.0021 -0.8106 -0.1038
15768TIP3    H268796   1.487   4.043   4.958  0.8603 -0.2808  0.8934
15769TIP3   OH268797   4.965   2.745   2.497  0.2696  0.2485  0.1946
15769TIP3    H168798   4.893   2.734   2.435 -0.2231  1.2099  0.5727
15769TIP3    H268799   4.970   2.839   2.512  0.3167  0.0402  1.6927
15770TIP3   OH268800   5.668   4.517  14.467 -0.1645 -0.4033  0.0328
15770TIP3    H168801   5.735   4.513  14.398  1.9422 -2.1550  1.9807
15770TIP3    H268802   5.609   4.445  14.447 -0.3728 -0.0376 -0.6827
15771TIP3   OH268803   0.278   3.078  11.485  0.2522 -0.3063 -0.4173
15771TIP3    H168804   0.233   3.113  11.562 -0.9923 -0.5533 -1.0178
15771TIP3    H268805   0.371   3.083  11.508  0.0488  1.9092  0.1261
15772TIP3   OH268806   0.923   6.799   0.147  0.1539 -0.3857 -0.2626
15772TIP3    H168807   0.991   6.753   0.198 -1.3550 -0.6596  1.6239
15772TIP3    H268808   0.892   6.868   0.205 -1.7512 -0.8008 -0.7192
15773TIP3   OH268809   1.541   6.486   5.941 -0.4156  0.3715 -0.1272
15773TIP3    H168810   1.483   6.412   5.956  0.5858 -0.3710  0.2054
15773TIP3    H268811   1.486   6.553   5.901 -1.4716 -0.3311  0.1326
15774TIP3   OH268812   4.351   0.745  16.949  0.8196 -0.0689  0.3620
15774TIP3    H168813   4.379   0.781  17.033 -0.5115  1.3336  0.2534
15774TIP3    H268814   4.275   0.690  16.970  0.0210  0.8771  0.0264
15775TIP3   OH268815   4.959   1.342   3.495  0.1309 -0.0740  0.1222
15775TIP3    H168816   4.994   1.274   3.437  0.5103  0.6459 -0.5035
15775TIP3    H268817   4.864   1.328   3.494  0.0432  0.4369 -1.3530
15776TIP3   OH268818   2.969   2.713   5.213 -0.3971  0.1278 -0.1857
15776TIP3    H168819   3.006   2.711   5.301 -2.3002  0.0888  0.6574
15776TIP3    H268820   2.975   2.623   5.183  2.0527  0.4739 -0.9377
15777TIP3   OH268821   6.541   6.475  11.260  0.2002 -0.6785  0.4315
15777TIP3    H168822   6.557   6.526  11.181  1.4141 -0.3813  0.8462
15777TIP3    H268823   6.603   6.401  11.255  2.1255  0.6617  2.2216
15778TIP3   OH268824   1.729   0.565  15.042  0.1724  0.6418  1.2939
15778TIP3    H168825   1.779   0.556  15.123 -0.0579 -0.6165  1.3175
15778TIP3    H268826   1.694   0.478  15.026  0.6422  0.7306 -0.4465
15779TIP3   OH268827   5.828   2.510  17.195  0.3564 -0.3316  0.2480
15779TIP3    H168828   5.922   2.524  17.184  0.0869  0.1003 -1.8014
15779TIP3    H268829   5.821   2.417  17.218  1.1500 -1.2277 -2.6901
15780TIP3   OH268830   1.229   3.655  15.746  0.1955  0.1506  0.7139
15780TIP3    H168831   1.273   3.726  15.699  0.2313  0.1615  0.7631
15780TIP3    H268832   1.164   3.700  15.801 -1.4508 -0.0042 -1.0092
15781TIP3   OH268833   1.060   5.069  11.519  0.4048 -0.1269  0.2107
15781TIP3    H168834   1.146   5.111  11.527 -0.4257  1.6200  0.5362
15781TIP3    H268835   1.021   5.112  11.443 -0.0656 -1.1546 -0.1373
15782TIP3   OH268836   5.188   4.153   5.672 -0.1100 -0.5017 -0.5968
15782TIP3    H168837   5.209   4.070   5.630  3.0534  0.1677 -0.5611
15782TIP3    H268838   5.213   4.219   5.607  0.1165  0.4562  0.4363
15783TIP3   OH268839   3.685   4.456  16.290 -0.7296 -0.1300  0.5923
15783TIP3    H168840   3.734   4.534  16.264 -0.5906 -0.8367 -1.4691
15783TIP3    H268841   3.748   4.384  16.281 -0.8502 -0.5204  2.4683
15784TIP3   OH268842   3.487   0.505   2.733 -0.0538  0.2287  0.1989
15784TIP3    H168843   3.545   0.572   2.769  0.7616 -1.2141  1.7459
15784TIP3    H268844   3.527   0.422   2.760 -1.3669 -0.8897 -1.0855
15785TIP3   OH268845   2.101   5.052  14.751  0.0382  0.1983 -0.5341
15785TIP3    H168846   2.035   5.016  14.810  0.9824 -2.8664 -1.1780
15785TIP3    H268847   2.123   5.137  14.788 -1.0011 -0.6545  2.2650
15786TIP3   OH268848   0.438   6.280  17.049 -0.1439 -0.4317 -0.7245
15786TIP3    H168849   0.473   6.191  17.050 -0.2983 -0.4960 -0.9418
15786TIP3    H268850   0.417   6.296  16.958  0.2765 -0.0121 -0.7502
15787TIP3   OH268851   0.299   5.841   3.042 -0.2030  0.1640 -0.8164
15787TIP3    H168852   0.321   5.923   2.998  0.7277 -0.4559 -1.5460
15787TIP3    H268853   0.241   5.796   2.981 -0.6882  0.2565 -0.4309
15788TIP3   OH268854   2.444   6.290   0.037 -0.2040 -0.8529 -0.1122
15788TIP3    H168855   2.360   6.246   0.028 -0.0537 -1.3670  0.8183
15788TIP3    H268856   2.440   6.363  -0.023 -1.7346 -0.2375  0.6872
15789TIP3   OH268857   6.606   3.109   0.278 -0.0586 -0.8345  0.0311
15789TIP3    H168858   6.682   3.064   0.314  0.4335  0.1404  0.2521
15789TIP3    H268859   6.629   3.125   0.186  1.3145  2.0112  0.7409
15790TIP3   OH268860   4.911   6.607  16.437 -0.4124 -0.2198 -0.7289
15790TIP3    H168861   4.963   6.664  16.494 -0.2303  0.0058 -1.1189
15790TIP3    H268862   4.965   6.529  16.425 -0.5785 -0.3990 -0.3545
15791TIP3   OH268863   3.197   4.402  11.830  0.6524 -0.2127 -0.3193
15791TIP3    H168864   3.217   4.320  11.785 -0.5644  0.1375 -1.5756
15791TIP3    H268865   3.108   4.424  11.802  1.0072  1.6307 -0.1539
15792TIP3   OH268866   5.653   0.663   6.717  0.4735 -0.2282  0.0578
15792TIP3    H168867   5.648   0.583   6.664  0.7419  0.0163 -0.3388
15792TIP3    H268868   5.565   0.673   6.752 -0.3844  0.8700 -2.2104
15793TIP3   OH268869   1.473   3.844  15.095  0.7131  0.1777 -0.3831
15793TIP3    H168870   1.427   3.792  15.161 -2.3615  1.2171 -1.5306
15793TIP3    H268871   1.516   3.914  15.145  0.3992 -0.3859  0.6971
15794TIP3   OH268872   2.820   2.791  14.141  0.3782 -0.4980  0.4602
15794TIP3    H168873   2.866   2.786  14.057  1.1603 -0.1630  0.8678
15794TIP3    H268874   2.779   2.877  14.141  1.1794 -0.1050  0.8249
15795TIP3   OH268875   0.385   5.049  16.273 -0.0499 -0.2053 -0.2741
15795TIP3    H168876   0.341   5.133  16.262 -1.2515 -0.8040 -0.2285
15795TIP3    H268877   0.314   4.984  16.270  0.6374 -1.0951  1.4330
15796TIP3   OH268878   4.356   6.506   3.957  0.1801 -0.4503 -0.0713
15796TIP3    H168879   4.323   6.417   3.971  0.6098 -0.5986  0.0121
15796TIP3    H268880   4.286   6.562   3.990 -0.9843 -0.7011 -1.9165
15797TIP3   OH268881   6.012   4.417  17.204  0.1454  0.0315 -0.3071
15797TIP3    H168882   6.003   4.389  17.295  1.7191 -0.6933 -0.3223
15797TIP3    H268883   6.029   4.511  17.208 -0.1209  0.0584  0.1319
15798TIP3   OH268884   0.254   0.396   2.437 -0.1415 -0.3037  0.3635
15798TIP3    H168885   0.241   0.463   2.504  0.0748  0.4817 -0.3589
15798TIP3    H268886   0.177   0.404   2.380 -0.1656 -0.7378  0.3376
15799TIP3   OH268887   4.164   5.589  15.831 -0.4471  0.2760  0.0111
15799TIP3    H168888   4.182   5.496  15.846 -2.0641  0.1445  1.4631
15799TIP3    H268889   4.128   5.592  15.743 -1.5416 -0.6832  0.3952
15800TIP3   OH268890   6.367   3.988   5.823 -0.1883 -0.6325 -0.5007
15800TIP3    H168891   6.393   3.911   5.874 -2.1767 -1.0287 -0.0026
15800TIP3    H268892   6.379   3.960   5.732  1.7003 -0.5342 -0.3267
15801TIP3   OH268893   5.342   5.446   5.455 -0.0231  0.3773  0.3502
15801TIP3    H168894   5.338   5.535   5.491  0.2474  0.1628  0.9125
15801TIP3    H268895   5.251   5.416   5.454 -0.2568  1.0555 -0.8551
15802TIP3   OH268896   4.519   1.849   3.627  0.1249  0.8945 -0.3914
15802TIP3    H168897   4.483   1.771   3.586  1.2698  0.9245 -1.5228
15802TIP3    H268898   4.468   1.860   3.708  0.2013 -1.2416 -0.0039
15803TIP3   OH268899   5.679   0.439  11.975 -0.5785  0.0550  0.6618
15803TIP3    H168900   5.595   0.473  11.944 -0.4332 -0.5649 -0.4604
15803TIP3    H268901   5.715   0.510  12.029 -1.6743  0.4449  0.9150
15804TIP3   OH268902   3.517   3.563  14.303 -0.1067  0.3658  0.0535
15804TIP3    H168903   3.432   3.521  14.291  0.3892 -0.5164 -0.4585
15804TIP3    H268904   3.518   3.632  14.236 -0.0921 -0.1500 -0.4822
15805TIP3   OH268905   2.624   3.811   1.303 -0.2400 -0.4411  0.1121
15805TIP3    H168906   2.590   3.742   1.246 -0.6599  0.1129 -0.3241
15805TIP3    H268907   2.551   3.831   1.363  0.7880 -2.3162  2.1367
15806TIP3   OH268908   3.980   2.043   1.982 -0.0615  0.1356 -0.1080
15806TIP3    H168909   3.891   2.010   1.967 -0.5502  0.9944  0.8442
15806TIP3    H268910   3.980   2.075   2.072  1.7760 -1.5725  0.5710
15807TIP3   OH268911   3.988   0.144  12.630 -0.4770  1.0293 -0.1741
15807TIP3    H168912   4.066   0.121  12.681 -0.8384 -1.0396 -0.4781
15807TIP3    H268913   4.015   0.135  12.539 -0.9329  0.7364 -0.2857
15808TIP3   OH268914   0.416   0.741  15.632  0.3103 -0.2008  0.0267
15808TIP3    H168915   0.374   0.812  15.679 -1.1920  0.9788 -2.8094
15808TIP3    H268916   0.500   0.729  15.675 -0.9761  0.6237  2.9721
15809TIP3   OH268917   0.691   2.819  13.896  0.0242  0.0148 -0.1576
15809TIP3    H168918   0.665   2.737  13.855  1.9592 -1.2245  0.9277
15809TIP3    H268919   0.768   2.847  13.846  0.6266  0.0442  0.7746
15810TIP3   OH268920   4.089   3.286  12.854  0.0778  0.1755  0.7363
15810TIP3    H168921   4.163   3.232  12.881 -0.3970 -1.0073 -0.2498
15810TIP3    H268922   4.075   3.264  12.762 -1.2065  0.7236  0.7729
15811TIP3   OH268923   4.094   5.913   2.946  0.6456 -0.1871  0.4708
15811TIP3    H168924   4.088   5.823   2.917  2.4776  0.4076 -2.1485
15811TIP3    H268925   4.013   5.954   2.917  1.0763 -0.3684 -1.0725
15812TIP3   OH268926   2.095   4.245  15.032  1.1455 -0.2633  0.2120
15812TIP3    H168927   2.129   4.156  15.024  1.3156 -0.0939 -1.3679
15812TIP3    H268928   2.027   4.251  14.965  2.2280  1.2656 -0.8286
15813TIP3   OH268929   1.150   0.580  12.074  0.3471 -0.1940 -0.1066
15813TIP3    H168930   1.206   0.530  12.014 -0.2427  0.1906 -1.0034
15813TIP3    H268931   1.079   0.612  12.019  1.3226  2.6650  0.1182
15814TIP3   OH268932   6.675   3.552  17.259 -0.3025 -0.6911  0.4373
15814TIP3    H168933   6.588   3.522  17.232 -0.4081 -1.8674  2.0016
15814TIP3    H268934   6.666   3.647  17.263 -1.4190 -0.7652  0.2462
15815TIP3   OH268935   6.242   1.770  15.968 -0.0852 -0.0965 -0.7858
15815TIP3    H168936   6.209   1.688  15.932 -4.1321  0.4965  0.9462
15815TIP3    H268937   6.261   1.750  16.060 -2.4705  1.0056  0.0508
15816TIP3   OH268938   3.806   3.946  11.489 -0.0763  0.1211 -0.1422
15816TIP3    H168939   3.785   3.882  11.556 -2.7995 -0.1799 -1.1845
15816TIP3    H268940   3.722   3.974  11.454  1.1778  1.4758 -2.3226
15817TIP3   OH268941   2.719   5.474   5.423  0.8367  0.2873 -0.1259
15817TIP3    H168942   2.640   5.470   5.478 -0.6763  1.6522 -2.0345
15817TIP3    H268943   2.698   5.417   5.349  0.2104  3.0667 -2.2423
15818TIP3   OH268944   5.067   2.533   1.674 -0.4969 -0.6623 -0.5749
15818TIP3    H168945   5.008   2.602   1.703  0.2099 -0.0749 -0.5176
15818TIP3    H268946   5.152   2.555   1.712  0.7787  0.7934 -3.8744
15819TIP3   OH268947   2.366   1.483  14.578 -0.1231 -0.1419  0.4405
15819TIP3    H168948   2.385   1.570  14.614 -0.9548  0.3934 -0.3644
15819TIP3    H268949   2.306   1.500  14.505  2.0306 -1.0959 -1.6757
15820TIP3   OH268950   1.006   0.303   7.075  0.2204  0.3203 -0.0081
15820TIP3    H168951   1.057   0.246   7.018 -0.6835 -0.1901 -0.3225
15820TIP3    H268952   0.945   0.244   7.119  0.7916  0.7282  1.3847
15821TIP3   OH268953   0.797   5.834  11.684  0.1520  0.3755 -0.2978
15821TIP3    H168954   0.722   5.889  11.704 -0.6203 -1.0499  0.9376
15821TIP3    H268955   0.776   5.793  11.600  0.4455  1.4376 -0.9043
15822TIP3   OH268956   3.068   4.928  15.536  0.0280  0.0096 -0.2373
15822TIP3    H168957   3.058   4.888  15.450 -0.2867  0.5030 -0.4320
15822TIP3    H268958   2.979   4.938  15.569  0.1127  0.3359 -0.0956
15823TIP3   OH268959   5.692   5.440  13.959  0.1276 -0.1866 -0.0809
15823TIP3    H168960   5.631   5.368  13.976  0.3058 -0.3233 -0.0042
15823TIP3    H268961   5.653   5.489  13.888  0.5781 -1.0600 -0.9615
15824TIP3   OH268962   2.395   4.191  15.360 -0.1916  0.5427  0.4257
15824TIP3    H168963   2.340   4.266  15.340  0.8507  0.7134 -2.1610
15824TIP3    H268964   2.474   4.229  15.399  0.6654  0.9809 -1.5746
15825TIP3   OH268965   2.314   1.691  13.881  0.4683  0.6907  0.1246
15825TIP3    H168966   2.327   1.708  13.788  1.7393  2.6631  0.5937
15825TIP3    H268967   2.307   1.778  13.920 -0.0937 -0.0997  1.8748
15826TIP3   OH268968   3.028   4.641   1.339 -0.4647  0.7088  0.2320
15826TIP3    H168969   3.004   4.610   1.252 -1.0393  2.0204 -0.1012
15826TIP3    H268970   3.015   4.566   1.396 -0.2041 -0.1344 -0.7868
15827TIP3   OH268971   6.000   6.357   4.727 -0.0501 -0.6836  0.1318
15827TIP3    H168972   5.998   6.262   4.742  0.7183 -0.6270  0.6564
15827TIP3    H268973   6.054   6.391   4.798  0.2984  0.0683 -0.4837
15828TIP3   OH268974   0.710   5.930  13.883  0.3153  0.7990 -0.0401
15828TIP3    H168975   0.727   5.843  13.848 -0.1282  0.3887  0.7450
15828TIP3    H268976   0.615   5.940  13.876  0.0908  0.3636  1.7786
15829TIP3   OH268977   2.866   5.359   4.149 -0.1044  0.0024 -0.0553
15829TIP3    H168978   2.835   5.437   4.196 -0.5481  0.3689 -0.9091
15829TIP3    H268979   2.898   5.393   4.065  0.0298 -0.6984 -0.2984
15830TIP3   OH268980   5.184   0.096   0.415  0.1774 -0.5394 -0.0476
15830TIP3    H168981   5.133   0.016   0.401 -1.1504  0.0067  1.3612
15830TIP3    H268982   5.228   0.111   0.331 -0.5345 -2.0438 -0.7421
15831TIP3   OH268983   2.766   1.057   0.470  0.1638 -0.1723  0.4554
15831TIP3    H168984   2.781   1.011   0.552  1.5086  0.0450  0.3569
15831TIP3    H268985   2.847   1.045   0.420  0.6013  2.2693  0.4395
15832TIP3   OH268986   0.956   5.090  17.180 -0.4114  0.2052  0.6840
15832TIP3    H168987   0.926   5.152  17.113 -1.1436  0.2153  1.0100
15832TIP3    H268988   0.982   5.013  17.130 -3.3346 -0.7901  0.4650
15833TIP3   OH268989   4.389   4.558   2.290 -0.2808  0.7486 -0.4623
15833TIP3    H168990   4.458   4.617   2.261  0.3689 -0.1042 -0.6771
15833TIP3    H268991   4.398   4.557   2.386 -0.6236  1.3739 -0.4130
15834TIP3   OH268992   2.915   1.619  14.274 -0.0080  0.3794  0.2200
15834TIP3    H168993   2.915   1.655  14.186  0.2953  1.4273  0.6416
15834TIP3    H268994   2.978   1.547  14.271 -1.1814 -0.6529 -0.8280
15835TIP3   OH268995   0.942   6.592   4.214  0.1208 -0.3445 -0.1354
15835TIP3    H168996   0.950   6.601   4.309 -1.4726  0.9361 -0.0698
15835TIP3    H268997   0.930   6.682   4.183  0.7309 -0.7326 -1.5780
15836TIP3   OH268998   5.245   4.443   6.627 -0.3258  0.3159  0.0011
15836TIP3    H168999   5.259   4.535   6.651  0.4359  0.0443  0.6457
15836TIP3    H269000   5.213   4.446   6.537 -1.5573  1.2771  0.4537
15837TIP3   OH269001   3.829   5.393   5.638  0.1052 -0.3303 -0.2597
15837TIP3    H169002   3.857   5.484   5.634 -1.2630  0.1917  1.2036
15837TIP3    H269003   3.776   5.380   5.560  1.2364 -0.2309 -1.0648
15838TIP3   OH269004   4.364   2.088  11.087 -0.2237 -0.2485 -1.2384
15838TIP3    H169005   4.301   2.126  11.025 -1.4585  1.3955  0.8944
15838TIP3    H269006   4.433   2.153  11.093 -0.7419  0.2219  0.0014
15839TIP3   OH269007   3.293   6.679  11.977 -0.0781 -0.2187 -0.2701
15839TIP3    H169008   3.230   6.609  11.958 -0.6922  0.2890 -0.0994
15839TIP3    H269009   3.257   6.724  12.053  0.8400 -0.3504  0.2569
15840TIP3   OH269010   4.789   3.390  14.982 -0.1861  0.3748 -0.0918
15840TIP3    H169011   4.791   3.363  15.073  0.3069 -0.0857 -0.2326
15840TIP3    H269012   4.801   3.309  14.932 -1.1760  0.5162 -0.5888
15841TIP3   OH269013   3.404   0.136  13.722  0.6483 -0.0188  0.2820
15841TIP3    H169014   3.338   0.197  13.690 -0.0089 -0.9200 -0.0926
15841TIP3    H269015   3.356   0.058  13.747  1.0715  0.6087  3.5991
15842TIP3   OH269016   5.190   1.161   1.169 -0.1461  0.3649 -0.0548
15842TIP3    H169017   5.199   1.107   1.091 -2.3172 -0.4346  0.1641
15842TIP3    H269018   5.097   1.152   1.193  0.7147 -0.6434  3.4448
15843TIP3   OH269019   1.755   0.659  16.581  0.3112 -0.0917 -0.2404
15843TIP3    H169020   1.741   0.700  16.666  0.2810  0.6094 -0.5732
15843TIP3    H269021   1.693   0.703  16.522  0.9211  0.0321 -0.8053
15844TIP3   OH269022   4.536   3.797  14.172  0.7176  0.0102  0.0492
15844TIP3    H169023   4.585   3.781  14.091 -0.4679  0.0018 -0.6891
15844TIP3    H269024   4.494   3.882  14.159  1.5083  0.6021  1.1869
15845TIP3   OH269025   1.085   5.405  12.114  0.7686  0.3366 -0.2029
15845TIP3    H169026   1.126   5.457  12.045  1.1352  0.2272 -0.0715
15845TIP3    H269027   1.158   5.382  12.173  0.6111 -0.3189 -0.2555
15846TIP3   OH269028   4.996   3.125  16.934  0.3949 -0.4540 -0.2204
15846TIP3    H169029   5.036   3.190  16.993  0.2837  0.3569 -1.0152
15846TIP3    H269030   5.067   3.101  16.874 -0.2417  0.9766 -1.6261
15847TIP3   OH269031   1.261   4.541   6.105 -0.0367  0.1601  0.0122
15847TIP3    H169032   1.278   4.447   6.102 -1.0154 -0.0215 -0.3876
15847TIP3    H269033   1.333   4.581   6.057  0.0091 -0.4522 -0.4360
15848TIP3   OH269034   0.948   0.440   1.522  0.0544 -0.1283  0.3950
15848TIP3    H169035   0.917   0.498   1.452  0.8707  0.0056  0.1296
15848TIP3    H269036   0.986   0.500   1.587 -3.2967  0.0418  2.4402
15849TIP3   OH269037   5.185   0.084  16.543  0.3331  0.3971 -0.3144
15849TIP3    H169038   5.264   0.091  16.596  0.3411  1.9378 -0.4823
15849TIP3    H269039   5.203   0.010  16.484  1.5038  0.5022 -0.1228
15850TIP3   OH269040   1.618   2.668  10.620 -0.2332  0.4981 -0.1283
15850TIP3    H169041   1.648   2.599  10.561  1.4811  2.7423 -2.0879
15850TIP3    H269042   1.635   2.634  10.708  1.0329 -1.3663 -1.0278
15851TIP3   OH269043   4.031   6.521  14.022 -0.2629  0.0876 -0.1616
15851TIP3    H169044   3.938   6.504  14.008  0.4094 -2.7902 -1.8006
15851TIP3    H269045   4.054   6.468  14.098  0.7992 -2.6255 -2.2305
15852TIP3   OH269046   4.964   2.771  11.284 -0.0138  0.3472  0.5607
15852TIP3    H169047   4.884   2.718  11.290  0.0460  0.1145 -0.4374
15852TIP3    H269048   5.024   2.731  11.346 -0.5457  0.2809  1.0390
15853TIP3   OH269049   3.459   5.379  13.903 -0.5550 -0.0802  0.3853
15853TIP3    H169050   3.404   5.345  13.974  0.9018 -1.3144  0.9833
15853TIP3    H269051   3.423   5.465  13.884 -2.8589 -0.9541  0.5389
15854TIP3   OH269052   0.035   4.076   1.166  0.3660  0.6061  0.2267
15854TIP3    H169053  -0.023   4.072   1.242 -1.2454 -0.4458 -1.0071
15854TIP3    H269054   0.008   4.154   1.119 -0.3504 -0.0904 -0.5488
15855TIP3   OH269055   6.085   0.845   1.515 -0.0303  0.0097  0.3106
15855TIP3    H169056   5.996   0.866   1.484  0.6987 -1.8314 -3.5732
15855TIP3    H269057   6.088   0.750   1.517  1.9042  0.0341  0.1468
15856TIP3   OH269058   6.380   1.267   1.377 -0.0827  0.1237  0.1106
15856TIP3    H169059   6.366   1.193   1.317 -0.2816  0.9174 -0.8516
15856TIP3    H269060   6.293   1.286   1.412  0.0330 -0.3386  0.6670
15857TIP3   OH269061   3.926   4.956   3.975  0.1498 -0.3913  0.6277
15857TIP3    H169062   3.834   4.932   3.983  0.1363 -0.9890 -0.8887
15857TIP3    H269063   3.935   5.035   4.026 -1.4557  0.2642 -0.0283
15858TIP3   OH269064   6.122   4.097   2.953 -0.0340  0.1194 -0.1771
15858TIP3    H169065   6.047   4.129   2.902 -1.0514 -1.0475  0.5403
15858TIP3    H269066   6.085   4.032   3.012  1.5645 -0.5018  0.1892
15859TIP3   OH269067   1.650   6.306   5.315  0.2456 -0.5010 -0.1963
15859TIP3    H169068   1.605   6.322   5.398 -0.1533 -2.4671  0.0103
15859TIP3    H269069   1.742   6.327   5.333 -0.3084  2.4793 -0.3159
15860TIP3   OH269070   5.649   0.057  14.996  0.2299  0.2665  0.0378
15860TIP3    H169071   5.580   0.016  14.943  0.4598  0.7484 -0.6548
15860TIP3    H269072   5.725   0.059  14.937  1.7602 -2.8750  1.6733
15861TIP3   OH269073   5.460   6.308  11.844 -0.3013 -0.0211  0.9227
15861TIP3    H169074   5.518   6.236  11.868  0.8765  0.0622 -1.3901
15861TIP3    H269075   5.474   6.320  11.750 -1.2606  2.5414  1.0299
15862TIP3   OH269076   6.447   5.943  13.845 -0.1532  0.0896 -0.0581
15862TIP3    H169077   6.379   5.926  13.780 -0.1338 -0.4513  0.0586
15862TIP3    H269078   6.431   6.034  13.873 -0.3403  0.2296 -0.5971
15863TIP3   OH269079   4.933   0.078   2.263 -0.0917  0.2917  0.0834
15863TIP3    H169080   4.883   0.153   2.230  2.4114  1.7419 -0.6537
15863TIP3    H269081   4.927   0.086   2.358 -1.5913  0.1588  0.0248
15864TIP3   OH269082   0.476   2.044  15.970 -0.0782 -0.6289  0.1633
15864TIP3    H169083   0.525   2.067  16.049  0.2692  1.0245 -0.4919
15864TIP3    H269084   0.388   2.026  16.000 -0.0872  0.5416  0.8832
15865TIP3   OH269085   0.274   0.111   2.400 -0.6629 -0.6846  0.0144
15865TIP3    H169086   0.362   0.096   2.366 -1.1984  1.0092 -2.4260
15865TIP3    H269087   0.266   0.206   2.406 -2.7744 -0.7162 -1.2569
15866TIP3   OH269088   0.655   4.875   1.821  0.4315  0.5576  0.1292
15866TIP3    H169089   0.669   4.894   1.729  2.3786  1.5818  0.5567
15866TIP3    H269090   0.625   4.784   1.823  2.0255 -0.0725 -1.4429
15867TIP3   OH269091   6.685   6.393   0.321  0.4664  0.4376 -0.2418
15867TIP3    H169092   6.672   6.421   0.231 -0.1116 -1.1422 -0.6800
15867TIP3    H269093   6.631   6.453   0.373  0.8045  1.3592 -0.9248
15868TIP3   OH269094   2.956   3.105  11.283  0.5718 -0.6408  0.2169
15868TIP3    H169095   3.037   3.128  11.328  0.2336  1.6747 -0.2379
15868TIP3    H269096   2.894   3.173  11.308 -0.1387 -0.2622 -2.2743
15869TIP3   OH269097   0.221   2.466   4.899  0.2518  0.2581 -0.3689
15869TIP3    H169098   0.235   2.396   4.962 -1.9163  1.6118  1.7980
15869TIP3    H269099   0.233   2.547   4.949 -1.3936  1.4139 -1.6944
15870TIP3   OH269100   6.520   4.213   4.785 -0.2655 -0.3386 -0.2280
15870TIP3    H169101   6.554   4.302   4.795 -1.3644  0.5722 -3.4123
15870TIP3    H269102   6.592   4.157   4.814  1.5181  1.5861 -0.6483
15871TIP3   OH269103   1.162   6.517   1.476 -0.4155 -0.2814  0.7421
15871TIP3    H169104   1.236   6.572   1.504 -0.6413  0.0382  0.7173
15871TIP3    H269105   1.090   6.579   1.464 -0.1551 -0.3120 -1.2191
15872TIP3   OH269106   2.399   5.468   0.601  0.2392 -0.2761  0.4438
15872TIP3    H169107   2.445   5.551   0.593 -0.7356  0.1648 -0.9271
15872TIP3    H269108   2.452   5.407   0.549 -0.8557  0.3290 -1.4950
15873TIP3   OH269109   5.466   2.009  11.520  0.0598  0.7781  1.0243
15873TIP3    H169110   5.532   1.973  11.461 -0.6245  2.3244 -0.7685
15873TIP3    H269111   5.482   2.103  11.520 -1.3590  1.0428  1.5485
15874TIP3   OH269112   5.961   0.427  14.863  0.1711 -0.5153 -0.2057
15874TIP3    H169113   6.047   0.427  14.819 -0.2417 -0.5645 -1.0382
15874TIP3    H269114   5.917   0.505  14.828  0.3585  0.2697  1.2199
15875TIP3   OH269115   3.011   4.983   1.634  0.0318 -0.0795 -0.6425
15875TIP3    H169116   3.090   5.033   1.653 -0.4683  1.0254 -1.3508
15875TIP3    H269117   3.039   4.892   1.635  0.8359  0.1517  1.3142
15876TIP3   OH269118   6.301   1.361   5.186 -0.4587  0.0474 -0.3198
15876TIP3    H169119   6.264   1.341   5.100 -1.3071  1.6374 -0.3467
15876TIP3    H269120   6.365   1.291   5.201 -1.3606 -1.0907 -1.5720
15877TIP3   OH269121   2.136   4.679  14.603 -0.8361  0.4755 -0.0859
15877TIP3    H169122   2.213   4.737  14.600  0.2655 -0.9755 -1.2245
15877TIP3    H269123   2.154   4.619  14.675 -2.6132  2.2948  2.0035
15878TIP3   OH269124   2.368   4.340  12.710  0.8340  0.0418 -0.1309
15878TIP3    H169125   2.394   4.377  12.626  0.9194  1.7942  0.6226
15878TIP3    H269126   2.444   4.290  12.738  0.7301 -0.7384 -1.1590
15879TIP3   OH269127   2.591   3.513   2.818  0.2900 -0.5280 -0.3224
15879TIP3    H169128   2.618   3.537   2.906  0.2008  0.5279 -0.5682
15879TIP3    H269129   2.512   3.460   2.830 -0.8224  1.1901  0.1706
15880TIP3   OH269130   4.503   1.739   0.595  0.1503  0.1062  0.2151
15880TIP3    H169131   4.497   1.769   0.504 -1.0366 -1.8087 -0.3835
15880TIP3    H269132   4.529   1.647   0.588  2.0069  0.4217  1.9196
15881TIP3   OH269133   6.008   4.872  11.998  0.5422  0.0920 -0.3614
15881TIP3    H169134   5.945   4.935  11.963  0.4505 -0.6301 -1.5708
15881TIP3    H269135   5.996   4.794  11.944  1.2726 -0.6595  0.5232
15882TIP3   OH269136   0.630   3.587   5.675  0.3470 -0.5688 -0.3297
15882TIP3    H169137   0.693   3.634   5.729 -0.9746  1.0265 -0.1092
15882TIP3    H269138   0.592   3.654   5.618 -1.2695 -1.4391 -0.3371
15883TIP3   OH269139   4.652   3.797   6.280  0.1425 -0.7985  0.3126
15883TIP3    H169140   4.647   3.886   6.246  0.3963 -1.5929 -2.0467
15883TIP3    H269141   4.740   3.767   6.256  0.0226 -1.7169  0.9591
15884TIP3   OH269142   6.576   5.318  13.165 -0.0624 -0.0536 -0.6321
15884TIP3    H169143   6.495   5.295  13.119  0.5267  1.3201 -2.4287
15884TIP3    H269144   6.645   5.272  13.117  0.2869 -1.2094  0.8811
15885TIP3   OH269145   6.255   0.977  13.215  0.8500 -0.0073  0.2367
15885TIP3    H169146   6.320   0.929  13.267  0.9439 -1.3483 -1.0471
15885TIP3    H269147   6.295   0.985  13.128 -1.2977 -2.4019 -1.1017
15886TIP3   OH269148   0.189   3.769  13.908  0.2624 -0.3858  0.4537
15886TIP3    H169149   0.098   3.798  13.899  0.6922  0.9317  0.2778
15886TIP3    H269150   0.241   3.849  13.904  1.6232 -1.2956 -1.9332
15887TIP3   OH269151   5.382   1.708   2.900  0.2640 -0.5369 -0.4917
15887TIP3    H169152   5.433   1.755   2.834 -0.1356 -0.0249 -0.4457
15887TIP3    H269153   5.342   1.777   2.953  1.0681 -0.9329  0.6829
15888TIP3   OH269154   2.469   2.651   5.811 -0.5426  0.3362 -0.2665
15888TIP3    H169155   2.521   2.648   5.891 -1.3402  0.6849  0.2790
15888TIP3    H269156   2.390   2.600   5.831 -0.5788  0.1050 -0.9601
15889TIP3   OH269157   3.576   5.358  11.946 -0.3394 -0.3131  0.9919
15889TIP3    H169158   3.652   5.307  11.973 -0.3627 -0.5517  0.6176
15889TIP3    H269159   3.505   5.295  11.942 -0.5370 -0.1053  1.2605
15890TIP3   OH269160   1.330   2.956   2.660 -0.2560 -0.2143 -0.3578
15890TIP3    H169161   1.320   3.009   2.739 -1.3019 -1.6929  0.5577
15890TIP3    H269162   1.312   3.016   2.588 -1.6059  0.6439  0.6511
15891TIP3   OH269163   0.978   2.051   3.408  0.6754  0.2673  0.2553
15891TIP3    H169164   1.030   2.005   3.474 -0.9682 -1.2749  0.5578
15891TIP3    H269165   0.899   1.998   3.398 -0.8580  2.4723 -0.1919
15892TIP3   OH269166   0.048   3.045   6.345  0.3958 -0.0175  0.5058
15892TIP3    H169167   0.072   3.130   6.382  0.0621 -0.1385  1.0152
15892TIP3    H269168   0.012   2.996   6.419 -1.5356  0.2019 -0.2208
15893TIP3   OH269169   5.930   4.095   5.863 -0.0588 -0.0541  0.2588
15893TIP3    H169170   6.025   4.095   5.853  0.0383 -0.2137  1.1249
15893TIP3    H269171   5.914   4.140   5.946 -0.5334 -2.6797  1.7006
15894TIP3   OH269172   5.043   4.423  11.790 -0.7187 -0.2909 -0.0896
15894TIP3    H169173   4.998   4.507  11.791  0.4824  0.3661  0.6322
15894TIP3    H269174   5.075   4.411  11.879 -1.6344 -1.9647  0.0617
15895TIP3   OH269175   1.202   1.437   1.170  0.6671  0.2479 -0.0619
15895TIP3    H169176   1.207   1.342   1.170  2.6561  0.3049 -1.1339
15895TIP3    H269177   1.262   1.465   1.101  0.5924  2.3010  0.6244
15896TIP3   OH269178   6.544   0.694  15.038  0.0750 -0.3230 -0.4072
15896TIP3    H169179   6.490   0.631  14.990 -2.9299  1.9645 -0.2854
15896TIP3    H269180   6.587   0.745  14.969  2.6692 -2.3952 -0.5090
15897TIP3   OH269181   6.375   3.524   5.444 -0.0097 -0.1820  0.3658
15897TIP3    H169182   6.464   3.520   5.409  0.0364 -1.4364  0.5920
15897TIP3    H269183   6.358   3.436   5.477 -0.8535  0.3812  1.5161
15898TIP3   OH269184   5.363   4.124   1.885 -0.5482  0.1459 -1.0043
15898TIP3    H169185   5.284   4.157   1.928 -0.2163  0.8474 -0.9081
15898TIP3    H269186   5.408   4.203   1.855 -0.9394 -0.3126 -2.9646
15899TIP3   OH269187   6.624   0.461  13.910 -0.1841 -0.3140 -0.4927
15899TIP3    H169188   6.611   0.545  13.954 -1.0069 -1.4688  1.5982
15899TIP3    H269189   6.718   0.447  13.912 -0.1117  0.1781 -0.1375
15900TIP3   OH269190   1.346   1.898  13.604  0.3832  0.5988 -0.4083
15900TIP3    H169191   1.347   1.837  13.678  2.7905 -0.7498 -1.4309
15900TIP3    H269192   1.435   1.894  13.569 -0.1500  2.6803 -2.1933
15901TIP3   OH269193   5.490   2.813   5.311 -0.3749 -0.1825 -0.0264
15901TIP3    H169194   5.432   2.834   5.384 -1.7741  0.5751 -1.3149
15901TIP3    H269195   5.553   2.885   5.309  0.7859 -1.0812  1.4644
15902TIP3   OH269196   2.627   0.146  12.601  0.4347 -0.2448 -0.0160
15902TIP3    H169197   2.645   0.236  12.628 -0.3402  0.1229 -0.6854
15902TIP3    H269198   2.652   0.143  12.509 -0.7822 -0.3343 -0.3586
15903TIP3   OH269199   6.503   0.179   5.884  0.1618  0.0383 -0.1480
15903TIP3    H169200   6.511   0.144   5.795 -1.2638 -1.2117  0.1813
15903TIP3    H269201   6.409   0.191   5.896  0.3455  0.2128  1.1987
15904TIP3   OH269202   3.099   5.517  11.156 -0.2490  0.1307 -0.0301
15904TIP3    H169203   3.078   5.507  11.063 -0.0262 -0.4699 -0.0166
15904TIP3    H269204   3.037   5.583  11.187 -0.8244 -0.2125 -0.4321
15905TIP3   OH269205   4.222   1.069  17.118  0.3602  0.3464 -0.3228
15905TIP3    H169206   4.297   1.033  17.165 -0.3001 -2.0615 -0.9924
15905TIP3    H269207   4.149   1.011  17.141 -0.7674  1.2181 -1.5424
15906TIP3   OH269208   3.836   5.225  11.185 -0.2750 -0.1625  0.5155
15906TIP3    H169209   3.845   5.313  11.222  1.5555 -0.0008 -0.1983
15906TIP3    H269210   3.809   5.239  11.095 -0.7919 -0.3654  0.6403
15907TIP3   OH269211   6.030   3.616  13.035  0.2114  0.0559 -0.5150
15907TIP3    H169212   6.063   3.684  13.094  0.6021 -0.2104 -0.4247
15907TIP3    H269213   6.005   3.543  13.093 -0.5323  0.2442 -0.5809
15908TIP3   OH269214   2.977   3.128   4.811  0.1642 -0.4598 -0.1147
15908TIP3    H169215   2.948   3.040   4.836 -0.0961 -0.4965 -0.5300
15908TIP3    H269216   3.016   3.116   4.725  0.7072 -0.2713  0.1011
15909TIP3   OH269217   2.715   0.704   5.528  0.1943 -0.3162  0.2797
15909TIP3    H169218   2.682   0.738   5.446  0.8400 -1.0630 -0.3068
15909TIP3    H269219   2.751   0.618   5.506  1.6915  0.0633  1.0410
15910TIP3   OH269220   5.790   4.325  12.680  0.7018  0.7558 -0.2662
15910TIP3    H169221   5.853   4.383  12.721  1.9234 -0.7083  0.0302
15910TIP3    H269222   5.843   4.255  12.642 -0.7730 -0.9292  0.6317
15911TIP3   OH269223   1.758   4.169   5.475 -0.0569 -0.1006 -0.3557
15911TIP3    H169224   1.781   4.146   5.385  1.2621 -0.4149  0.0385
15911TIP3    H269225   1.828   4.228   5.504 -2.3589  3.0770 -0.7042
15912TIP3   OH269226   0.335   2.354  13.410 -0.3804  0.7291  0.5636
15912TIP3    H169227   0.402   2.293  13.377 -0.5902  0.9852 -0.3759
15912TIP3    H269228   0.303   2.313  13.490 -0.1266 -0.1254  0.2400
15913TIP3   OH269229   6.311   3.438  11.459  0.5346  0.4031 -0.9342
15913TIP3    H169230   6.253   3.490  11.404 -1.1268 -0.8005 -0.4059
15913TIP3    H269231   6.376   3.402  11.398  0.3213  1.2113 -1.6544
15914TIP3   OH269232   5.938   1.494   0.379 -0.0619  1.3969  0.6894
15914TIP3    H169233   5.993   1.571   0.366  0.2152  1.1254  0.2225
15914TIP3    H269234   5.980   1.446   0.450 -0.2811  1.7146  1.0365
15915TIP3   OH269235   4.204   4.697  16.247 -1.1965 -0.5303  0.6928
15915TIP3    H169236   4.287   4.686  16.295 -1.1578 -0.4062  0.6549
15915TIP3    H269237   4.198   4.620  16.191 -0.5854 -0.0306 -0.0867
15916TIP3   OH269238   2.864   6.366  14.611  0.6391  0.0389  0.1268
15916TIP3    H169239   2.802   6.296  14.594 -0.1867  0.5338  1.0096
15916TIP3    H269240   2.942   6.322  14.646 -0.2890 -0.3557  1.7497
15917TIP3   OH269241   2.101   5.654  15.038 -0.0067 -0.2835 -0.2574
15917TIP3    H169242   2.149   5.735  15.058  0.3641 -0.1558 -1.5392
15917TIP3    H269243   2.030   5.651  15.102  1.1344  0.0294  1.0766
15918TIP3   OH269244   5.662   4.395   1.120  0.1392  0.5245  0.3180
15918TIP3    H169245   5.571   4.367   1.109  0.9230 -1.8990 -0.6849
15918TIP3    H269246   5.682   4.442   1.040 -0.0188  0.4179  0.2139
15919TIP3   OH269247   2.790   1.823  13.343  0.3116  0.0369  0.1375
15919TIP3    H169248   2.718   1.760  13.337 -1.7417  2.3734 -2.2137
15919TIP3    H269249   2.835   1.815  13.259  0.9666  0.6872  0.4218
15920TIP3   OH269250   2.248   5.200   4.901  0.1264  0.6083 -0.7026
15920TIP3    H169251   2.219   5.141   4.831 -2.3034 -2.1236  2.3285
15920TIP3    H269252   2.176   5.262   4.912  0.6050  1.1822 -0.7472
15921TIP3   OH269253   5.804   1.824   0.070  0.2605  0.5626 -0.5250
15921TIP3    H169254   5.719   1.801   0.033  0.7410 -0.7147 -0.8927
15921TIP3    H269255   5.851   1.741   0.076  1.6668  1.3039 -0.7917
15922TIP3   OH269256   3.703   2.984   4.507  0.0219  0.2370 -0.1409
15922TIP3    H169257   3.793   2.996   4.475  0.3136  1.2816  0.9961
15922TIP3    H269258   3.665   2.920   4.448  1.8455 -1.0225 -0.0253
15923TIP3   OH269259   4.360   0.050  13.739 -0.3122  0.1732 -0.3073
15923TIP3    H169260   4.400  -0.033  13.715  0.5360  0.3814  0.3181
15923TIP3    H269261   4.284   0.026  13.791 -0.3451 -0.2205 -0.5380
15924TIP3   OH269262   5.183   1.853   3.750 -0.1094 -0.2340 -0.3114
15924TIP3    H169263   5.196   1.768   3.792 -1.7215  0.0129  0.7590
15924TIP3    H269264   5.112   1.838   3.688  0.7278 -0.0411 -1.3416
15925TIP3   OH269265   5.517   6.674   3.175  0.3000  0.0491  0.0999
15925TIP3    H169266   5.597   6.722   3.197  0.6436  0.1652 -1.3292
15925TIP3    H269267   5.461   6.739   3.131 -0.3368 -0.1898  0.5410
15926TIP3   OH269268   5.659   3.904  13.170 -0.6978 -0.2680  0.3877
15926TIP3    H169269   5.598   3.831  13.182 -1.4695  0.6621  2.7689
15926TIP3    H269270   5.717   3.875  13.100 -3.2934 -1.5642 -1.4059
15927TIP3   OH269271   1.952   5.069  15.476 -0.0922  0.1505 -0.1151
15927TIP3    H169272   1.906   5.082  15.559 -0.5946  0.6754 -0.4681
15927TIP3    H269273   2.002   5.149  15.463  0.9981 -0.4398  0.2958
15928TIP3   OH269274   6.456   5.963  12.333 -0.0723 -0.6829  0.4523
15928TIP3    H169275   6.501   5.915  12.403  1.1935  1.4374  1.2032
15928TIP3    H269276   6.503   5.938  12.253  0.9353 -0.3003  0.9075
15929TIP3   OH269277   3.413   3.143  12.646 -0.2471  0.9850 -0.2422
15929TIP3    H169278   3.483   3.192  12.604 -0.2630  1.0139 -0.2347
15929TIP3    H269279   3.441   3.052  12.640  0.0727  1.0475  0.2899
15930TIP3   OH269280   4.263   1.166   2.518 -0.0417 -0.7387  0.5187
15930TIP3    H169281   4.336   1.105   2.518 -0.2064 -0.9438  1.0841
15930TIP3    H269282   4.203   1.131   2.452  0.3186 -0.6311  0.1339
15931TIP3   OH269283   4.360   0.430   2.016  0.1602 -0.2429  0.6121
15931TIP3    H169284   4.339   0.359   2.077  1.9394  0.5162  2.2092
15931TIP3    H269285   4.290   0.427   1.951 -0.1243 -3.1117  0.9050
15932TIP3   OH269286   3.025   3.580  12.770  0.1156  0.2567  0.2532
15932TIP3    H169287   2.943   3.599  12.725  0.7897 -0.2702 -1.2340
15932TIP3    H269288   3.018   3.628  12.853 -1.8026 -0.0105  0.2968
15933TIP3   OH269289   3.983   4.810  11.777  0.0086  0.0587  0.4697
15933TIP3    H169290   4.058   4.790  11.722 -1.0809 -0.4008 -0.9057
15933TIP3    H269291   3.931   4.729  11.777 -0.2004  0.1592  1.9038
15934TIP3   OH269292   3.092   5.479   2.523  0.2731  0.4018  0.4581
15934TIP3    H169293   3.140   5.557   2.497 -0.9498  0.5162 -1.7015
15934TIP3    H269294   3.003   5.493   2.489 -0.2319 -1.4727  0.8876
15935TIP3   OH269295   0.979   4.366   0.305  0.6694 -0.3342 -0.7434
15935TIP3    H169296   1.015   4.329   0.224  1.3361 -0.5496 -0.3593
15935TIP3    H269297   1.048   4.353   0.370  0.0849 -0.2962 -0.1019
15936TIP3   OH269298   4.249   2.450   0.832 -0.1041  0.4956  0.1844
15936TIP3    H169299   4.341   2.445   0.858  0.7986 -3.8831 -2.8611
15936TIP3    H269300   4.252   2.463   0.737 -2.7535  1.8249  0.2024
15937TIP3   OH269301   6.587   0.801  13.059  0.1539 -0.1480 -0.2013
15937TIP3    H169302   6.644   0.836  13.128  0.9109 -0.5888 -0.5826
15937TIP3    H269303   6.515   0.863  13.053  0.7637  0.6073  0.0716
15938TIP3   OH269304   5.639   5.548   0.076  0.3178 -0.2340  0.6560
15938TIP3    H169305   5.660   5.480   0.012  0.4404 -0.7799  1.2658
15938TIP3    H269306   5.544   5.555   0.073  0.2892 -0.5694  0.7264
15939TIP3   OH269307   1.845   4.379  11.276  0.2889  0.6163  0.2777
15939TIP3    H169308   1.928   4.370  11.322  0.4591  1.0655  0.0663
15939TIP3    H269309   1.784   4.411  11.343  0.4904  1.0897  0.2439
15940TIP3   OH269310   5.929   4.472  15.662 -0.3351 -0.2415 -0.4380
15940TIP3    H169311   6.015   4.431  15.673  0.3635  1.0205 -1.0035
15940TIP3    H269312   5.872   4.423  15.722  0.8498 -0.8440  0.2462
15941TIP3   OH269313   2.918   6.422  12.583 -0.1715  0.3210 -0.2413
15941TIP3    H169314   2.929   6.514  12.603  2.2947 -0.3877  2.2491
15941TIP3    H269315   2.829   6.415  12.549 -0.5368  3.5185 -0.1960
15942TIP3   OH269316   6.419   5.669   1.243 -0.1564 -0.1971  0.5763
15942TIP3    H169317   6.358   5.705   1.307  0.2200 -1.1568  1.4939
15942TIP3    H269318   6.363   5.642   1.170 -0.3790  3.0538 -0.6131
15943TIP3   OH269319   1.751   3.431   5.231 -0.1798  0.4375 -0.2882
15943TIP3    H169320   1.664   3.407   5.262 -0.3330  1.5254  0.1763
15943TIP3    H269321   1.745   3.429   5.136 -0.5765  0.0471 -0.2555
15944TIP3   OH269322   5.210   2.317  10.549 -0.0522 -0.6611 -0.4377
15944TIP3    H169323   5.305   2.322  10.556 -0.1399  1.4748 -0.2211
15944TIP3    H269324   5.188   2.375  10.476 -1.2811  0.0180  0.4434
15945TIP3   OH269325   6.328   1.363   1.884  0.1122  0.1922  0.7008
15945TIP3    H169326   6.241   1.337   1.853  0.8349  0.2773 -1.5875
15945TIP3    H269327   6.340   1.452   1.850  1.3318 -0.0591  0.4142
15946TIP3   OH269328   4.196   0.563   5.438 -0.5262  0.1242 -0.2748
15946TIP3    H169329   4.115   0.614   5.429 -0.2388  0.8395  1.0583
15946TIP3    H269330   4.262   0.626   5.466 -0.0665 -0.8833  1.0143
15947TIP3   OH269331   4.008   3.018  11.857 -0.0383 -0.0312 -0.5336
15947TIP3    H169332   3.946   3.085  11.828  0.0676  0.4895  0.4192
15947TIP3    H269333   4.035   2.975  11.776 -0.6226  0.6223 -1.0953
15948TIP3   OH269334   0.945   6.430  13.594 -0.4564 -0.3142  0.1535
15948TIP3    H169335   0.857   6.468  13.602  0.1930  1.0663  0.9454
15948TIP3    H269336   0.996   6.496  13.548  0.8122  0.0401  1.9597
15949TIP3   OH269337   4.146   2.405  10.945  0.4233 -0.2948 -0.1164
15949TIP3    H169338   4.124   2.312  10.946 -1.8412  0.1729  1.5569
15949TIP3    H269339   4.112   2.436  10.861 -0.3701 -0.6706  0.0561
15950TIP3   OH269340   5.318   2.782  11.543 -0.3162 -0.2529  0.2201
15950TIP3    H169341   5.355   2.761  11.629 -1.5955 -0.9553  0.6263
15950TIP3    H269342   5.383   2.749  11.481  0.6898  0.3867  0.9010
15951TIP3   OH269343   2.977   0.195  14.171  0.1910 -0.0720  0.7133
15951TIP3    H169344   2.965   0.239  14.086  0.8324 -1.4424 -0.1273
15951TIP3    H269345   2.901   0.222  14.223 -0.7640 -0.0047 -0.6650
15952TIP3   OH269346   3.646   2.893  16.748  0.4319  0.4354 -0.0218
15952TIP3    H169347   3.613   2.883  16.837 -0.2590 -0.6052 -0.3776
15952TIP3    H269348   3.713   2.825  16.740  0.4094  0.4500 -0.3334
15953TIP3   OH269349   1.647   1.408  17.095  0.9674  0.7711 -0.4798
15953TIP3    H169350   1.563   1.416  17.141  0.4212 -0.1421 -1.2825
15953TIP3    H269351   1.713   1.422  17.163  0.1870 -0.6053  0.6317
15954TIP3   OH269352   0.662   5.562  15.989  0.1333 -0.8120 -0.3402
15954TIP3    H169353   0.585   5.585  16.042 -0.7003  0.3272 -1.9627
15954TIP3    H269354   0.653   5.468  15.973  0.9171 -1.4183  2.2474
15955TIP3   OH269355   2.571   1.125   1.940  0.1541 -0.3632 -0.0439
15955TIP3    H169356   2.567   1.073   1.860 -0.4313  1.1055 -0.9971
15955TIP3    H269357   2.622   1.202   1.916 -0.8912  0.5779  0.7133
15956TIP3   OH269358   5.277   1.782  11.575  0.3896  0.0077 -0.3003
15956TIP3    H169359   5.235   1.765  11.490 -2.1564 -0.2117  0.8986
15956TIP3    H269360   5.342   1.850  11.556 -1.1631  1.0920 -2.1766
15957TIP3   OH269361   1.592   3.085  12.325  0.4465 -0.3532  0.4871
15957TIP3    H169362   1.653   3.028  12.279  0.5408  0.2438 -0.1291
15957TIP3    H269363   1.599   3.058  12.417  2.1604  0.1886  0.5400
15958TIP3   OH269364   1.886   2.694  15.809 -0.2924 -0.3285  0.0713
15958TIP3    H169365   1.815   2.631  15.820 -1.0659  0.6455  0.8878
15958TIP3    H269366   1.850   2.776  15.844  0.3954  0.7687 -1.6682
15959TIP3   OH269367   1.719   4.866  13.609  0.1953 -0.1531  0.1079
15959TIP3    H169368   1.770   4.918  13.547 -0.9287 -0.6416 -1.3005
15959TIP3    H269369   1.746   4.775  13.591 -1.3235 -0.4500 -0.8924
15960TIP3   OH269370   6.504   2.607  14.579 -0.0678  0.0084  0.4587
15960TIP3    H169371   6.580   2.625  14.633 -0.1886 -1.1094  1.0325
15960TIP3    H269372   6.437   2.668  14.610  0.6972  1.2866 -0.3336
15961TIP3   OH269373   0.775   3.469  16.305 -0.6288  0.2339 -0.0762
15961TIP3    H169374   0.801   3.393  16.253 -0.2735  0.1324  0.2447
15961TIP3    H269375   0.855   3.521  16.312 -0.3526 -0.3514  1.3996
15962TIP3   OH269376   5.688   5.342  11.766 -0.1748  0.3978  0.0467
15962TIP3    H169377   5.688   5.354  11.861  2.4633  3.4529 -0.1690
15962TIP3    H269378   5.598   5.360  11.740 -1.2850 -1.8155  1.9897
15963TIP3   OH269379   5.229   5.649   4.411 -0.0586  0.2336  0.1208
15963TIP3    H169380   5.238   5.592   4.335  0.2665 -0.8956  0.9591
15963TIP3    H269381   5.292   5.720   4.397 -1.5581  1.2754 -1.6773
15964TIP3   OH269382   6.263   3.084   1.835  0.1266  0.0800 -0.9508
15964TIP3    H169383   6.169   3.099   1.846  0.5972  2.8522  0.1701
15964TIP3    H269384   6.281   3.006   1.887 -1.4216 -0.0277 -0.5177
15965TIP3   OH269385   0.366   1.607   2.371  0.0477 -0.2686  0.1312
15965TIP3    H169386   0.337   1.677   2.312 -0.5463  0.3012  1.0710
15965TIP3    H269387   0.355   1.527   2.320  3.5653  0.4416 -2.1208
15966TIP3   OH269388   2.954   1.741   4.094 -0.2207 -0.2749 -0.5832
15966TIP3    H169389   2.975   1.763   4.185 -1.8050 -0.2905 -0.1743
15966TIP3    H269390   2.987   1.652   4.083 -1.1592 -0.7768  0.4250
15967TIP3   OH269391   6.131   5.894  15.084 -1.3619  0.1410  0.6441
15967TIP3    H169392   6.137   5.906  14.989 -1.0017 -0.4764  0.5813
15967TIP3    H269393   6.178   5.813  15.101 -2.0660 -0.1559  1.2630
15968TIP3   OH269394   4.978   4.436  16.866  0.0378  0.1876  0.0614
15968TIP3    H169395   4.964   4.360  16.809 -1.5757 -0.4404  1.2031
15968TIP3    H269396   5.063   4.470  16.841  1.1000 -2.3669 -0.0774
15969TIP3   OH269397   6.678   1.427   4.527 -0.2132  0.0327 -0.0977
15969TIP3    H169398   6.730   1.443   4.449  0.7382 -1.1366  0.2637
15969TIP3    H269399   6.741   1.425   4.598 -1.0795  1.1577  0.7262
15970TIP3   OH269400   5.385   0.734  14.333 -0.4654  0.4452  0.5206
15970TIP3    H169401   5.317   0.666  14.327 -0.0793  0.1747 -1.9243
15970TIP3    H269402   5.467   0.687  14.317 -0.2117  1.4463 -1.4666
15971TIP3   OH269403   4.795   0.235   3.148 -0.2034 -0.4115  0.5897
15971TIP3    H169404   4.879   0.274   3.122  0.1207 -1.0250  0.7012
15971TIP3    H269405   4.787   0.256   3.241 -0.8938  0.9298  0.2586
15972TIP3   OH269406   1.815   0.147   0.377  0.0765 -0.2923 -0.0703
15972TIP3    H169407   1.800   0.140   0.283 -1.2018 -1.1560  0.1708
15972TIP3    H269408   1.808   0.241   0.395  0.9092 -0.0594 -0.9167
15973TIP3   OH269409   3.936   4.324  16.617  0.2214  0.1922  0.3326
15973TIP3    H169410   3.854   4.309  16.664  0.2254  1.1114  0.6361
15973TIP3    H269411   4.005   4.299  16.678  0.3071  3.0824  1.5555
15974TIP3   OH269412   1.236   0.812   3.903  0.1192 -0.3403 -0.3633
15974TIP3    H169413   1.158   0.845   3.947  0.7448 -2.0978  2.3142
15974TIP3    H269414   1.203   0.744   3.844 -0.4643 -0.5042  0.1399
15975TIP3   OH269415   6.776   6.138  16.917  0.5554 -0.3522 -0.1884
15975TIP3    H169416   6.855   6.125  16.969  1.0129 -1.6426 -1.1476
15975TIP3    H269417   6.746   6.226  16.940  2.1203  0.0577  0.3853
15976TIP3   OH269418   0.641   0.163   5.608  0.2444 -0.1399  0.3619
15976TIP3    H169419   0.726   0.126   5.584  0.6013  0.3085  0.9094
15976TIP3    H269420   0.658   0.256   5.624 -0.3771 -0.0124  0.3293
15977TIP3   OH269421   0.121   0.162   0.398  0.5473 -0.3160  0.0937
15977TIP3    H169422   0.169   0.079   0.395  1.0868  0.0123 -0.9424
15977TIP3    H269423   0.040   0.144   0.350  0.6417 -0.2580 -0.0877
15978TIP3   OH269424   2.932   3.852   3.769  0.3358 -0.4468  0.2329
15978TIP3    H169425   2.919   3.927   3.827  0.5499  0.2457 -0.5936
15978TIP3    H269426   2.844   3.829   3.740 -0.1142 -2.5800  2.9575
15979TIP3   OH269427   4.279   6.173  10.422 -0.4747 -0.7658 -0.0159
15979TIP3    H169428   4.298   6.184  10.515 -1.2033 -1.9944  0.2983
15979TIP3    H269429   4.364   6.178  10.380 -0.1721  0.1885  0.6605
15980TIP3   OH269430   1.058   0.783  13.880 -0.0043  0.5050 -0.7577
15980TIP3    H169431   1.121   0.720  13.914  1.0760  0.9728 -1.8016
15980TIP3    H269432   1.072   0.782  13.785 -0.3421  1.9027 -0.8438
15981TIP3   OH269433   3.463   5.425   5.128 -0.3002  0.2320 -0.4839
15981TIP3    H169434   3.398   5.417   5.197  0.4877  2.3053  0.5559
15981TIP3    H269435   3.425   5.487   5.066 -0.0458  0.0838 -0.7952
15982TIP3   OH269436   2.856   2.007  16.946 -0.1105 -0.0905  0.0396
15982TIP3    H169437   2.917   2.063  16.993 -2.2468  1.4026  1.1893
15982TIP3    H269438   2.871   1.920  16.982  0.3069  0.5210  1.3921
15983TIP3   OH269439   6.201   4.372   5.093  0.0250 -0.0453  0.5367
15983TIP3    H169440   6.205   4.342   5.002  0.2120  0.0299  0.5189
15983TIP3    H269441   6.290   4.401   5.112  0.4420 -1.7125  1.3066
15984TIP3   OH269442   6.645   1.296  11.467  0.2876 -0.7441  0.1760
15984TIP3    H169443   6.668   1.301  11.559  0.5438 -1.7300  0.1790
15984TIP3    H269444   6.727   1.274  11.423  0.3583  0.5603 -0.4068
15985TIP3   OH269445   1.690   1.438   6.795  0.0855  0.5078 -0.3534
15985TIP3    H169446   1.659   1.520   6.835 -1.8411 -1.0337  1.5271
15985TIP3    H269447   1.780   1.429   6.826  0.3516  1.9026 -0.6398
15986TIP3   OH269448   0.928   2.462  12.767 -0.3793  0.1250 -0.7391
15986TIP3    H169449   0.911   2.556  12.763  0.3618  0.4968  2.1753
15986TIP3    H269450   0.994   2.446  12.701  0.6165  1.9893 -0.2650
15987TIP3   OH269451   1.338   0.358  13.393 -1.1182  0.3836 -0.1926
15987TIP3    H169452   1.414   0.415  13.386 -0.2250 -0.7508 -0.1453
15987TIP3    H269453   1.266   0.409  13.357 -0.7972  2.2804  1.6707
15988TIP3   OH269454   0.229   1.144  16.313  0.4046  0.1052  0.0434
15988TIP3    H169455   0.222   1.120  16.221  0.3151  1.6133 -0.3742
15988TIP3    H269456   0.166   1.088  16.358 -0.8238  0.5524 -1.0702
15989TIP3   OH269457   0.517   0.015   5.408 -0.3941  0.8315  0.2557
15989TIP3    H169458   0.571   0.059   5.474 -0.1761  0.9964 -0.0291
15989TIP3    H269459   0.544   0.055   5.325  1.5007 -1.4345 -0.3306
15990TIP3   OH269460   4.921   4.208   3.248  0.4802  0.2380 -0.0200
15990TIP3    H169461   4.925   4.301   3.228  0.9912  0.2260  0.0194
15990TIP3    H269462   4.989   4.168   3.193  1.6552  0.1571  1.4362
15991TIP3   OH269463   5.064   4.247   0.768 -0.2087 -0.0150 -0.4472
15991TIP3    H169464   5.002   4.204   0.709 -1.9741  1.2242  0.4296
15991TIP3    H269465   5.069   4.337   0.738  0.5774  0.0920 -0.0320
15992TIP3   OH269466   1.866   0.927   4.272 -0.3606  0.1404 -0.3560
15992TIP3    H169467   1.877   0.871   4.195 -0.6651 -0.0573 -0.2594
15992TIP3    H269468   1.839   0.866   4.341 -0.6841  0.4025 -0.2486
15993TIP3   OH269469   3.870   2.174   4.293 -0.8331  0.0652  0.1853
15993TIP3    H169470   3.845   2.193   4.202  0.9832  1.2054 -0.1188
15993TIP3    H269471   3.815   2.233   4.345 -0.9106  0.3921 -0.2582
15994TIP3   OH269472   5.537   3.843   1.960  0.2775  0.0499  0.5170
15994TIP3    H169473   5.508   3.929   1.987 -0.8691 -0.5551  1.2803
15994TIP3    H269474   5.552   3.795   2.041  0.1156 -0.7287  0.1015
15995TIP3   OH269475   5.860   0.060  14.169  0.0989  0.2416 -0.1805
15995TIP3    H169476   5.906   0.140  14.196 -0.8479  0.9416 -0.5793
15995TIP3    H269477   5.828   0.022  14.251 -3.6462  2.8827 -0.1209
15996TIP3   OH269478   5.827   6.688  15.538  0.1142  0.2432  0.4090
15996TIP3    H169479   5.813   6.659  15.448  0.8980 -1.3287  0.7514
15996TIP3    H269480   5.890   6.760  15.531  1.1214 -0.6748 -0.2379
15997TIP3   OH269481   4.667   5.502  12.407  0.1404 -0.0863  0.4952
15997TIP3    H169482   4.661   5.486  12.313 -2.1526 -1.7140  0.8231
15997TIP3    H269483   4.760   5.514  12.423  0.6593 -0.3215 -1.8893
15998TIP3   OH269484   5.664   1.824  13.602  0.2093  0.5435 -0.0833
15998TIP3    H169485   5.579   1.787  13.624 -0.4977  2.4742  0.6553
15998TIP3    H269486   5.650   1.869  13.519  0.7057  0.2778 -0.3155
15999TIP3   OH269487   2.883   6.080  12.122  0.4371 -0.0893 -0.2953
15999TIP3    H169488   2.823   6.100  12.194  2.2049  1.5055  0.8199
15999TIP3    H269489   2.852   6.135  12.050 -0.6346 -0.8211 -0.4250
16000TIP3   OH269490   2.944   3.766  11.795  0.1907  0.8233 -0.6179
16000TIP3    H169491   2.859   3.741  11.831 -0.4151  2.3152 -0.9369
16000TIP3    H269492   2.989   3.808  11.867  0.2237  1.0096 -0.7478
16001TIP3   OH269493   0.780   1.962  11.320  0.5592  0.4134  0.0117
16001TIP3    H169494   0.686   1.983  11.317  0.6852  1.0878  0.4553
16001TIP3    H269495   0.799   1.926  11.234 -0.1184  0.2253 -0.0694
16002TIP3   OH269496   5.331   3.492  11.274  0.1256  0.5886 -0.3566
16002TIP3    H169497   5.322   3.425  11.342 -3.0398 -0.9646 -2.0791
16002TIP3    H269498   5.360   3.444  11.197  3.4375  2.2892 -0.3772
16003TIP3   OH269499   4.608   0.525  16.847  0.2328 -0.4361 -0.4742
16003TIP3    H169500   4.676   0.570  16.897 -1.4436  0.6038  0.9773
16003TIP3    H269501   4.629   0.543  16.755  1.5661  0.3461 -0.0371
16004TIP3   OH269502   4.418   4.843  12.904 -0.4121  0.6905  0.4029
16004TIP3    H169503   4.345   4.890  12.865  0.1609  0.9547 -0.3764
16004TIP3    H269504   4.391   4.827  12.994 -1.6307  0.3483 -0.0082
16005TIP3   OH269505   1.953   0.476  16.657  0.0113  0.0761 -0.1760
16005TIP3    H169506   1.914   0.470  16.744  4.0277  0.9383  1.9206
16005TIP3    H269507   1.887   0.521  16.604 -2.3025  0.1891  2.5790
16006TIP3   OH269508   5.747   3.800  16.910 -0.2076 -0.1324  0.1536
16006TIP3    H169509   5.817   3.861  16.885 -0.2228 -0.5429 -0.9712
16006TIP3    H269510   5.682   3.810  16.841 -0.4155 -1.0897  0.1978
16007TIP3   OH269511   2.415   3.641   5.572  0.1030  0.5199  0.6230
16007TIP3    H169512   2.489   3.681   5.527  0.5552 -0.0977  0.8054
16007TIP3    H269513   2.450   3.616   5.658 -1.0902  2.9860  1.9447
16008TIP3   OH269514   0.473   1.312  16.669  0.1124 -0.1337  0.9673
16008TIP3    H169515   0.411   1.254  16.713  1.1058 -0.4872  1.9272
16008TIP3    H269516   0.435   1.324  16.581 -0.5868 -1.4786  1.0521
16009TIP3   OH269517   5.492   4.787   6.200  0.4612 -0.3452 -0.3725
16009TIP3    H169518   5.422   4.801   6.136 -0.6029 -0.4548  0.7368
16009TIP3    H269519   5.505   4.693   6.202 -0.8726 -0.5318  0.9519
16010TIP3   OH269520   3.543   0.535  17.087  0.0670  0.0711 -0.2849
16010TIP3    H169521   3.507   0.612  17.130 -0.1932 -0.5088  0.5548
16010TIP3    H269522   3.493   0.526  17.006 -1.9154 -0.8778  0.9780
16011TIP3   OH269523   0.307   3.207   5.061  0.2699  0.8052 -0.2530
16011TIP3    H169524   0.361   3.249   5.128  0.0940  0.5570  0.0486
16011TIP3    H269525   0.302   3.116   5.088  0.1336  0.7196 -0.5654
16012TIP3   OH269526   1.505   4.132   2.389 -0.1518  0.0878  0.2127
16012TIP3    H169527   1.595   4.113   2.362 -0.4607 -2.3128  0.5992
16012TIP3    H269528   1.512   4.163   2.479  0.3300  0.4529  0.0510
16013TIP3   OH269529   0.206   0.182  14.747 -0.2469  0.0847 -0.6144
16013TIP3    H169530   0.114   0.154  14.742  0.1912 -1.7266  0.4874
16013TIP3    H269531   0.244   0.153  14.664 -0.4614  0.0687 -0.7093
16014TIP3   OH269532   1.073   5.627   2.483 -1.3491 -0.0190  0.4596
16014TIP3    H169533   0.997   5.591   2.437 -0.3393 -1.3124 -0.2888
16014TIP3    H269534   1.148   5.598   2.430 -0.2742  0.3138  1.7549
16015TIP3   OH269535   1.549   1.221  12.933  0.1315  0.1859  0.0385
16015TIP3    H169536   1.625   1.177  12.969  0.1809  0.3419  0.1260
16015TIP3    H269537   1.586   1.297  12.886 -0.0821  1.2544  1.5328
16016TIP3   OH269538   3.913   1.002   1.987  0.1368 -0.0520 -0.0174
16016TIP3    H169539   3.997   0.956   1.988  0.1459 -0.0808  1.7521
16016TIP3    H269540   3.929   1.081   2.038 -1.2764 -0.8042  1.7119
16017TIP3   OH269541   6.711   1.513   1.851 -0.0301  0.4291 -0.8160
16017TIP3    H169542   6.650   1.479   1.786  0.0439  1.1008 -1.2419
16017TIP3    H269543   6.778   1.559   1.800  0.7716 -0.1977 -0.3468
16018TIP3   OH269544   6.356   3.488  13.025 -0.2196 -0.0559 -0.0830
16018TIP3    H169545   6.432   3.528  12.983 -1.9463  2.3535 -1.0737
16018TIP3    H269546   6.306   3.449  12.953 -0.2832 -1.0834  0.4905
16019TIP3   OH269547   2.206   6.178   0.061  0.3355 -0.2629 -0.2541
16019TIP3    H169548   2.136   6.115   0.044 -0.1653  0.0415  0.6408
16019TIP3    H269549   2.214   6.180   0.156  0.6286  0.7148 -0.2916
16020TIP3   OH269550   2.953   4.219  14.821 -0.3585 -0.6186  0.2664
16020TIP3    H169551   2.886   4.276  14.858  0.7975 -0.0590  1.6035
16020TIP3    H269552   2.905   4.156  14.767 -1.9316 -0.2219  1.1534
16021TIP3   OH269553   5.447   1.592   1.249 -0.2337  0.2780  0.0788
16021TIP3    H169554   5.426   1.685   1.259  0.3064  0.3075  1.0942
16021TIP3    H269555   5.413   1.569   1.163 -0.0959  1.4970 -0.3289
16022TIP3   OH269556   1.210   1.328   2.990 -0.2588 -0.1825 -0.0783
16022TIP3    H169557   1.230   1.379   2.912 -2.3510  1.1211  0.1477
16022TIP3    H269558   1.272   1.360   3.056 -1.5363  2.1874  0.0631
16023TIP3   OH269559   3.512   4.050   6.108  0.5768  0.4110 -0.2121
16023TIP3    H169560   3.551   4.137   6.118  0.5274  0.4388 -0.2644
16023TIP3    H269561   3.562   3.995   6.168  1.0618  0.3285 -0.6841
16024TIP3   OH269562   1.156   1.460  13.266  0.7235  0.3303 -0.0817
16024TIP3    H169563   1.180   1.369  13.249 -1.0320 -0.0341 -0.8207
16024TIP3    H269564   1.239   1.507  13.263  1.6907 -1.2503  0.4636
16025TIP3   OH269565   3.826   4.738  16.728  0.1654  0.2307 -0.7014
16025TIP3    H169566   3.757   4.672  16.729 -0.3016  0.7146 -0.8858
16025TIP3    H269567   3.819   4.781  16.813  1.6798 -1.1787  0.2089
16026TIP3   OH269568   0.192   3.119  15.282 -0.4956  0.7450 -0.9583
16026TIP3    H169569   0.240   3.070  15.349  0.2691 -1.1012 -2.7090
16026TIP3    H269570   0.137   3.180  15.330  0.9525  0.4012  1.2701
16027TIP3   OH269571   4.993   1.460   5.740 -0.1324 -1.0839  0.3313
16027TIP3    H169572   5.083   1.491   5.727  0.4829 -1.9773  2.0868
16027TIP3    H269573   4.947   1.536   5.774  0.4786 -1.1074  1.2628
16028TIP3   OH269574   4.988   4.805  14.879 -0.1598 -0.9340  0.1950
16028TIP3    H169575   5.058   4.750  14.845  0.3503  0.1780 -0.6424
16028TIP3    H269576   5.029   4.857  14.948 -0.0971 -0.1390 -0.4327
16029TIP3   OH269577   5.288   4.588   1.088  0.2970 -0.6056 -0.0047
16029TIP3    H169578   5.207   4.632   1.062  0.5806 -0.4043 -0.5465
16029TIP3    H269579   5.353   4.658   1.093  0.2754 -0.6479  1.1498
16030TIP3   OH269580   1.988   0.325   1.915 -0.3119  0.2162 -0.6221
16030TIP3    H169581   2.021   0.326   1.825 -1.7721  0.7548 -1.1891
16030TIP3    H269582   1.995   0.416   1.945  0.4724 -0.0202 -0.0589
16031TIP3   OH269583   5.137   5.003   0.942 -0.3889  0.2208 -0.0271
16031TIP3    H169584   5.115   4.965   1.027 -0.7294 -1.2263 -0.7168
16031TIP3    H269585   5.096   4.944   0.878  0.3672  0.9194 -1.2074
16032TIP3   OH269586   1.379   1.407  11.312 -0.9679  0.1642  0.1888
16032TIP3    H169587   1.435   1.468  11.359 -1.8912  0.6937  0.6404
16032TIP3    H269588   1.430   1.326  11.307 -0.3582  0.4836  0.9997
16033TIP3   OH269589   1.206   6.705  15.304 -0.0399  0.6310 -0.2370
16033TIP3    H169590   1.290   6.660  15.293 -0.2536  0.4914 -1.3561
16033TIP3    H269591   1.225   6.776  15.365  0.7214  0.1539  0.0970
16034TIP3   OH269592   0.590   3.449   3.512 -0.7565  0.0477  0.1952
16034TIP3    H169593   0.571   3.500   3.590  0.2597  0.4620  0.1842
16034TIP3    H269594   0.671   3.486   3.478  0.3709 -1.9488  0.5328
16035TIP3   OH269595   5.514   3.413   5.651 -0.1495 -0.7422  0.5914
16035TIP3    H169596   5.445   3.356   5.617 -0.7176  0.3848 -0.1942
16035TIP3    H269597   5.467   3.484   5.695  0.5247 -0.3140  0.6314
16036TIP3   OH269598   0.647   6.474  14.068 -0.3446 -0.7898 -0.0423
16036TIP3    H169599   0.558   6.506  14.085 -0.3441 -0.5772 -0.4313
16036TIP3    H269600   0.643   6.440  13.979 -0.4794 -2.3701  0.5366
16037TIP3   OH269601   5.146   4.079   6.182 -0.0877  0.2110  0.1172
16037TIP3    H169602   5.161   4.158   6.234  0.4307  0.2368 -0.0611
16037TIP3    H269603   5.116   4.112   6.097 -0.7937  0.1749  0.3475
16038TIP3   OH269604   2.532   2.705  13.751 -0.0623 -0.3567  0.3967
16038TIP3    H169605   2.502   2.616  13.731  3.5162 -1.9100  1.2006
16038TIP3    H269606   2.524   2.713  13.846 -0.4172  0.2182  0.3222
16039TIP3   OH269607   0.083   5.121   0.016  0.0056  0.0993  0.3042
16039TIP3    H169608   0.088   5.124   0.111  1.0988  0.5359  0.2375
16039TIP3    H269609   0.006   5.066  -0.002 -0.7169  0.7144  1.4272
16040TIP3   OH269610   1.589   0.568   6.018 -0.0986 -0.2119 -0.0929
16040TIP3    H169611   1.605   0.590   6.110 -2.8975 -1.6590  0.8570
16040TIP3    H269612   1.505   0.609   5.998  0.3054 -0.2124 -1.9281
16041TIP3   OH269613   2.821   5.487  14.729 -0.3026 -0.0218 -0.1018
16041TIP3    H169614   2.740   5.516  14.686  0.1695 -0.3652 -1.2594
16041TIP3    H269615   2.860   5.567  14.763 -0.3667  0.3688 -0.9053
16042TIP3   OH269616   4.299   1.210   0.292  0.5279 -0.1775 -0.2158
16042TIP3    H169617   4.246   1.131   0.299  0.1664  0.1337  0.7124
16042TIP3    H269618   4.355   1.209   0.370 -1.1061  1.6150  1.0802
16043TIP3   OH269619   2.932   2.851  12.652  0.0897 -0.2221 -0.5342
16043TIP3    H169620   2.917   2.939  12.619 -0.7066 -0.4401 -0.7564
16043TIP3    H269621   2.921   2.859  12.747  0.5382  0.0180 -0.4999
16044TIP3   OH269622   3.597   4.454   0.974 -0.3638  0.3743  0.6129
16044TIP3    H169623   3.527   4.495   1.025 -0.8900 -1.3754  1.3567
16044TIP3    H269624   3.577   4.360   0.976  0.2069  0.1197 -1.9220
16045TIP3   OH269625   3.768   6.379   3.214 -0.0579 -0.2255  0.3531
16045TIP3    H169626   3.733   6.333   3.290  0.7418  2.0967  2.2490
16045TIP3    H269627   3.690   6.410   3.167 -0.5772 -0.4640  1.0382
16046TIP3   OH269628   5.580   6.583  11.506 -0.7250 -0.1899  0.0144
16046TIP3    H169629   5.532   6.604  11.427  1.7749  1.9824 -1.0965
16046TIP3    H269630   5.541   6.639  11.574 -1.8174 -0.8596 -0.0459
16047TIP3   OH269631   4.994   0.178  12.194 -0.2962 -0.0610  0.4439
16047TIP3    H169632   5.032   0.232  12.264 -0.3751 -1.6096  1.7423
16047TIP3    H269633   4.952   0.105  12.240 -1.0185 -0.7373 -1.1985
16048TIP3   OH269634   2.724   1.332   0.417 -0.3401 -0.4584 -0.5806
16048TIP3    H169635   2.710   1.243   0.448 -0.3288 -0.2967 -0.1001
16048TIP3    H269636   2.764   1.378   0.491  0.1140 -0.1808 -0.9869
16049TIP3   OH269637   6.416   6.022   5.197 -0.2369 -0.4003  0.0054
16049TIP3    H169638   6.423   6.085   5.269 -0.2476 -1.0588  0.5949
16049TIP3    H269639   6.483   6.049   5.135 -2.0777  1.8928 -1.1150
16050TIP3   OH269640   4.809   5.398  16.127 -0.1821  0.0017  0.2304
16050TIP3    H169641   4.767   5.396  16.213 -2.2028  3.1167 -0.5387
16050TIP3    H269642   4.796   5.309  16.093 -3.9987  0.0464  1.1243
16051TIP3   OH269643   0.454   3.071  14.507  0.1348 -0.4279 -0.4075
16051TIP3    H169644   0.380   3.111  14.462  1.2500 -0.1745 -2.1326
16051TIP3    H269645   0.459   3.117  14.591 -0.4186  0.9729 -1.1171
16052TIP3   OH269646   4.471   1.470  10.596  0.0451  0.5035 -0.0190
16052TIP3    H169647   4.449   1.551  10.641  0.4570  0.8666 -0.4528
16052TIP3    H269648   4.388   1.438  10.562  0.0153  1.3020 -0.7388
16053TIP3   OH269649   3.863   2.532  15.454  0.4467 -0.3646  0.0352
16053TIP3    H169650   3.928   2.598  15.429  0.5070 -0.7055 -0.7608
16053TIP3    H269651   3.821   2.508  15.371 -0.6698 -0.1862  0.5364
16054TIP3   OH269652   6.452   6.706  16.538 -0.2043 -0.0223  0.2320
16054TIP3    H169653   6.409   6.787  16.566 -3.0180 -0.2657 -2.7719
16054TIP3    H269654   6.397   6.636  16.574 -2.6398 -0.3366 -3.4890
16055TIP3   OH269655   3.929   6.614   3.238  0.2955  0.1908  0.0772
16055TIP3    H169656   3.900   6.524   3.255 -0.1805  0.7199  2.2944
16055TIP3    H269657   3.890   6.636   3.154  0.1302 -1.5457 -0.3368
16056TIP3   OH269658   3.215   4.141  17.010  0.5126 -0.4529  0.4480
16056TIP3    H169659   3.195   4.181  16.925  1.4365 -0.4141  0.2405
16056TIP3    H269660   3.292   4.086  16.994  0.3745 -0.8629  1.1451
16057TIP3   OH269661   0.756   6.458   5.362  0.2066 -0.0047 -0.0901
16057TIP3    H169662   0.781   6.374   5.399 -1.8032 -0.1721  1.0793
16057TIP3    H269663   0.698   6.436   5.289  1.1097  0.3626 -0.9272
16058TIP3   OH269664   6.296   2.842   2.438 -0.2415  0.5691 -0.0025
16058TIP3    H169665   6.345   2.922   2.422  0.5104  0.1714  0.2765
16058TIP3    H269666   6.259   2.819   2.353 -0.6034  1.2967 -0.0481
16059TIP3   OH269667   2.924   3.131   0.173 -0.3971  0.3501 -0.2633
16059TIP3    H169668   2.991   3.131   0.105  0.4162  1.1150  0.5071
16059TIP3    H269669   2.847   3.170   0.132 -0.0482  0.4265 -0.8509
16060TIP3   OH269670   3.592   4.858   2.330 -0.2898 -0.0564  0.1092
16060TIP3    H169671   3.606   4.877   2.237 -0.1209 -2.3805 -0.4103
16060TIP3    H269672   3.510   4.903   2.352  1.2591  3.1845 -0.2399
16061TIP3   OH269673   5.219   4.365  15.433  0.5878  0.3220  0.0849
16061TIP3    H169674   5.175   4.374  15.348 -0.8690 -0.7331  0.6852
16061TIP3    H269675   5.218   4.453  15.470 -1.8699  0.2147  0.4417
16062TIP3   OH269676   1.011   3.498   4.156 -0.6143  0.6532 -0.6698
16062TIP3    H169677   1.057   3.571   4.113 -2.7391  2.3011 -0.3406
16062TIP3    H269678   0.962   3.457   4.085 -0.0533  0.0486 -0.7099
16063TIP3   OH269679   3.210   6.819  10.599 -0.5246  0.4006  0.5692
16063TIP3    H169680   3.177   6.732  10.576 -0.9652  0.0663  2.2980
16063TIP3    H269681   3.210   6.820  10.695  1.6003  1.5084  0.6267
16064TIP3   OH269682   0.647   3.609   2.435  0.2608  0.3703  0.0469
16064TIP3    H169683   0.700   3.619   2.513  0.9864  0.5013 -0.4536
16064TIP3    H269684   0.697   3.651   2.365 -1.2409  1.9709 -0.1435
16065TIP3   OH269685   3.944   5.158   2.827  0.3206 -0.0908 -0.2593
16065TIP3    H169686   3.924   5.251   2.828 -1.4458 -0.4310  0.2298
16065TIP3    H269687   4.038   5.153   2.813  0.8029  1.8113  1.8469
16066TIP3   OH269688   1.471   4.822  12.577 -0.5375  0.0895 -0.4628
16066TIP3    H169689   1.489   4.803  12.670  0.5797 -1.8017 -1.0193
16066TIP3    H269690   1.443   4.738  12.540 -1.9096  1.0339 -1.6562
16067TIP3   OH269691   3.934   0.786   1.097  0.0880 -0.0453  0.3688
16067TIP3    H169692   3.988   0.769   1.020  2.2597  0.5430  1.6500
16067TIP3    H269693   3.926   0.700   1.139 -1.6484 -0.4898 -0.7845
16068TIP3   OH269694   3.166   6.184   1.649  0.0243  0.6014  0.0249
16068TIP3    H169695   3.114   6.112   1.616 -0.8634  1.3438 -0.2402
16068TIP3    H269696   3.114   6.221   1.720  0.4584  0.9874  0.1463
16069TIP3   OH269697   4.224   0.683  11.922 -0.2599  0.5034  0.2599
16069TIP3    H169698   4.138   0.681  11.880  0.0196  1.0760 -0.3568
16069TIP3    H269699   4.208   0.652  12.011 -0.9002 -0.5144 -0.1922
16070TIP3   OH269700   1.856   0.460   5.962 -0.3284 -0.2465  0.2197
16070TIP3    H169701   1.764   0.467   5.988 -0.3932  0.1485 -0.1171
16070TIP3    H269702   1.904   0.495   6.037 -0.5205  0.9750 -0.2001
16071TIP3   OH269703   0.008   2.501   4.762 -0.1079  0.6011 -0.3087
16071TIP3    H169704  -0.022   2.414   4.785 -1.8272  0.7720 -1.7100
16071TIP3    H269705   0.072   2.523   4.830 -1.6180 -0.6484  1.6211
16072TIP3   OH269706   6.755   4.051   3.188 -0.3496  0.3763 -0.8870
16072TIP3    H169707   6.771   4.029   3.096 -3.6593 -0.1956 -1.4347
16072TIP3    H269708   6.722   4.140   3.186  2.9284  1.7887  0.2661
16073TIP3   OH269709   3.706   6.019  14.677  0.2815 -0.2473  0.1501
16073TIP3    H169710   3.697   6.115  14.673 -0.0683 -0.2852 -0.0341
16073TIP3    H269711   3.790   6.005  14.720  0.3932  0.1443  0.0697
16074TIP3   OH269712   2.892   3.797  11.511  0.0078  0.6397 -0.1637
16074TIP3    H169713   2.902   3.796  11.606  1.1522 -0.9718 -0.2659
16074TIP3    H269714   2.802   3.827  11.497 -1.3198 -2.1024  1.5864
16075TIP3   OH269715   3.467   6.223  16.492  0.1094  0.4405 -0.1868
16075TIP3    H169716   3.562   6.229  16.495  0.1021  0.4936 -0.0375
16075TIP3    H269717   3.439   6.238  16.582 -0.0405  0.4164 -0.2287
16076TIP3   OH269718   2.015   4.157  11.721  0.4609  0.5951  0.0727
16076TIP3    H169719   1.981   4.113  11.799  0.9639  0.2707  0.1126
16076TIP3    H269720   2.098   4.112  11.702  0.3669  0.7032 -0.6166
16077TIP3   OH269721   4.510   0.876   2.235  0.0371  0.2269 -0.4810
16077TIP3    H169722   4.459   0.795   2.233 -0.3143  0.3650  1.2505
16077TIP3    H269723   4.592   0.854   2.191  0.2954 -1.3457  0.6897
16078TIP3   OH269724   5.074   1.875   2.245 -0.1713  0.3414 -0.0892
16078TIP3    H169725   4.980   1.878   2.267  0.2443 -1.0753  2.2565
16078TIP3    H269726   5.114   1.942   2.301  0.5536 -1.2523  1.3980
16079TIP3   OH269727   4.433   0.703   6.101 -0.6400  0.3076  0.1033
16079TIP3    H169728   4.445   0.718   6.195  3.5051 -0.9450 -0.0427
16079TIP3    H269729   4.474   0.779   6.060  0.9549 -0.8679 -0.5920
16080TIP3   OH269730   2.928   1.379  13.260 -0.0369 -0.5235 -0.3100
16080TIP3    H169731   2.885   1.295  13.247 -1.8608  0.4600 -1.0273
16080TIP3    H269732   2.875   1.424  13.325  1.2907 -0.1499  0.5625
16081TIP3   OH269733   4.234   5.096  10.341  0.3900  0.3405 -0.5491
16081TIP3    H169734   4.246   5.191  10.331  1.4532  0.0644 -2.3582
16081TIP3    H269735   4.235   5.081  10.435 -0.7974  2.2362 -0.1699
16082TIP3   OH269736   2.510   1.753  17.141  0.1779  1.0257  0.6673
16082TIP3    H169737   2.568   1.719  17.209 -1.4566 -0.0959  1.5305
16082TIP3    H269738   2.545   1.716  17.060  0.5788  0.2337  1.1892
16083TIP3   OH269739   0.396   0.485  13.483 -0.2465  0.2336  0.0335
16083TIP3    H169740   0.436   0.566  13.516 -0.3517 -0.4028  1.8298
16083TIP3    H269741   0.305   0.489  13.515 -1.0002  0.5760 -2.0346
16084TIP3   OH269742   5.736   3.506  12.019 -0.0243 -0.4532 -0.2977
16084TIP3    H169743   5.700   3.458  12.094 -0.3938 -0.0070 -0.1856
16084TIP3    H269744   5.774   3.585  12.056 -1.2835  0.3739 -0.6874
16085TIP3   OH269745   3.248   0.777   6.101 -0.2198  0.4271 -0.6777
16085TIP3    H169746   3.340   0.787   6.128  0.2707 -2.8399 -0.6538
16085TIP3    H269747   3.253   0.759   6.007 -1.1174  2.5765 -1.1875
16086TIP3   OH269748   6.807   3.833  13.100 -0.5597 -0.7883 -0.1620
16086TIP3    H169749   6.852   3.781  13.034  0.1644  1.1892 -1.2942
16086TIP3    H269750   6.837   3.797  13.184 -0.7446 -2.6988 -0.8479
16087TIP3   OH269751   1.986   6.035   3.859 -0.3319 -0.0126 -0.0506
16087TIP3    H169752   1.908   6.033   3.803 -0.8879 -1.8459  0.7280
16087TIP3    H269753   2.036   5.958   3.834  1.8792  1.7102 -1.3140
16088TIP3   OH269754   5.539   3.473  13.366  0.5937 -0.2918  0.0874
16088TIP3    H169755   5.578   3.439  13.447  0.8671 -0.6391 -0.1835
16088TIP3    H269756   5.472   3.408  13.344  0.9652 -0.5496 -0.3109
16089TIP3   OH269757   5.350   1.979   5.349 -0.4219 -0.1439 -0.8296
16089TIP3    H169758   5.401   1.904   5.319 -1.7721 -0.5396 -2.3374
16089TIP3    H269759   5.389   2.054   5.305  0.3854 -0.0732 -0.0106
16090TIP3   OH269760   1.121   3.324   3.553 -0.0143  0.4883  0.0011
16090TIP3    H169761   1.211   3.322   3.522 -0.7813 -0.2493 -2.3826
16090TIP3    H269762   1.115   3.404   3.606  1.8845  0.8207 -0.2337
16091TIP3   OH269763   6.091   6.711   0.546  0.3618  0.4888  0.3592
16091TIP3    H169764   6.094   6.625   0.504 -0.9112  0.1719  0.8544
16091TIP3    H269765   6.169   6.756   0.515 -0.4526  0.2441 -2.2567
16092TIP3   OH269766   0.572   5.230  12.318  0.4908  0.1374 -0.9497
16092TIP3    H169767   0.549   5.166  12.251 -1.0537 -1.4721  1.0018
16092TIP3    H269768   0.643   5.189  12.367 -0.5225 -0.1440  0.3286
16093TIP3   OH269769   6.210   6.746   0.877 -0.0594  0.1585  0.0972
16093TIP3    H169770   6.183   6.695   0.801 -0.0099  0.5290 -0.1735
16093TIP3    H269771   6.240   6.830   0.840  0.0087  0.3232  0.5196
16094TIP3   OH269772   5.877   1.933   6.048  0.6955  0.4589 -0.4289
16094TIP3    H169773   5.941   1.904   6.113  0.5971 -0.6609 -0.7982
16094TIP3    H269774   5.899   2.025   6.032  1.3144  0.4848  0.4826
16095TIP3   OH269775   5.334   5.748  11.351 -0.3102  0.0588  0.4591
16095TIP3    H169776   5.362   5.742  11.442  1.8077 -0.7914 -0.1902
16095TIP3    H269777   5.414   5.739  11.300 -1.1434  2.4887 -1.4954
16096TIP3   OH269778   6.232   6.664  15.301  0.6896 -0.1790 -0.6411
16096TIP3    H169779   6.148   6.711  15.294  0.7574  0.0043 -0.2649
16096TIP3    H269780   6.225   6.616  15.384  0.4182 -1.2460 -1.2708
16097TIP3   OH269781   2.794   4.638  11.661 -0.0285  0.3643  0.4231
16097TIP3    H169782   2.757   4.725  11.648 -1.0707 -0.1135  0.0213
16097TIP3    H269783   2.818   4.609  11.573 -1.8915 -0.6625  0.1909
16098TIP3   OH269784   4.599   2.192  15.645 -0.0110  0.1824 -0.4944
16098TIP3    H169785   4.594   2.270  15.589  0.4723  0.0590 -0.7177
16098TIP3    H269786   4.546   2.127  15.599  0.7994 -0.0806 -1.0964
16099TIP3   OH269787   2.038   0.683  15.086  0.0237  0.4587  0.1244
16099TIP3    H169788   2.044   0.774  15.059 -0.6880  0.4899  0.0717
16099TIP3    H269789   1.998   0.638  15.012  0.9417 -0.0201 -0.1050
16100TIP3   OH269790   3.451   2.444   1.094 -0.6156  0.5474  0.4676
16100TIP3    H169791   3.399   2.369   1.124 -0.4984  0.8853  1.5573
16100TIP3    H269792   3.426   2.455   1.002 -1.2853 -0.2856  0.5356
16101TIP3   OH269793   2.512   1.940   3.959 -0.0408  0.6451  0.1842
16101TIP3    H169794   2.575   1.869   3.962  1.1460  1.5641 -1.2517
16101TIP3    H269795   2.562   2.018   3.984 -1.1837  1.0762  1.2336
16102TIP3   OH269796   2.001   0.075  11.811 -0.2991  0.1853 -0.0917
16102TIP3    H169797   2.094   0.053  11.817 -0.5588 -0.6446  1.2115
16102TIP3    H269798   1.995   0.163  11.850  0.3344  1.5680 -2.8699
16103TIP3   OH269799   4.649   3.931  12.841  0.1398 -0.2214 -0.1632
16103TIP3    H169800   4.570   3.919  12.894  0.1243  2.7812  0.7100
16103TIP3    H269801   4.624   3.995  12.775  1.2949 -0.8055 -1.1991
16104TIP3   OH269802   1.260   2.501  13.883  0.1535  0.5839 -0.1021
16104TIP3    H169803   1.286   2.419  13.925  0.2961  0.3816 -0.5732
16104TIP3    H269804   1.180   2.527  13.929 -0.6581 -0.5309 -0.8254
16105TIP3   OH269805   1.691   2.605   4.548  0.3706 -0.5769  0.1648
16105TIP3    H169806   1.648   2.601   4.633  1.7858 -0.2317  0.9328
16105TIP3    H269807   1.754   2.678   4.556  1.2372 -1.1845 -0.8148
16106TIP3   OH269808   6.169   4.142  14.236  0.1121 -0.5718 -0.2614
16106TIP3    H169809   6.141   4.232  14.224  0.3652 -0.6349 -1.4017
16106TIP3    H269810   6.131   4.095  14.162 -0.3371 -1.4856  0.5202
16107TIP3   OH269811   5.672   0.102   2.316 -0.0343  0.2049  0.4047
16107TIP3    H169812   5.751   0.048   2.312  1.0755  1.8529 -2.1221
16107TIP3    H269813   5.600   0.039   2.314  1.1443 -1.2916  1.7614
16108TIP3   OH269814   1.542   1.163   0.043 -0.3290 -0.4346  0.5261
16108TIP3    H169815   1.508   1.155  -0.047 -0.0117 -0.3646  0.4008
16108TIP3    H269816   1.635   1.144   0.035 -0.2963 -0.4014  0.8395
16109TIP3   OH269817   3.593   3.324  16.199  0.3019 -0.0393 -0.9715
16109TIP3    H169818   3.579   3.321  16.293 -0.0871 -2.1172 -1.0500
16109TIP3    H269819   3.624   3.413  16.182 -0.1036  0.5303  1.0310
16110TIP3   OH269820   3.211   3.326  14.422  0.2109 -0.1022  0.2172
16110TIP3    H169821   3.270   3.388  14.380 -0.3756  0.4712  0.2322
16110TIP3    H269822   3.246   3.240  14.398  0.8005  0.2236 -0.1254
16111TIP3   OH269823   2.406   2.465   4.073  0.0089  0.1683  0.4009
16111TIP3    H169824   2.425   2.413   4.152  1.1982 -2.3413 -1.3918
16111TIP3    H269825   2.481   2.449   4.016 -1.0772  1.4479 -1.4837
16112TIP3   OH269826   0.224   1.818  11.050  0.0341  0.4417 -0.2803
16112TIP3    H169827   0.250   1.902  11.012  0.9638  0.6912  0.8672
16112TIP3    H269828   0.263   1.818  11.137 -1.6129 -0.3393  0.4890
16113TIP3   OH269829   6.795   0.515   3.192 -0.1524 -0.3505  0.5281
16113TIP3    H169830   6.762   0.442   3.140  0.5008 -0.9106  0.8870
16113TIP3    H269831   6.874   0.481   3.235  0.9312  0.9475 -0.3316
16114TIP3   OH269832   2.030   6.651  13.828 -0.3825  0.1963 -0.4027
16114TIP3    H169833   1.986   6.567  13.815  0.3826 -0.6380  1.8822
16114TIP3    H269834   1.989   6.687  13.907  0.9821  0.7718  0.0745
16115TIP3   OH269835   6.761   0.327   2.936 -0.0734  0.2949 -0.1044
16115TIP3    H169836   6.666   0.340   2.943  0.1503  1.7764  0.6692
16115TIP3    H269837   6.771   0.235   2.912 -1.7657  0.5721 -2.1364
16116TIP3   OH269838   3.387   5.631  13.859 -0.1934  0.0481 -0.3279
16116TIP3    H169839   3.353   5.701  13.915  0.5871  0.2695 -0.1202
16116TIP3    H269840   3.341   5.642  13.776 -1.6121 -0.4811  0.3552
16117TIP3   OH269841   4.420   3.146   6.498  0.6085  0.3399 -0.0867
16117TIP3    H169842   4.499   3.095   6.516  0.8268  0.4481 -0.7099
16117TIP3    H269843   4.349   3.083   6.504  0.6939  0.3128  0.8441
16118TIP3   OH269844   4.270   5.363   0.203 -0.1739 -0.7198  0.1818
16118TIP3    H169845   4.272   5.382   0.296 -0.8154  0.1439  0.0290
16118TIP3    H269846   4.324   5.284   0.193  0.8798 -0.1424  1.1159
16119TIP3   OH269847   4.075   1.419  10.854 -0.0242  0.6047 -0.0917
16119TIP3    H169848   4.170   1.428  10.861 -0.0353  0.6170  0.0610
16119TIP3    H269849   4.049   1.375  10.935 -0.0608 -0.1089 -0.4809
16120TIP3   OH269850   0.956   3.909  12.092 -0.0993  0.0018  0.5280
16120TIP3    H169851   0.965   3.985  12.033  1.5577 -1.6998 -1.5975
16120TIP3    H269852   1.035   3.911  12.146  1.7520 -1.9110 -1.8549
16121TIP3   OH269853   5.561   1.301   1.966  0.2362  0.0835 -0.1870
16121TIP3    H169854   5.626   1.259   2.023  0.5942  1.9419  0.8454
16121TIP3    H269855   5.567   1.394   1.986 -1.0145  0.5925 -1.8969
16122TIP3   OH269856   5.210   1.121  16.379 -0.4489  0.0172  0.1949
16122TIP3    H169857   5.188   1.032  16.351 -0.7085  0.2532 -0.3524
16122TIP3    H269858   5.207   1.173  16.299  0.5383  0.3628  0.3718
16123TIP3   OH269859   1.855   0.695  16.292 -0.4039 -0.0587  0.4021
16123TIP3    H169860   1.911   0.744  16.353 -0.6737  0.1207  0.5089
16123TIP3    H269861   1.769   0.736  16.301 -0.1368  0.9544 -1.1989
16124TIP3   OH269862   0.881   3.043  14.199 -0.4102  0.0183 -0.0923
16124TIP3    H169863   0.859   3.080  14.284 -1.4694  0.0495 -0.3710
16124TIP3    H269864   0.977   3.036  14.200 -0.1452  2.7726 -0.0362
16125TIP3   OH269865   4.809   6.370  11.908 -0.1441 -0.3450  0.3775
16125TIP3    H169866   4.806   6.398  11.816  0.6106  0.0186  0.4570
16125TIP3    H269867   4.824   6.450  11.957 -0.4331 -0.5567  0.8197
16126TIP3   OH269868   1.537   4.236  17.124  0.1669 -0.0102 -0.3291
16126TIP3    H169869   1.560   4.196  17.208 -0.5180 -1.1099 -0.6490
16126TIP3    H269870   1.551   4.330  17.138  3.5993 -0.4451 -0.1300
16127TIP3   OH269871   4.575   6.158  11.084  0.1048 -0.2037 -0.3721
16127TIP3    H169872   4.569   6.127  10.993  0.8562 -2.8659  0.4142
16127TIP3    H269873   4.495   6.208  11.097 -0.1684 -0.0023 -2.4024
16128TIP3   OH269874   2.836   3.086   1.459  0.1557  0.6608 -0.1589
16128TIP3    H169875   2.773   3.058   1.392  0.3600  1.2487 -0.6014
16128TIP3    H269876   2.921   3.073   1.419  0.2642  1.5405 -0.2272
16129TIP3   OH269877   2.564   5.712  11.836 -0.0664  0.1026 -0.5644
16129TIP3    H169878   2.598   5.623  11.825 -0.7174 -0.3167  0.6262
16129TIP3    H269879   2.605   5.744  11.916 -1.7874 -0.1143  0.4490
16130TIP3   OH269880   4.826   2.562   3.250 -0.0772 -0.4785 -0.3656
16130TIP3    H169881   4.805   2.639   3.198 -2.6083 -1.2508 -0.6525
16130TIP3    H269882   4.822   2.592   3.341  0.5878  0.0557 -0.5043
16131TIP3   OH269883   2.442   4.113   5.376  0.1173 -0.0567 -0.2593
16131TIP3    H169884   2.526   4.069   5.388  0.3754  0.8323  1.5392
16131TIP3    H269885   2.377   4.045   5.393  0.4293 -0.8436 -2.0180
16132TIP3   OH269886   0.018   0.682   2.104  0.5905  0.0868 -0.0501
16132TIP3    H169887   0.048   0.733   2.030  0.0052  0.5670  0.0414
16132TIP3    H269888  -0.061   0.726   2.134  0.0405 -0.8925 -0.0012
16133TIP3   OH269889   6.556   3.775   3.414 -0.6832 -0.1596 -0.4287
16133TIP3    H169890   6.476   3.749   3.459 -0.7731 -1.1482 -1.1148
16133TIP3    H269891   6.627   3.755   3.475 -0.7881 -1.6791 -0.7719
16134TIP3   OH269892   1.916   5.352  11.410 -0.1549 -0.0176 -0.1090
16134TIP3    H169893   1.954   5.265  11.415  2.4281  0.9703 -0.7045
16134TIP3    H269894   1.900   5.366  11.316  0.4307  0.5152 -0.1367
16135TIP3   OH269895   0.228   6.422  12.367  0.5736 -0.7017  0.0340
16135TIP3    H169896   0.251   6.456  12.281 -3.4000 -0.6519 -1.2544
16135TIP3    H269897   0.279   6.341  12.375  2.5874  0.3445 -1.4014
16136TIP3   OH269898   3.231   5.186   1.430  1.2077  0.0724 -0.0656
16136TIP3    H169899   3.209   5.162   1.339 -0.2333 -0.7521  0.4719
16136TIP3    H269900   3.183   5.267   1.446  0.8159 -0.2175  0.2218
16137TIP3   OH269901   4.857   6.758   3.317 -0.0271 -0.1808  0.1631
16137TIP3    H169902   4.906   6.720   3.390  0.4185 -1.7396 -0.8787
16137TIP3    H269903   4.790   6.692   3.297  0.4442 -0.2267 -1.3974
16138TIP3   OH269904   5.849   4.964   4.723 -0.0689  0.6009  0.0690
16138TIP3    H169905   5.905   4.908   4.777 -0.0028  0.6689  0.0710
16138TIP3    H269906   5.895   5.048   4.718 -0.0344  0.5692 -0.1634
16139TIP3   OH269907   3.492   0.000   5.787 -0.1346 -0.8966  0.1765
16139TIP3    H169908   3.458  -0.013   5.876  1.7176 -1.0192  0.9051
16139TIP3    H269909   3.444  -0.063   5.733 -1.9210 -0.2132  0.8957
16140TIP3   OH269910   5.712   3.591  10.529  0.1370 -0.5443 -0.1164
16140TIP3    H169911   5.727   3.672  10.577  0.1633  1.7099 -3.5792
16140TIP3    H269912   5.799   3.562  10.502 -0.0008 -0.6767 -0.4334
16141TIP3   OH269913   3.289   1.402   0.379  0.1528  0.3316 -0.0663
16141TIP3    H169914   3.345   1.453   0.437 -1.3040  1.7598  0.1661
16141TIP3    H269915   3.334   1.404   0.295  0.7965  0.8505  0.2746
16142TIP3   OH269916   2.406   0.412   0.726  0.1505 -0.4874  0.3687
16142TIP3    H169917   2.346   0.348   0.688 -0.3808 -0.2864  0.8637
16142TIP3    H269918   2.493   0.380   0.701 -0.1409  1.0755 -3.4420
16143TIP3   OH269919   0.394   6.466   6.378  0.1322 -0.0230  0.4283
16143TIP3    H169920   0.437   6.381   6.390  0.2962  0.1571  1.1363
16143TIP3    H269921   0.451   6.528   6.422 -2.0279 -0.0777  3.6012
16144TIP3   OH269922   1.044   1.143   1.990 -0.4921 -0.2470 -0.2676
16144TIP3    H169923   1.120   1.107   1.944 -0.6370 -0.2942 -0.4749
16144TIP3    H269924   0.985   1.172   1.920 -0.4081  0.3384 -0.1077
16145TIP3   OH269925   1.413   6.485  11.401  0.2702 -0.8287  0.2575
16145TIP3    H169926   1.341   6.547  11.388  2.1339  1.2817 -0.5572
16145TIP3    H269927   1.406   6.424  11.328  0.5179  0.6536 -1.0541
16146TIP3   OH269928   1.330   5.558   2.609 -0.0920  0.0025 -0.0549
16146TIP3    H169929   1.320   5.520   2.522  0.4118  1.8909 -0.9812
16146TIP3    H269930   1.269   5.508   2.664 -1.0292 -0.6848 -1.6506
16147TIP3   OH269931   0.098   3.113  14.604 -0.0392  0.3409 -0.5915
16147TIP3    H169932   0.162   3.164  14.653  1.7977 -0.7595 -1.7347
16147TIP3    H269933   0.082   3.036  14.659  1.7331 -0.7035 -1.4242
16148TIP3   OH269934   5.331   0.968  14.239  0.5647  0.4878  0.2921
16148TIP3    H169935   5.333   0.938  14.148 -1.2659 -0.7657  0.6124
16148TIP3    H269936   5.349   0.891  14.291 -1.4882  0.4434  1.0454
16149TIP3   OH269937   4.021   1.466   4.047  0.5212 -0.3430 -0.2075
16149TIP3    H169938   3.994   1.444   4.136  0.7174 -1.6039 -0.4349
16149TIP3    H269939   4.104   1.511   4.056 -0.0192  0.5654  0.3066
16150TIP3   OH269940   2.849   6.099   6.230  0.2734 -0.3868  0.0062
16150TIP3    H169941   2.801   6.017   6.220  1.4122 -0.7910 -3.7255
16150TIP3    H269942   2.932   6.073   6.270  1.6984 -1.7280 -3.4176
16151TIP3   OH269943   5.781   6.051  11.354  0.1829  0.4062  0.1685
16151TIP3    H169944   5.690   6.029  11.374  0.3557 -0.3899  0.0973
16151TIP3    H269945   5.829   5.970  11.369  1.0867  1.1513  1.4704
16152TIP3   OH269946   2.673   4.333  16.176 -0.2749 -0.4075  0.7744
16152TIP3    H169947   2.761   4.301  16.196 -0.3546 -0.1026  1.6847
16152TIP3    H269948   2.640   4.364  16.260 -0.2550  1.9517 -0.0080
16153TIP3   OH269949   6.796   6.531   5.233 -0.2797  0.3114  0.3284
16153TIP3    H169950   6.872   6.507   5.287  0.4040 -0.4945 -0.9382
16153TIP3    H269951   6.729   6.467   5.257  0.3845 -0.7435 -0.5186
16154TIP3   OH269952   0.574   0.483  16.078  0.4203  0.4187 -0.5224
16154TIP3    H169953   0.610   0.427  16.009  2.2631  1.0392 -0.1137
16154TIP3    H269954   0.613   0.569  16.062  1.4710  0.4271  1.6816
16155TIP3   OH269955   2.423   4.558   2.949  0.1693 -0.0787  0.1189
16155TIP3    H169956   2.349   4.540   2.891  0.7073 -0.7777 -0.3740
16155TIP3    H269957   2.468   4.474   2.957  0.1539  0.0247  1.5001
16156TIP3   OH269958   1.179   3.659   3.988  0.2313  0.4682  0.2195
16156TIP3    H169959   1.176   3.753   4.009 -0.2621  0.5598 -0.2501
16156TIP3    H269960   1.239   3.622   4.053 -0.8806  0.8235  1.4990
16157TIP3   OH269961   1.228   1.298   1.590  0.0608 -0.4516  0.1267
16157TIP3    H169962   1.252   1.241   1.517 -0.2370 -1.5540  0.8813
16157TIP3    H269963   1.310   1.311   1.638  0.3988  0.7988 -0.7286
16158TIP3   OH269964   6.330   1.616  16.998  0.2142 -0.1778  0.2560
16158TIP3    H169965   6.358   1.591  16.910 -0.9561  0.4196 -0.3019
16158TIP3    H269966   6.250   1.666  16.985  0.6869  1.0051  1.5682
16159TIP3   OH269967   4.542   2.462  14.471 -0.0275  0.0378 -0.0412
16159TIP3    H169968   4.558   2.470  14.565 -0.4187  3.1772 -0.1320
16159TIP3    H269969   4.607   2.519  14.430  1.0691 -2.3457 -1.8602
16160TIP3   OH269970   5.760   3.450  15.863 -0.4379 -0.2033  0.0477
16160TIP3    H169971   5.706   3.412  15.932 -0.2512 -0.9625 -0.2046
16160TIP3    H269972   5.727   3.409  15.783 -0.7427  0.7632 -0.3354
16161TIP3   OH269973   2.188   2.121   1.377 -0.2641  0.6673 -0.2085
16161TIP3    H169974   2.167   2.039   1.333 -1.7519  0.7283  0.3308
16161TIP3    H269975   2.108   2.172   1.372  0.5056  1.9287 -0.1513
16162TIP3   OH269976   4.799   0.526  15.810 -0.4904  0.5048  0.2185
16162TIP3    H169977   4.890   0.509  15.833  0.2486  0.3170 -2.5424
16162TIP3    H269978   4.759   0.439  15.806 -0.1838  0.3979 -0.7556
16163TIP3   OH269979   0.681   6.340  13.047  0.2404 -0.4964 -0.2327
16163TIP3    H169980   0.752   6.385  13.002  0.8048 -1.1397  0.0055
16163TIP3    H269981   0.673   6.385  13.131  0.0337 -0.1186 -0.4477
16164TIP3   OH269982   6.175   6.486  13.195 -0.4590  0.3794 -0.5796
16164TIP3    H169983   6.119   6.409  13.191  0.5012 -0.4295  0.6366
16164TIP3    H269984   6.244   6.463  13.258  0.3214  1.9272 -0.7961
16165TIP3   OH269985   4.809   1.571   3.653  0.2611  0.1035  0.0131
16165TIP3    H169986   4.843   1.507   3.715  1.6325  0.6035 -0.2048
16165TIP3    H269987   4.734   1.527   3.613  0.7735 -1.1127  0.3451
16166TIP3   OH269988   5.278   5.930   0.517  0.5546 -1.2538 -0.2990
16166TIP3    H169989   5.324   5.858   0.561  1.6982 -0.5865 -0.3454
16166TIP3    H269990   5.332   6.007   0.536 -0.3584 -0.5029 -0.6941
16167TIP3   OH269991   2.031   2.530  12.739 -0.8292 -0.3012  0.3503
16167TIP3    H169992   2.074   2.492  12.662 -0.9209  0.5923 -0.1578
16167TIP3    H269993   1.960   2.583  12.703 -0.2924  0.8886  0.9783
16168TIP3   OH269994   1.840   3.850  17.197 -0.0520  0.3579 -0.4850
16168TIP3    H169995   1.888   3.768  17.210  0.4137  0.7026  0.0139
16168TIP3    H269996   1.888   3.914  17.250  0.9691  1.4891 -2.6408
16169TIP3   OH269997   3.675   2.713   2.457 -0.1245 -0.0112 -0.1139
16169TIP3    H169998   3.642   2.702   2.368  2.1047 -2.2670 -0.7623
16169TIP3    H269999   3.670   2.807   2.473  0.6541  0.6434 -3.1464
16170TIP3   OH270000   5.594   6.739   0.727 -0.2247  0.0727 -0.7340
16170TIP3    H170001   5.660   6.670   0.719 -2.4800 -2.2956 -0.1909
16170TIP3    H270002   5.633   6.803   0.788  1.4803 -1.2818 -0.3233
16171TIP3   OH270003   1.491   4.474   5.944 -0.3330 -0.6664  0.4405
16171TIP3    H170004   1.530   4.413   6.006 -0.0641 -1.5842 -0.5907
16171TIP3    H270005   1.555   4.545   5.938  1.2864 -2.1500 -1.2246
16172TIP3   OH270006   3.463   4.778   0.563 -0.0947  0.1158  0.3089
16172TIP3    H170007   3.398   4.837   0.600 -0.6157 -0.3387  0.1354
16172TIP3    H270008   3.411   4.711   0.517  0.5057  0.3412 -0.7400
16173TIP3   OH270009   6.602   5.355   3.250  0.0229 -0.4605  0.6614
16173TIP3    H170010   6.552   5.331   3.173  0.3224  0.1006  0.2878
16173TIP3    H270011   6.693   5.333   3.228  0.2988  0.9419  0.3272
16174TIP3   OH270012   0.524   6.464   4.146  0.2754 -0.0486  0.1746
16174TIP3    H170013   0.530   6.484   4.240 -1.4295  3.5587 -0.3150
16174TIP3    H270014   0.541   6.547   4.103 -2.6596 -0.6944 -2.5608
16175TIP3   OH270015   0.240   2.262  11.800 -0.0503 -0.5854  0.4616
16175TIP3    H170016   0.318   2.314  11.778 -1.2229  1.2702  0.4314
16175TIP3    H270017   0.233   2.269  11.895 -0.5778 -0.1252  0.3916
16176TIP3   OH270018   2.770   2.195  11.560  0.2061 -0.8544 -0.2197
16176TIP3    H170019   2.752   2.149  11.478 -0.3271 -1.0262 -0.0124
16176TIP3    H270020   2.861   2.224  11.552  0.0369 -0.5184 -1.0400
16177TIP3   OH270021   2.293   3.891  16.963  0.2189 -0.0476  0.0531
16177TIP3    H170022   2.364   3.934  17.011 -0.3139  2.6696 -1.4356
16177TIP3    H270023   2.214   3.938  16.988 -0.5182 -0.5906 -1.1401
16178TIP3   OH270024   1.088   6.121   1.565  0.5240 -0.1726 -0.4163
16178TIP3    H170025   1.167   6.080   1.529  0.6916 -0.9079  0.7372
16178TIP3    H270026   1.051   6.055   1.624  0.0877  0.8456  0.4867
16179TIP3   OH270027   2.336   1.024   0.336 -0.5033  0.4458  0.2916
16179TIP3    H170028   2.342   1.099   0.395  1.3676  1.0442 -0.5995
16179TIP3    H270029   2.399   0.960   0.372  0.4150  0.6869 -0.8218
16180TIP3   OH270030   1.764   5.392  16.885 -1.2595 -0.0237  0.3237
16180TIP3    H170031   1.716   5.335  16.824 -2.0150 -0.0866  0.9611
16180TIP3    H270032   1.712   5.391  16.965 -0.2134 -0.0461  1.0259
16181TIP3   OH270033   5.494   3.714  11.364 -0.0330 -0.3000  0.3342
16181TIP3    H170034   5.459   3.643  11.310 -1.1635 -0.2451  0.9795
16181TIP3    H270035   5.570   3.676  11.408 -0.2335 -0.9005  0.1666
16182TIP3   OH270036   1.659   5.226  15.116  0.0606 -0.2562  0.6659
16182TIP3    H170037   1.655   5.149  15.173 -2.0151  0.0518  1.0360
16182TIP3    H270038   1.597   5.206  15.046  0.7829  0.3938 -0.1737
16183TIP3   OH270039   0.839   0.986  15.508 -0.4852 -0.0111 -0.2090
16183TIP3    H170040   0.844   0.891  15.515 -0.6325 -0.0435 -0.5207
16183TIP3    H270041   0.919   1.017  15.550 -0.2183 -0.2915 -0.5045
16184TIP3   OH270042   3.227   2.464   5.693 -0.0680 -0.4195 -0.2381
16184TIP3    H170043   3.305   2.418   5.660  0.6252  0.1634  0.5750
16184TIP3    H270044   3.222   2.442   5.786 -0.9005 -0.4697 -0.2795
16185TIP3   OH270045   3.734   5.470   4.709  0.5664  0.9383  0.1996
16185TIP3    H170046   3.805   5.407   4.717  1.3037  1.6950 -0.2802
16185TIP3    H270047   3.700   5.479   4.798  1.5335  1.1006  0.5576
16186TIP3   OH270048   3.400   5.618   2.971  0.3434  0.0409 -0.4484
16186TIP3    H170049   3.322   5.584   2.929 -1.4912  2.3160  0.8886
16186TIP3    H270050   3.368   5.672   3.043  3.1853  0.3540  0.7369
16187TIP3   OH270051   2.690   6.505  15.178 -0.1622 -0.3977 -0.0605
16187TIP3    H170052   2.758   6.499  15.245  0.2546  1.1908 -0.2910
16187TIP3    H270053   2.676   6.415  15.150  0.3910 -0.9784  1.4250
16188TIP3   OH270054   2.118   4.472   3.747  0.2686 -0.0912 -0.0499
16188TIP3    H170055   2.137   4.562   3.776  1.7917 -0.7166  1.0275
16188TIP3    H270056   2.047   4.444   3.804 -1.5521  1.0173 -1.6448
16189TIP3   OH270057   5.954   0.755   2.770  0.2964 -0.9734 -0.3358
16189TIP3    H170058   6.007   0.818   2.818 -1.8464  0.2987  0.5067
16189TIP3    H270059   6.018   0.700   2.724  2.3427 -0.5346  1.7964
16190TIP3   OH270060   5.066   2.568  11.872  0.2222  0.4260  0.1628
16190TIP3    H170061   5.160   2.560  11.855  0.1595  1.1806 -0.5851
16190TIP3    H270062   5.026   2.563  11.785 -0.1873  3.3456  0.1002
16191TIP3   OH270063   3.998   0.810  13.711  0.4607 -0.1780 -0.6757
16191TIP3    H170064   4.017   0.852  13.795  1.7638 -1.0786 -0.4847
16191TIP3    H270065   3.976   0.719  13.734 -1.1674  0.0541 -1.1681
16192TIP3   OH270066   5.790   2.962   4.059 -0.4709 -0.0285  0.2167
16192TIP3    H170067   5.852   2.956   4.132  0.0109  1.1276 -0.0743
16192TIP3    H270068   5.845   2.968   3.981 -0.9659  0.1381 -0.1250
16193TIP3   OH270069   4.507   6.695   2.781  0.4112  0.2980  0.0076
16193TIP3    H170070   4.418   6.660   2.773  0.1874  0.4081  1.5997
16193TIP3    H270071   4.505   6.747   2.862  2.1716 -0.5000  0.6210
16194TIP3   OH270072   5.455   1.881  14.005 -0.0885  0.4885 -0.1730
16194TIP3    H170073   5.366   1.892  13.971  0.6509  2.1101 -1.7850
16194TIP3    H270074   5.507   1.858  13.928  0.5769 -2.9944  1.1350
16195TIP3   OH270075   3.391   3.408   0.670  0.6031 -0.1536  0.0563
16195TIP3    H170076   3.398   3.345   0.597  1.7996  0.9220 -0.8061
16195TIP3    H270077   3.318   3.464   0.647 -0.3117 -1.0376  0.7085
16196TIP3   OH270078   2.407   2.624   4.430 -0.8492  0.0948  0.5709
16196TIP3    H170079   2.460   2.551   4.461  0.5616  0.7450 -0.2149
16196TIP3    H270080   2.322   2.611   4.471 -0.6543 -2.0015  0.4439
16197TIP3   OH270081   3.905   6.012  13.540 -0.3238  0.0257 -0.0947
16197TIP3    H170082   3.896   6.107  13.532 -1.7990  0.0733  1.4358
16197TIP3    H270083   3.987   5.992  13.496  0.5276  2.1500  0.3895
16198TIP3   OH270084   0.928   5.051   5.823  0.0950  0.0729  0.0109
16198TIP3    H170085   0.946   4.996   5.746  1.1786  1.5280 -0.8259
16198TIP3    H270086   0.995   5.119   5.820 -0.4878  0.7733  1.6844
16199TIP3   OH270087   5.582   3.871   4.621 -0.0248 -0.3505 -0.4626
16199TIP3    H170088   5.558   3.961   4.644  1.9522  0.0401  0.2659
16199TIP3    H270089   5.642   3.880   4.547 -0.8058 -1.1694 -1.2153
16200TIP3   OH270090   1.920   3.061   1.448 -0.0059 -0.2428  0.0653
16200TIP3    H170091   1.963   2.976   1.454  0.4516 -0.1314 -1.2886
16200TIP3    H270092   1.918   3.080   1.354 -1.1404  0.7179  0.2636
16201TIP3   OH270093   6.357   2.679  16.449  0.0877 -0.4376  0.1011
16201TIP3    H170094   6.420   2.617  16.486  0.8804  0.2042 -0.1813
16201TIP3    H270095   6.389   2.697  16.361 -0.9741 -0.7799 -0.3723
16202TIP3   OH270096   6.530   0.261   3.329  0.2436 -0.5285 -0.1258
16202TIP3    H170097   6.508   0.319   3.256 -0.4842 -0.5101  0.0937
16202TIP3    H270098   6.517   0.315   3.407  1.2761 -0.4683  0.0125
16203TIP3   OH270099   1.334   5.648   4.034  0.1467  0.5202  0.1196
16203TIP3    H170100   1.340   5.736   3.997  1.5188  1.3713  2.1864
16203TIP3    H270101   1.415   5.637   4.083  0.4796 -2.3328 -0.8841
16204TIP3   OH270102   3.905   2.194   4.876  0.3056 -0.4798  0.3782
16204TIP3    H170103   3.843   2.166   4.943  0.0966 -0.5722  0.1492
16204TIP3    H270104   3.891   2.133   4.803 -1.8440  1.5828 -1.1110
16205TIP3   OH270105   0.817   4.282  10.964 -0.0333  0.1298 -0.4360
16205TIP3    H170106   0.779   4.258  11.049  0.7210 -0.5214 -0.2669
16205TIP3    H270107   0.836   4.198  10.922  1.5072  0.4032 -0.3592
16206TIP3   OH270108   3.645   1.227   1.811  0.3912  0.1482 -0.4032
16206TIP3    H170109   3.622   1.167   1.740 -0.4671  0.1791 -0.1588
16206TIP3    H270110   3.563   1.269   1.835  1.3280  3.2511 -2.1751
16207TIP3   OH270111   4.012   0.621   3.051  0.0682  0.5394 -0.3029
16207TIP3    H170112   4.084   0.671   3.013 -1.0000  2.3032 -0.1320
16207TIP3    H270113   4.027   0.626   3.146 -0.2156  0.8477 -0.2703
16208TIP3   OH270114   0.399   4.635  11.708  0.8915 -0.2336  0.1096
16208TIP3    H170115   0.318   4.584  11.713  0.0851  1.0324  0.4602
16208TIP3    H270116   0.426   4.645  11.800  0.7935  0.3337  0.0794
16209TIP3   OH270117   0.374   1.968  14.856 -0.0850 -0.1850  0.2365
16209TIP3    H170118   0.468   1.952  14.858 -0.1002 -0.2073  0.9616
16209TIP3    H270119   0.343   1.943  14.943 -0.7354 -0.0137  0.0626
16210TIP3   OH270120   2.690   3.496  14.134  0.0284  0.2620 -0.3260
16210TIP3    H170121   2.708   3.508  14.228 -0.0608  0.3554 -0.3217
16210TIP3    H270122   2.602   3.529  14.122  0.4037  1.1914 -0.6299
16211TIP3   OH270123   0.837   2.919  14.681 -0.4009  0.1812  0.4161
16211TIP3    H170124   0.924   2.879  14.690 -0.0002  1.1872  1.2814
16211TIP3    H270125   0.776   2.845  14.685  0.3449 -0.4184  1.2099
16212TIP3   OH270126   1.014   3.926   4.053 -0.4466  0.7427 -0.0627
16212TIP3    H170127   1.001   3.882   4.138  0.9119 -1.2620 -0.8087
16212TIP3    H270128   1.078   3.995   4.071 -0.8483  0.9182  0.7182
16213TIP3   OH270129   6.629   1.178   4.792 -0.2679 -0.1125 -0.1676
16213TIP3    H170130   6.722   1.160   4.808 -0.6337 -0.4229  1.9100
16213TIP3    H270131   6.584   1.141   4.868 -1.8747  2.0910  0.0442
16214TIP3   OH270132   4.436   1.789   0.323  0.0750 -0.3710  0.5492
16214TIP3    H170133   4.497   1.715   0.317 -1.1276 -1.4197  0.7465
16214TIP3    H270134   4.405   1.802   0.233  0.7979  0.3660  0.3950
16215TIP3   OH270135   0.835   2.930   3.748 -0.3901  0.2163  0.3173
16215TIP3    H170136   0.783   2.989   3.802 -0.5627  0.9167 -0.6022
16215TIP3    H270137   0.846   2.976   3.665 -1.7468 -1.6001 -0.9632
16216TIP3   OH270138   2.297   1.715  13.321 -0.1449 -0.1120  0.0351
16216TIP3    H170139   2.212   1.675  13.336 -0.6961  1.5067  1.5856
16216TIP3    H270140   2.286   1.766  13.240 -1.3963  1.8658  1.3795
16217TIP3   OH270141   2.680   2.173  16.429 -0.2132 -0.2160  0.4307
16217TIP3    H170142   2.728   2.248  16.395 -0.0797 -0.1563  0.7414
16217TIP3    H270143   2.713   2.163  16.519  0.4161 -1.2048  0.0958
16218TIP3   OH270144   2.398   3.963  16.515 -0.0331 -0.0567 -0.4470
16218TIP3    H170145   2.397   3.930  16.426 -1.8138 -1.2708 -0.0335
16218TIP3    H270146   2.327   4.028  16.518  1.2480  1.4020 -0.3707
16219TIP3   OH270147   2.653   4.026  16.433  0.3424 -0.1045 -0.2024
16219TIP3    H170148   2.582   4.029  16.497  1.2465 -0.2279  0.8367
16219TIP3    H270149   2.645   3.939  16.392 -2.5903  1.2963 -3.1147
16220TIP3   OH270150   1.198   5.122   2.138  0.5133 -0.2367  0.5136
16220TIP3    H170151   1.138   5.148   2.208  0.1609  1.1536 -0.2646
16220TIP3    H270152   1.205   5.027   2.146 -0.6816 -0.2621  1.4996
16221TIP3   OH270153   4.857   0.493  14.897 -0.0701  0.2422  0.1662
16221TIP3    H170154   4.855   0.574  14.948 -1.0397  1.3135 -1.5124
16221TIP3    H270155   4.795   0.507  14.827 -1.4782 -2.5970  0.7170
16222TIP3   OH270156   2.172   0.929   5.111 -0.8893 -0.1851  0.5223
16222TIP3    H170157   2.083   0.943   5.080 -0.2621  1.7665 -0.4998
16222TIP3    H270158   2.213   0.876   5.043 -1.0836 -0.5890  0.7136
16223TIP3   OH270159   4.668   0.593   3.964 -0.1652  0.1301  0.2849
16223TIP3    H170160   4.600   0.532   3.934  1.5129 -0.3821 -2.8456
16223TIP3    H270161   4.728   0.539   4.016 -0.6106 -0.0336  0.6376
16224TIP3   OH270162   1.938   1.143   3.906 -0.1563 -0.2756  0.0950
16224TIP3    H170163   2.001   1.194   3.855  0.4926 -1.4078 -0.2708
16224TIP3    H270164   1.866   1.126   3.845 -1.6838  2.4279  0.9777
16225TIP3   OH270165   1.727   1.593   2.339 -0.4534 -0.4824  0.1596
16225TIP3    H170166   1.787   1.667   2.339  0.4497 -1.1849 -0.2861
16225TIP3    H270167   1.658   1.616   2.277  0.3392 -0.4108 -0.7173
16226TIP3   OH270168   2.342   4.649  12.072 -0.6668 -0.0857 -0.1036
16226TIP3    H170169   2.270   4.683  12.126 -1.5285 -0.0666 -1.2332
16226TIP3    H270170   2.315   4.560  12.050  0.9363 -1.1100  1.6848
16227TIP3   OH270171   1.831   0.552  15.320 -0.6370  0.0374  0.2615
16227TIP3    H170172   1.916   0.511  15.337 -0.1872  0.5393 -0.6994
16227TIP3    H270173   1.766   0.488  15.350  0.0746 -0.3108  1.0975
16228TIP3   OH270174   2.915   0.422   0.505 -0.6816 -0.2305 -0.0268
16228TIP3    H170175   2.960   0.466   0.577 -3.2201 -0.6806  1.9814
16228TIP3    H270176   2.924   0.481   0.431  1.4705  0.5654  0.8138
16229TIP3   OH270177   0.763   1.805   1.948  0.0779  0.5398  0.4891
16229TIP3    H170178   0.839   1.771   1.996  1.2995  0.9738 -1.0391
16229TIP3    H270179   0.745   1.738   1.882 -0.9502  0.3954  0.9101
16230TIP3   OH270180   4.055   4.553   1.398 -0.3822  0.2633  0.0506
16230TIP3    H170181   4.084   4.536   1.308  0.7982 -2.4614  0.8078
16230TIP3    H270182   3.969   4.511   1.404 -1.7584  2.8185 -0.4570
16231TIP3   OH270183   5.828   1.044  12.826  0.4624  0.3837  0.1897
16231TIP3    H170184   5.883   1.028  12.902  2.4299 -3.0175 -1.6865
16231TIP3    H270185   5.760   0.976  12.831  1.4911 -0.8730 -1.7038
16232TIP3   OH270186   1.868   6.300   6.621 -0.4844  0.3178 -0.0708
16232TIP3    H170187   1.841   6.219   6.578 -0.1036  0.4886 -0.6542
16232TIP3    H270188   1.787   6.348   6.636 -0.6004  0.4704 -1.0686
16233TIP3   OH270189   0.661   4.457  12.851 -0.6093 -0.1599  0.0814
16233TIP3    H170190   0.619   4.535  12.885  1.0257  0.6707  0.3007
16233TIP3    H270191   0.682   4.478  12.760  0.6542  0.0432  0.3955
16234TIP3   OH270192   0.034   0.802  14.226  0.3663  0.0821 -0.5234
16234TIP3    H170193   0.079   0.788  14.309 -0.3316  1.1058  0.0541
16234TIP3    H270194  -0.053   0.763  14.239 -0.9160  2.9609  0.4389
16235TIP3   OH270195   3.042   4.172   2.228 -0.0623  0.3981 -0.2276
16235TIP3    H170196   2.960   4.197   2.270  0.4043  0.4952  0.6637
16235TIP3    H270197   3.028   4.083   2.197 -0.7423  0.6758 -0.7299
16236TIP3   OH270198   4.523   2.200   2.817  0.3806  0.1776  0.0200
16236TIP3    H170199   4.586   2.271   2.801  0.0809  0.7806  1.3977
16236TIP3    H270200   4.451   2.218   2.758  0.5424  0.7248 -0.0118
16237TIP3   OH270201   6.090   5.556   4.355 -0.3003  0.2005 -0.9377
16237TIP3    H170202   6.136   5.496   4.297  0.6745  0.3193 -0.3096
16237TIP3    H270203   6.125   5.642   4.334  0.6776  0.1577  0.3553
16238TIP3   OH270204   4.806   3.140  13.136  0.2344 -0.5426  0.0667
16238TIP3    H170205   4.730   3.196  13.119  1.1062  0.5394 -0.4044
16238TIP3    H270206   4.772   3.067  13.187 -1.1221 -0.0832 -0.1579
16239TIP3   OH270207   4.188   3.844  17.284 -0.3605 -0.3436  0.3490
16239TIP3    H170208   4.104   3.858  17.241  1.3854 -1.2475 -3.8897
16239TIP3    H270209   4.197   3.916  17.346 -2.2126  2.6222 -2.5581
16240TIP3   OH270210   5.223   4.878  11.505 -0.0452  0.7628  0.6452
16240TIP3    H170211   5.151   4.906  11.448  0.0834 -1.2190 -0.6274
16240TIP3    H270212   5.243   4.789  11.475  3.8268  1.6702  0.0307
16241TIP3   OH270213   2.673   4.334  14.392  0.2806  0.1131  0.0159
16241TIP3    H170214   2.712   4.267  14.335  0.7901 -0.3402  0.8651
16241TIP3    H270215   2.596   4.364  14.344  0.5329 -0.4525 -0.7817
16242TIP3   OH270216   4.269   0.076  12.683  0.2842  0.2906  0.5610
16242TIP3    H170217   4.291   0.120  12.765 -0.5818  1.3576  0.2445
16242TIP3    H270218   4.318   0.123  12.616  0.6919 -0.3335  0.4077
16243TIP3   OH270219   0.488   3.894   6.174 -0.4487  0.3545  0.2041
16243TIP3    H170220   0.417   3.832   6.160  0.7233 -0.5343 -2.3629
16243TIP3    H270221   0.543   3.852   6.241  1.1591 -2.3288 -2.5639
16244TIP3   OH270222   2.350   2.733  14.421 -0.6557  0.0641 -0.3744
16244TIP3    H170223   2.410   2.699  14.487  0.1012 -0.7652 -1.4524
16244TIP3    H270224   2.361   2.675  14.346 -1.7445  0.7754 -1.1213
16245TIP3   OH270225   0.895   4.351   1.375 -0.8788 -0.2758 -0.3649
16245TIP3    H170226   0.898   4.387   1.286 -2.2906 -0.3995 -0.4773
16245TIP3    H270227   0.861   4.262   1.365 -0.6124 -0.4536  0.2518
16246TIP3   OH270228   5.613   1.303  13.573 -0.0455 -0.2103 -0.5735
16246TIP3    H170229   5.644   1.390  13.596  1.6398 -0.9867  0.2936
16246TIP3    H270230   5.609   1.256  13.656  1.2730 -1.5950 -1.2490
16247TIP3   OH270231   6.021   2.048  17.009 -0.0676 -0.3320 -0.0179
16247TIP3    H170232   5.977   2.131  16.991  2.4998  0.9717 -0.8143
16247TIP3    H270233   6.005   1.995  16.931  0.2067  0.3506 -0.5517
16248TIP3   OH270234   6.672   3.337  11.607  0.1466  0.5450 -0.2695
16248TIP3    H170235   6.704   3.339  11.517 -1.9241 -1.7310 -1.1533
16248TIP3    H270236   6.639   3.248  11.619  0.2146  0.8119  2.7336
16249TIP3   OH270237   2.866   0.522   4.962 -0.4817 -0.0360 -0.3079
16249TIP3    H170238   2.921   0.537   4.886  0.6922 -1.8350  0.1433
16249TIP3    H270239   2.901   0.581   5.029  0.2850 -0.4570 -0.3282
16250TIP3   OH270240   1.693   0.314  11.215 -0.1472 -0.6445 -0.1670
16250TIP3    H170241   1.746   0.237  11.195  0.4912  0.5098 -3.4936
16250TIP3    H270242   1.746   0.389  11.187 -1.7031  0.8611  0.6712
16251TIP3   OH270243   6.470   3.131  12.943 -0.4896  0.0400 -0.1393
16251TIP3    H170244   6.406   3.170  12.884 -0.9017 -0.1094  0.2086
16251TIP3    H270245   6.553   3.138  12.896 -0.2613  2.6837  0.4843
16252TIP3   OH270246   5.088   4.904  14.595  0.1269 -0.2951  0.2082
16252TIP3    H170247   5.166   4.912  14.539 -0.4884  2.4030 -0.3875
16252TIP3    H270248   5.118   4.928  14.682  0.1174 -0.0171  0.1341
16253TIP3   OH270249   5.127   4.410  15.182 -0.2528 -0.4318  0.0863
16253TIP3    H170250   5.208   4.363  15.165 -1.1177 -2.2489  0.7238
16253TIP3    H270251   5.141   4.497  15.145  1.5417 -1.0745 -0.8520
16254TIP3   OH270252   5.260   5.033   4.605 -0.5303 -0.3758  0.1088
16254TIP3    H170253   5.179   5.045   4.655 -0.6354 -1.9267  0.3692
16254TIP3    H270254   5.323   5.002   4.669  0.1455  0.3184 -0.2000
16255TIP3   OH270255   5.508   4.770  15.745 -0.1246  0.1080 -0.2675
16255TIP3    H170256   5.600   4.746  15.736  0.0284 -0.5740  2.3243
16255TIP3    H270257   5.479   4.791  15.656  2.4391  0.0725 -1.1703
16256TIP3   OH270258   3.695   6.222  17.145  0.2048  0.0819  0.4201
16256TIP3    H170259   3.671   6.144  17.095 -2.4037 -0.4829  2.3731
16256TIP3    H270260   3.654   6.295  17.097  0.5347 -0.0326 -0.0448
16257TIP3   OH270261   0.025   2.600   2.897 -0.1671  0.8677 -0.8433
16257TIP3    H170262  -0.034   2.536   2.857 -0.9077 -0.7213  2.3971
16257TIP3    H270263  -0.031   2.674   2.920 -0.5019  0.2739  0.3166
16258TIP3   OH270264   5.957   4.973   3.180 -0.2903  0.5003 -0.5900
16258TIP3    H170265   6.025   4.907   3.169  0.0334  0.4949  1.1527
16258TIP3    H270266   5.887   4.945   3.121  0.0843 -1.0593 -0.3354
16259TIP3   OH270267   4.410   2.979  11.207  0.1949 -0.5499  0.3550
16259TIP3    H170268   4.473   3.042  11.171  0.4366 -1.4141 -0.8274
16259TIP3    H270269   4.465   2.910  11.245 -0.0152 -1.2443 -0.5685
16260TIP3   OH270270   2.650   5.533   1.134  0.5486 -0.1531 -0.0045
16260TIP3    H170271   2.647   5.474   1.059 -0.8066  1.8591 -1.6215
16260TIP3    H270272   2.561   5.534   1.168  0.6423  0.6228  0.2483
16261TIP3   OH270273   3.476   3.459  14.054 -0.5697  0.3484 -0.0054
16261TIP3    H170274   3.572   3.460  14.058 -0.5401  2.4833  4.0572
16261TIP3    H270275   3.452   3.373  14.089 -0.2114 -0.4535 -1.6445
16262TIP3   OH270276   1.756   3.381   3.344  0.0621  0.6779  0.2157
16262TIP3    H170277   1.734   3.384   3.437  1.0967  0.0869  0.4990
16262TIP3    H270278   1.848   3.407   3.341 -0.3710  2.2668 -0.8281
16263TIP3   OH270279   3.145   4.702   3.711 -0.3882 -0.5591 -0.3927
16263TIP3    H170280   3.230   4.702   3.666  0.6170 -0.1619  1.3891
16263TIP3    H270281   3.104   4.785   3.685  0.1311 -0.3764 -0.6389
16264TIP3   OH270282   5.119   3.693   6.671  0.0455  0.1609  0.2801
16264TIP3    H170283   5.040   3.689   6.617 -0.2509  0.5288  0.6828
16264TIP3    H270284   5.167   3.769   6.639  0.4040 -0.2583 -0.1879
16265TIP3   OH270285   2.616   1.231  12.789  0.8555  0.1964 -0.0196
16265TIP3    H170286   2.569   1.314  12.795  0.8729  0.2598 -0.6810
16265TIP3    H270287   2.693   1.252  12.736  1.0212 -0.1728  0.0747
16266TIP3   OH270288   3.858   4.452   4.525  0.2140  0.0592  0.2241
16266TIP3    H170289   3.924   4.388   4.499 -0.9131 -0.0640 -2.6838
16266TIP3    H270290   3.860   4.518   4.455 -3.7346 -0.7924 -0.9155
16267TIP3   OH270291   6.753   6.632  15.614 -0.1566 -0.2156 -0.4953
16267TIP3    H170292   6.690   6.642  15.543  1.4464 -1.3626 -2.1653
16267TIP3    H270293   6.749   6.539  15.637 -0.0718 -0.0121  0.3742
16268TIP3   OH270294   1.830   1.142   0.022  0.0860 -0.6670  0.1800
16268TIP3    H170295   1.828   1.114  -0.069  0.2867  2.5727 -0.9433
16268TIP3    H270296   1.923   1.147   0.044  0.0326 -2.4283  0.9724
16269TIP3   OH270297   2.016   5.620   3.224  0.1179 -0.2320  0.5896
16269TIP3    H170298   1.944   5.557   3.225  0.2042 -0.3396  0.3028
16269TIP3    H270299   1.997   5.677   3.149 -0.5210  0.7581  1.4673
16270TIP3   OH270300   6.109   2.479   3.893 -0.0190 -0.9901 -0.2876
16270TIP3    H170301   6.178   2.439   3.839  0.2317  1.1878 -1.6935
16270TIP3    H270302   6.157   2.532   3.957 -0.3885 -0.9778 -0.0181
16271TIP3   OH270303   2.995   2.200   5.138  0.0058  0.2229 -0.0970
16271TIP3    H170304   2.927   2.190   5.071  0.7527  0.9203 -0.9753
16271TIP3    H270305   2.981   2.287   5.174  0.1664  0.2004  0.0212
16272TIP3   OH270306   5.305   5.050   5.435  0.1338  0.1842 -0.2249
16272TIP3    H170307   5.228   5.081   5.482  2.3586  1.5893  2.8135
16272TIP3    H270308   5.305   5.100   5.353 -1.7289  0.7155  0.0599
16273TIP3   OH270309   4.097   2.272  12.938  0.3053  0.0523  0.0528
16273TIP3    H170310   4.180   2.316  12.920 -0.1927  2.0725  2.2266
16273TIP3    H270311   4.031   2.341  12.929 -1.0138 -1.2340 -0.4432
16274TIP3   OH270312   5.585   1.132   5.199 -0.2393 -0.0140  0.1537
16274TIP3    H170313   5.592   1.206   5.138  2.4069 -0.4932 -0.2254
16274TIP3    H270314   5.629   1.162   5.278 -2.0616 -0.0635  1.2541
16275TIP3   OH270315   2.717   0.466   1.897 -0.3080 -0.3468  0.4928
16275TIP3    H170316   2.768   0.515   1.831 -1.2027  0.4819  0.3930
16275TIP3    H270317   2.692   0.385   1.852 -0.8109  0.1584 -0.1706
16276TIP3   OH270318   5.318   1.252   0.751  0.0801  0.8633  0.3495
16276TIP3    H170319   5.301   1.266   0.658 -0.9653  0.7927  0.5211
16276TIP3    H270320   5.237   1.279   0.795 -0.5533 -1.8117  1.0188
16277TIP3   OH270321   2.367   5.112   3.357 -0.3684 -0.1580 -0.3660
16277TIP3    H170322   2.436   5.149   3.412  0.6604 -2.9999  0.4127
16277TIP3    H270323   2.311   5.064   3.417 -0.4991 -1.5042 -1.5151
16278TIP3   OH270324   5.613   1.045   3.353 -0.8168  0.2590 -0.1767
16278TIP3    H170325   5.536   1.077   3.401 -1.2606 -1.2149  0.1336
16278TIP3    H270326   5.578   1.012   3.270 -1.1003 -3.3496  1.1953
16279TIP3   OH270327   3.986   3.497  15.793 -0.1180 -0.2404  0.4324
16279TIP3    H170328   3.972   3.563  15.724 -0.2100 -0.2297  0.4614
16279TIP3    H270329   3.920   3.517  15.859  0.7819  0.5467  1.1211
16280TIP3   OH270330   2.530   2.161   4.749  0.1841  0.0066  0.6374
16280TIP3    H170331   2.569   2.073   4.745  0.2661 -0.0003  1.5262
16280TIP3    H270332   2.490   2.166   4.836  1.8306  1.5366  1.3763
16281TIP3   OH270333   5.447   4.622  14.660 -0.1040 -0.7488  0.1982
16281TIP3    H170334   5.470   4.552  14.599  1.5667 -0.2950  0.2571
16281TIP3    H270335   5.497   4.603  14.739 -0.4012 -0.0316  0.5747
16282TIP3   OH270336   4.354   1.652  11.938  0.4151 -0.0654 -0.3286
16282TIP3    H170337   4.406   1.588  11.987  0.7053 -0.1796 -0.7802
16282TIP3    H270338   4.278   1.603  11.909 -0.4566  0.3409  1.1559
16283TIP3   OH270339   6.097   1.531   1.726 -0.4831  0.1014  0.6691
16283TIP3    H170340   6.082   1.566   1.814  0.7180 -0.4160  1.1209
16283TIP3    H270341   6.090   1.436   1.737 -2.6748  0.1051 -0.3148
16284TIP3   OH270342   5.593   0.543  15.143 -0.0032  0.1362 -0.6357
16284TIP3    H170343   5.549   0.487  15.207  0.5504  0.5709  0.1394
16284TIP3    H270344   5.611   0.486  15.069  2.2399 -1.2431  0.8648
16285TIP3   OH270345   4.367   2.771  11.497  0.0801 -0.1944  0.0712
16285TIP3    H170346   4.371   2.753  11.403  1.5256 -0.4655  0.1594
16285TIP3    H270347   4.430   2.710  11.536  1.0279  1.2744  0.9819
16286TIP3   OH270348   3.905   6.077   4.914 -0.6066 -0.4480  0.3885
16286TIP3    H170349   3.850   6.117   4.982 -0.3534 -0.2784  0.4934
16286TIP3    H270350   3.897   5.983   4.930  0.2688 -0.3784  1.3057
16287TIP3   OH270351   0.596   0.628   3.120  0.7220  0.4221  0.4203
16287TIP3    H170352   0.549   0.562   3.172  0.2355  0.6548  0.2845
16287TIP3    H270353   0.623   0.581   3.041 -0.9884  0.7518 -0.4060
16288TIP3   OH270354   5.978   6.454   5.453  0.5671 -0.1900  0.4404
16288TIP3    H170355   5.952   6.519   5.518 -0.7946 -0.6660  0.4030
16288TIP3    H270356   5.938   6.373   5.483  0.1466 -0.4813 -0.8328
16289TIP3   OH270357   1.418   3.920  16.913 -0.1198  0.4465  0.3637
16289TIP3    H170358   1.412   3.967  16.996  2.7879 -0.1950  1.0315
16289TIP3    H270359   1.397   3.829  16.935  1.5198  0.1050  0.6440
16290TIP3   OH270360   5.730   5.973  14.712  0.2301 -0.1642 -0.1114
16290TIP3    H170361   5.727   5.927  14.795  1.1781 -0.5918 -0.2982
16290TIP3    H270362   5.668   6.045  14.721 -0.3947 -0.7834  0.6077
16291TIP3   OH270363   6.773   2.249  16.532 -0.3134 -0.0815  0.2976
16291TIP3    H170364   6.820   2.329  16.510  2.6547 -1.9581 -0.7612
16291TIP3    H270365   6.714   2.236  16.458  0.5032  0.2125 -0.4270
16292TIP3   OH270366   0.585   5.677  13.239  0.8757 -0.5336 -0.0158
16292TIP3    H170367   0.528   5.600  13.237 -0.9469  0.7802  0.1742
16292TIP3    H270368   0.565   5.724  13.158  2.7208 -0.7281 -0.6367
16293TIP3   OH270369   5.441   1.793  16.049  0.0150  0.2670 -0.1015
16293TIP3    H170370   5.452   1.706  16.011 -0.6481  0.6669 -1.2822
16293TIP3    H270371   5.514   1.803  16.110 -0.4452 -1.4839  0.7872
16294TIP3   OH270372   6.610   0.306  15.077  0.3067  0.3452  0.2347
16294TIP3    H170373   6.546   0.367  15.043  1.7382  0.6368 -2.1406
16294TIP3    H270374   6.671   0.361  15.127  0.2182  0.4729  0.2026
16295TIP3   OH270375   3.314   2.567   2.759 -0.5756  0.0705  0.1524
16295TIP3    H170376   3.404   2.535   2.759 -0.4961  0.2939  0.0603
16295TIP3    H270377   3.266   2.500   2.710 -0.4299  0.0323  0.0578
16296TIP3   OH270378   2.233   3.941   5.124 -0.1813  0.1012  0.0670
16296TIP3    H170379   2.279   3.911   5.203  0.7792 -0.8820 -0.8291
16296TIP3    H270380   2.278   3.896   5.052 -1.5332  0.3706 -0.9790
16297TIP3   OH270381   1.194   3.320  11.377  0.4445  0.1005  0.2162
16297TIP3    H170382   1.278   3.331  11.420  0.8945 -2.0743 -0.0098
16297TIP3    H270383   1.213   3.268  11.299 -0.8623  1.1076 -0.8393
16298TIP3   OH270384   5.256   4.585   5.281 -0.2471  0.1658  0.2168
16298TIP3    H170385   5.347   4.594   5.308 -0.0503 -1.3914  0.1666
16298TIP3    H270386   5.210   4.653   5.329  0.9965  1.2782 -0.0921
16299TIP3   OH270387   0.070   1.721  15.981 -0.3714  0.3460 -0.2991
16299TIP3    H170388  -0.020   1.697  15.960 -0.9402  1.6781  0.4580
16299TIP3    H270389   0.108   1.642  16.021 -1.2887 -0.1439 -0.3831
16300TIP3   OH270390   0.361   6.290  15.055  0.1393  0.6577 -0.5796
16300TIP3    H170391   0.399   6.372  15.025  2.0132 -0.4426 -1.3853
16300TIP3    H270392   0.435   6.241  15.091 -0.9881 -0.5642  0.1529
16301TIP3   OH270393   5.816   5.566   6.155  0.6665  0.0888  0.2276
16301TIP3    H170394   5.764   5.629   6.105 -1.0737 -1.8987 -0.6086
16301TIP3    H270395   5.906   5.580   6.125  0.1303  1.2643 -0.9313
16302TIP3   OH270396   2.204   6.236   3.814 -0.3429  0.0250 -0.2302
16302TIP3    H170397   2.248   6.236   3.899 -0.8356 -0.6770  0.0251
16302TIP3    H270398   2.121   6.191   3.829 -0.2241 -0.5412 -1.1882
16303TIP3   OH270399   1.178   0.561   3.753 -0.0708  0.2491  0.2778
16303TIP3    H170400   1.229   0.508   3.814  1.4808  2.5172  1.0980
16303TIP3    H270401   1.087   0.533   3.766  0.5666 -1.4585  1.3388
16304TIP3   OH270402   5.180   4.566   3.429  0.1199 -0.4509 -0.3636
16304TIP3    H170403   5.117   4.559   3.502  0.7050  0.3872  0.2425
16304TIP3    H270404   5.224   4.481   3.428 -1.6227 -1.4109 -1.3990
16305TIP3   OH270405   0.207   0.394   3.275  0.9722  0.1693  0.3981
16305TIP3    H170406   0.240   0.343   3.202 -1.7429  1.4686 -1.9195
16305TIP3    H270407   0.236   0.346   3.353  1.5096 -2.9154 -1.5286
16306TIP3   OH270408   5.987   0.037   2.680  0.0638 -0.4552  0.5051
16306TIP3    H170409   6.016   0.081   2.600 -1.9852 -0.2237 -0.1964
16306TIP3    H270410   5.936  -0.038   2.648 -0.2432 -0.7310  1.6047
16307TIP3   OH270411   5.159   2.376  13.039 -0.3885  0.5563 -0.4982
16307TIP3    H170412   5.068   2.366  13.008 -0.2222 -1.6679 -0.4109
16307TIP3    H270413   5.209   2.392  12.959 -0.7179  0.7318 -0.6738
16308TIP3   OH270414   0.784   0.626  10.924  0.1470 -0.7306 -0.7429
16308TIP3    H170415   0.721   0.555  10.910 -0.2600 -0.5657  0.1906
16308TIP3    H270416   0.823   0.607  11.009  0.4603 -0.1447 -0.7531
16309TIP3   OH270417   5.511   4.489   6.256  0.3842  0.5559  0.5533
16309TIP3    H170418   5.483   4.557   6.317 -0.1964  0.2503  0.6423
16309TIP3    H270419   5.429   4.444   6.232  0.7549 -0.0906  0.4775
16310TIP3   OH270420   4.659   0.490   0.874 -0.1422  0.9379 -0.1095
16310TIP3    H170421   4.574   0.459   0.906  1.7230 -2.2687  2.3533
16310TIP3    H270422   4.645   0.583   0.857 -3.9858  0.6851  0.6385
16311TIP3   OH270423   2.295   2.859  13.632 -0.0662 -0.0300 -0.3727
16311TIP3    H170424   2.385   2.826  13.630  0.0439  0.3055 -1.3455
16311TIP3    H270425   2.302   2.944  13.677  0.0762 -0.0700 -0.3164
16312TIP3   OH270426   3.472   2.378   2.011 -0.3248  0.0763  0.7663
16312TIP3    H170427   3.545   2.418   1.963  0.0826  0.9889  2.0721
16312TIP3    H270428   3.412   2.451   2.027 -2.3111 -0.9300 -1.5660
16313TIP3   OH270429   2.613   2.735   4.082  0.7205 -0.2454  0.1493
16313TIP3    H170430   2.629   2.646   4.051  0.0602 -0.4611  0.4164
16313TIP3    H270431   2.590   2.725   4.174  0.1611  0.1526  0.0615
16314TIP3   OH270432   0.451   5.046  15.893  0.0559  0.3314 -0.5486
16314TIP3    H170433   0.445   4.955  15.865  0.0559 -0.3970  1.6374
16314TIP3    H270434   0.379   5.057  15.955  2.7037  0.3698  2.7938
16315TIP3   OH270435   1.307   3.754  16.314 -0.2090 -0.7250 -0.2429
16315TIP3    H170436   1.343   3.696  16.381  1.2257 -0.6490 -0.9033
16315TIP3    H270437   1.219   3.775  16.345  0.4743 -0.5147  1.7276
16316TIP3   OH270438   1.581   5.035  12.799  0.1670 -0.6525  0.0311
16316TIP3    H170439   1.612   5.098  12.733  1.0982  0.0048  1.0744
16316TIP3    H270440   1.626   4.953  12.776  0.3415 -0.4785 -0.2613
16317TIP3   OH270441   3.595   6.754  17.156 -0.5641 -0.0170  0.0434
16317TIP3    H170442   3.654   6.802  17.097 -0.8635 -1.1842 -1.2659
16317TIP3    H270443   3.650   6.731  17.231  0.3030  0.0773 -0.5375
16318TIP3   OH270444   2.761   5.190  11.130  0.4214 -0.4676  0.3698
16318TIP3    H170445   2.805   5.153  11.053 -0.1136 -0.8021  0.2152
16318TIP3    H270446   2.668   5.187  11.107  0.2330 -0.8263  1.1442
16319TIP3   OH270447   3.938   1.237   3.480  0.7405  0.2290 -0.1037
16319TIP3    H170448   4.032   1.226   3.489  0.6422 -0.8709 -0.3822
16319TIP3    H270449   3.929   1.317   3.428  1.4455  1.9372  2.2361
16320TIP3   OH270450   4.423   5.136   0.346  0.2547  0.2085 -0.0759
16320TIP3    H170451   4.371   5.067   0.387  2.0425 -0.1216  1.8010
16320TIP3    H270452   4.472   5.175   0.419  1.4208  1.5488 -1.5226
16321TIP3   OH270453   3.119   3.651  10.245  0.3513 -0.5466 -0.1786
16321TIP3    H170454   3.203   3.689  10.268 -0.5345  1.3718  0.0896
16321TIP3    H270455   3.088   3.611  10.326 -0.1100  1.0195  0.4667
16322TIP3   OH270456   1.829   1.765   5.925 -0.5444  0.1120  0.1714
16322TIP3    H170457   1.847   1.859   5.918 -0.9170  0.1612 -0.1811
16322TIP3    H270458   1.733   1.760   5.926 -0.5421 -0.1469  1.8708
16323TIP3   OH270459   3.636   5.764  14.697  0.2575  0.2318 -0.3928
16323TIP3    H170460   3.647   5.859  14.689 -0.3024  0.1489 -2.7135
16323TIP3    H270461   3.647   5.731  14.608 -1.0406 -1.7236  0.1172
16324TIP3   OH270462   3.548   6.787   2.264  0.0329 -0.0423 -0.1744
16324TIP3    H170463   3.575   6.730   2.336 -1.6764 -0.9553 -0.2053
16324TIP3    H270464   3.561   6.734   2.185  0.8347  0.5595 -0.4723
16325TIP3   OH270465   0.310   5.074  14.027  0.0888 -0.0536  0.2238
16325TIP3    H170466   0.281   5.060  13.937  0.2643  1.5751 -0.1063
16325TIP3    H270467   0.370   5.148  14.022  0.4968 -0.2633  1.6137
16326TIP3   OH270468   3.276   6.812  14.801 -0.4160 -0.6669  0.2265
16326TIP3    H170469   3.318   6.893  14.830 -1.1846 -0.4604  0.8228
16326TIP3    H270470   3.284   6.752  14.876 -0.1536 -1.0272 -0.0854
16327TIP3   OH270471   3.534   1.564  15.213  0.3188  0.1883 -0.0846
16327TIP3    H170472   3.479   1.568  15.135 -0.3076 -1.0473  0.2645
16327TIP3    H270473   3.505   1.637  15.266 -1.1802 -0.5641  0.1837
16328TIP3   OH270474   5.730   5.374  12.039  0.0379 -0.0651 -0.6578
16328TIP3    H170475   5.759   5.462  12.015  0.5435  1.1077  3.4832
16328TIP3    H270476   5.641   5.385  12.072 -0.5664 -1.4649 -1.7190
16329TIP3   OH270477   2.378   0.590  14.197  0.0629  0.0135  0.1210
16329TIP3    H170478   2.303   0.617  14.143 -0.7753  0.1749  1.3142
16329TIP3    H270479   2.437   0.546  14.136 -1.1772 -0.4482 -0.7918
16330TIP3   OH270480   5.572   0.062  15.243 -0.1114  0.5726 -0.6986
16330TIP3    H170481   5.614   0.052  15.158  0.6064  1.3395 -0.4488
16330TIP3    H270482   5.568  -0.027  15.278  1.8335  0.5003 -0.5064
16331TIP3   OH270483   4.239   4.960   3.785 -0.0627  0.0587  0.0974
16331TIP3    H170484   4.246   4.865   3.771  0.4982 -0.0312  0.9010
16331TIP3    H270485   4.318   4.996   3.745  0.3699  0.0473  0.9357
16332TIP3   OH270486   2.892   2.908  16.183 -0.2024  0.0296  0.0608
16332TIP3    H170487   2.797   2.910  16.172 -0.1890 -1.1050 -0.4586
16332TIP3    H270488   2.923   2.852  16.112  0.7030 -0.8366  1.0909
16333TIP3   OH270489   4.627   6.563   4.220  0.5149  0.4613  0.0343
16333TIP3    H170490   4.655   6.635   4.276  0.0529  0.0011  0.8781
16333TIP3    H270491   4.705   6.540   4.170  1.3409 -0.0010  1.4705
16334TIP3   OH270492   2.338   1.729   2.173  0.6394 -0.2712 -0.1878
16334TIP3    H170493   2.323   1.700   2.263  0.1233 -0.2638 -0.2721
16334TIP3    H270494   2.422   1.689   2.149 -0.1609 -1.8975 -0.3864
16335TIP3   OH270495   6.102   3.730  14.092  0.1674 -0.0847 -0.4834
16335TIP3    H170496   6.064   3.655  14.047 -0.3032  0.8941 -1.7863
16335TIP3    H270497   6.117   3.795  14.023  2.4425  0.3089  0.2611
16336TIP3   OH270498   0.453   4.940   1.574 -0.4758 -0.1189  0.4247
16336TIP3    H170499   0.404   5.010   1.618 -0.6795  1.8891 -2.6744
16336TIP3    H270500   0.399   4.862   1.588 -1.1226  0.6226  2.5936
16337TIP3   OH270501   0.878   5.720  13.147  0.1568  0.4715  0.4360
16337TIP3    H170502   0.865   5.651  13.213  2.6300 -2.9310 -2.1981
16337TIP3    H270503   0.970   5.745  13.158  0.1661  0.9764 -0.6813
16338TIP3   OH270504   6.031   3.134   2.588 -0.7062 -0.2763 -0.3476
16338TIP3    H170505   5.967   3.162   2.653 -0.5033 -1.3854  0.3511
16338TIP3    H270506   6.044   3.041   2.605 -0.7308 -0.6225 -2.0632
16339TIP3   OH270507   1.556   1.152  17.016 -0.1867 -0.1319 -0.3221
16339TIP3    H170508   1.631   1.123  16.965  1.0020  1.7442  0.2560
16339TIP3    H270509   1.570   1.246  17.028 -0.9676 -0.2849  2.4618
16340TIP3   OH270510   4.601   6.128   4.812  0.0341 -0.3463  0.7127
16340TIP3    H170511   4.521   6.077   4.801  0.1022 -0.3804  0.3659
16340TIP3    H270512   4.571   6.218   4.829 -0.0817 -0.4604  1.1245
16341TIP3   OH270513   6.301   4.915  17.214 -0.4328  0.6441  0.5849
16341TIP3    H170514   6.318   4.997  17.262 -0.7441  0.3187  1.2712
16341TIP3    H270515   6.358   4.851  17.256 -0.2963  0.4711  0.1422
16342TIP3   OH270516   1.142   0.550  15.177 -0.5042 -0.1583  0.2501
16342TIP3    H170517   1.070   0.587  15.126 -0.2599 -0.1083 -0.0598
16342TIP3    H270518   1.207   0.523  15.111 -0.9175 -1.6639  0.4105
16343TIP3   OH270519   0.487   0.068   4.456  0.7460  0.0665 -0.0265
16343TIP3    H170520   0.518  -0.011   4.411 -1.3247 -0.5454 -0.4930
16343TIP3    H270521   0.546   0.078   4.530  1.6985 -1.3080 -0.5601
16344TIP3   OH270522   1.654   3.108  16.904 -0.1631 -0.0026 -0.0746
16344TIP3    H170523   1.737   3.150  16.925 -0.9355  0.9144  1.3368
16344TIP3    H270524   1.620   3.158  16.829  0.1731  0.1374 -0.1344
16345TIP3   OH270525   2.153   5.338   4.591  0.3902  0.3146  0.6863
16345TIP3    H170526   2.122   5.330   4.501  0.1240  1.5007  0.6590
16345TIP3    H270527   2.202   5.420   4.593 -0.1281  0.6292  1.7550
16346TIP3   OH270528   3.404   4.043   1.522 -0.4974  0.1258 -0.4125
16346TIP3    H170529   3.475   4.076   1.577 -1.0592  0.2109  0.2894
16346TIP3    H270530   3.349   3.993   1.582 -1.1802  0.3027 -0.8817
16347TIP3   OH270531   3.850   3.678   5.402  0.2211 -0.2923  0.1024
16347TIP3    H170532   3.788   3.623   5.450  0.2867 -0.1881  0.3041
16347TIP3    H270533   3.920   3.618   5.376  0.8230 -0.1026  1.2305
16348TIP3   OH270534   3.317   2.789  14.586  0.1580  0.6963  0.2820
16348TIP3    H170535   3.247   2.792  14.521 -0.0130 -0.3256  0.4034
16348TIP3    H270536   3.295   2.858  14.648 -0.7734  0.3537  0.3444
16349TIP3   OH270537   2.794   3.310   2.389  0.3841  0.1252 -0.2190
16349TIP3    H170538   2.768   3.234   2.441 -1.0413  0.6291 -0.1381
16349TIP3    H270539   2.847   3.274   2.318  1.8830 -0.6399  1.2258
16350TIP3   OH270540   2.388   0.090  11.966  0.3071 -0.0974  0.1195
16350TIP3    H170541   2.340   0.153  12.019 -2.8238 -1.6622 -0.5989
16350TIP3    H270542   2.373   0.117  11.876  0.4490 -0.8422 -0.1381
16351TIP3   OH270543   5.276   5.087  16.599  0.4423  0.1752  0.3207
16351TIP3    H170544   5.313   5.116  16.516  0.2317  1.0123  0.5123
16351TIP3    H270545   5.186   5.063  16.578  0.3401  0.5412  0.3345
16352TIP3   OH270546   1.654   2.422  11.694  0.2982  0.0270  0.7363
16352TIP3    H170547   1.669   2.328  11.687 -2.4971 -0.5954  1.8220
16352TIP3    H270548   1.560   2.433  11.678  0.6251  2.7082  0.1512
16353TIP3   OH270549   5.270   3.218   4.167  0.3479  1.0611 -0.2493
16353TIP3    H170550   5.217   3.286   4.210 -1.2330 -1.3517  1.8758
16353TIP3    H270551   5.337   3.195   4.232  0.0159 -0.3273 -0.3720
16354TIP3   OH270552   5.094   5.275  13.817  0.0786  0.2633 -0.1535
16354TIP3    H170553   5.117   5.189  13.851 -0.2593  0.0563 -0.4402
16354TIP3    H270554   5.177   5.324  13.817  1.0872 -1.1623 -3.2427
16355TIP3   OH270555   2.040   5.203  16.600  0.2525  0.0603 -0.1467
16355TIP3    H170556   2.120   5.151  16.605 -0.4049 -0.9203  0.9525
16355TIP3    H270557   2.015   5.216  16.692 -0.4152  1.0341 -0.4559
16356TIP3   OH270558   3.028   5.776   2.203  0.6365 -0.4616 -0.0232
16356TIP3    H170559   2.938   5.750   2.226  1.1607 -2.0901  0.3242
16356TIP3    H270560   3.033   5.759   2.109  0.5399 -0.2645 -0.0634
16357TIP3   OH270561   1.867   5.361  15.273 -0.8152  0.0814 -0.8608
16357TIP3    H170562   1.811   5.313  15.211 -1.2736 -2.3577  1.2368
16357TIP3    H270563   1.956   5.343  15.244 -0.9693 -2.2360 -0.1864
16358TIP3   OH270564   4.723   3.267  10.910  0.2541 -0.6036 -0.1663
16358TIP3    H170565   4.763   3.197  10.960 -0.4864 -0.0573  1.2582
16358TIP3    H270566   4.772   3.346  10.935 -1.0693 -0.0780  0.9210
16359TIP3   OH270567   1.027   6.127   3.096 -0.3067 -0.5085  0.2886
16359TIP3    H170568   0.934   6.105   3.095 -1.5255  3.7529 -0.1308
16359TIP3    H270569   1.055   6.120   3.005 -0.4743 -0.9247  0.2693
16360TIP3   OH270570   5.777   0.163  13.329 -0.3530  0.8400 -0.1365
16360TIP3    H170571   5.834   0.137  13.401 -1.4578  0.5423  0.6646
16360TIP3    H270572   5.813   0.245  13.298  1.2262  0.0459 -0.4775
16361TIP3   OH270573   2.322   3.568   3.438 -0.3499  0.2481  0.4198
16361TIP3    H170574   2.401   3.522   3.410 -1.9660 -3.3474  1.1895
16361TIP3    H270575   2.292   3.613   3.359  2.3276  1.6335  0.0965
16362TIP3   OH270576   1.762   1.598  14.824  0.3790 -0.1688  0.0095
16362TIP3    H170577   1.711   1.673  14.794  0.1850 -0.7624 -1.2287
16362TIP3    H270578   1.713   1.522  14.794  0.3621 -0.8171  1.6048
16363TIP3   OH270579   0.065   1.311  14.067  0.8577  0.2631  0.5518
16363TIP3    H170580   0.014   1.256  14.007  0.2419  0.7303  0.6465
16363TIP3    H270581   0.064   1.264  14.150  0.2437  0.4580  0.6604
16364TIP3   OH270582   4.931   6.263  12.959  0.1672  0.5072 -0.4424
16364TIP3    H170583   4.839   6.285  12.973 -0.3377 -1.2520 -0.7559
16364TIP3    H270584   4.974   6.347  12.946 -0.9029  1.6014  2.3777
16365TIP3   OH270585   1.926   5.280  13.710 -0.3891 -0.1160 -0.5292
16365TIP3    H170586   1.999   5.312  13.762  0.6231 -0.1411 -1.8615
16365TIP3    H270587   1.887   5.211  13.763  0.3438  0.1351  0.3583
16366TIP3   OH270588   3.459   1.657  13.530  0.1053  0.0819  0.4124
16366TIP3    H170589   3.383   1.695  13.486 -0.0904  0.2397  0.8896
16366TIP3    H270590   3.423   1.603  13.600  0.4552  1.7354  1.9331
16367TIP3   OH270591   4.561   5.185   0.594 -0.0507 -0.2155  0.0876
16367TIP3    H170592   4.590   5.276   0.587  2.3133 -0.8851  0.1651
16367TIP3    H270593   4.506   5.183   0.672 -0.2341  1.1560  0.0168
16368TIP3   OH270594   5.859   0.846  15.227  0.5463  0.2610  0.1690
16368TIP3    H170595   5.856   0.910  15.298 -0.3980  0.3517  0.0619
16368TIP3    H270596   5.863   0.761  15.271  1.0850  0.3638  0.3187
16369TIP3   OH270597   6.471   5.993   2.339  0.4605  0.0755  0.2200
16369TIP3    H170598   6.463   5.901   2.365  0.1645 -0.0094 -0.1530
16369TIP3    H270599   6.482   5.989   2.244  0.4434  0.4264  0.2034
16370TIP3   OH270600   0.332   3.352   3.480 -0.1281  0.0761  0.4647
16370TIP3    H170601   0.308   3.384   3.567 -0.1230  1.9167 -0.1720
16370TIP3    H270602   0.425   3.370   3.473 -0.5762  2.2302 -0.7936
16371TIP3   OH270603   3.992   3.511  11.396 -0.6252  0.3294 -0.5864
16371TIP3    H170604   3.993   3.587  11.454 -1.2675 -0.7897  0.9710
16371TIP3    H270605   3.901   3.480  11.399 -0.5408 -0.0680 -1.7928
16372TIP3   OH270606   0.952   0.787  15.207 -0.4029 -0.4253 -0.2531
16372TIP3    H170607   0.903   0.844  15.148  0.9077 -0.6051 -1.5707
16372TIP3    H270608   0.889   0.764  15.275 -1.7639  0.3512 -1.1909
16373TIP3   OH270609   1.748   1.317   4.145 -0.0059 -0.0443  0.1174
16373TIP3    H170610   1.721   1.233   4.109 -0.5113 -0.3888  1.2324
16373TIP3    H270611   1.816   1.349   4.086  0.2299 -1.2609 -0.2926
16374TIP3   OH270612   3.681   0.669   0.918 -0.1360  0.1299  0.3586
16374TIP3    H170613   3.659   0.744   0.861  1.2847  1.0111  0.9076
16374TIP3    H270614   3.758   0.630   0.876  0.9212  0.7786  1.6129
16375TIP3   OH270615   1.737   6.054  16.643  0.1041  0.4141 -0.6617
16375TIP3    H170616   1.693   6.015  16.568 -0.7588 -0.8749  0.4796
16375TIP3    H270617   1.678   6.039  16.717  2.3672 -1.3868  0.9293
16376TIP3   OH270618   5.656   3.546   6.321  0.3692 -0.3330  0.5298
16376TIP3    H170619   5.617   3.630   6.346  1.2048  0.1295  0.3306
16376TIP3    H270620   5.663   3.550   6.226  0.1391 -0.7590  0.4921
16377TIP3   OH270621   1.593   1.949  13.203  0.6056  0.1290  0.0657
16377TIP3    H170622   1.614   1.897  13.281  0.2210 -0.3742 -0.1579
16377TIP3    H270623   1.677   1.982  13.173  1.1354 -1.8996 -0.8555
16378TIP3   OH270624   6.525   0.136  16.344 -0.5940  0.5387  0.4020
16378TIP3    H170625   6.564   0.162  16.261 -0.1060  1.2295  0.8368
16378TIP3    H270626   6.472   0.059  16.322  0.9554 -0.4171 -0.2207
16379TIP3   OH270627   1.050   2.849  17.031 -0.1195  0.1429 -0.0769
16379TIP3    H170628   0.967   2.804  17.016  0.3191 -0.9713  0.6297
16379TIP3    H270629   1.094   2.795  17.098  1.0269  0.8827 -0.2062
16380TIP3   OH270630   6.256   1.296   4.451 -0.4912  0.8738 -0.1683
16380TIP3    H170631   6.169   1.288   4.491 -0.1501  0.2979  0.4940
16380TIP3    H270632   6.245   1.261   4.363 -0.6467 -0.4640  0.3494
16381TIP3   OH270633   0.097   4.886  14.116 -0.3709 -0.6422  0.4548
16381TIP3    H170634   0.166   4.949  14.134 -0.7547 -0.4346  1.2487
16381TIP3    H270635   0.110   4.817  14.181 -1.0458 -0.4838  0.7690
16382TIP3   OH270636   6.272   3.687  15.022  0.3287 -0.4194  0.2977
16382TIP3    H170637   6.203   3.660  15.081 -0.6818  2.0304  0.3306
16382TIP3    H270638   6.334   3.613  15.022 -0.9762 -1.5953  2.2499
16383TIP3   OH270639   5.674   5.231   6.722 -0.5400  0.3291  0.4257
16383TIP3    H170640   5.597   5.182   6.692  0.1665 -0.6752  0.2103
16383TIP3    H270641   5.705   5.182   6.798 -0.8241  1.4379  1.2923
16384TIP3   OH270642   1.399   4.364   2.160 -0.2514  0.0603 -0.5984
16384TIP3    H170643   1.398   4.271   2.137 -0.5712  0.1649 -1.0294
16384TIP3    H270644   1.372   4.409   2.079  1.8184  0.6725 -1.0048
16385TIP3   OH270645   5.623   1.420  15.359 -0.0814  0.8238  0.0169
16385TIP3    H170646   5.706   1.372  15.354 -0.4465  0.2489 -0.5978
16385TIP3    H270647   5.646   1.510  15.337  0.2797  0.5565 -0.7099
16386TIP3   OH270648   4.179   2.182   3.486  0.3278  0.1022 -0.3296
16386TIP3    H170649   4.126   2.229   3.422 -1.0251 -1.5579 -0.5001
16386TIP3    H270650   4.250   2.242   3.508 -0.0262  1.2914 -2.2534
16387TIP3   OH270651   0.452   4.254   6.964 -0.0005 -0.5879  0.3202
16387TIP3    H170652   0.365   4.214   6.966  0.7044 -2.3337  3.6689
16387TIP3    H270653   0.442   4.336   7.013  0.0575 -0.2808 -0.1740
16388TIP3   OH270654   3.288   1.913  13.880  0.0431  0.2507 -0.1984
16388TIP3    H170655   3.339   1.992  13.862 -0.3793  0.3873 -0.8463
16388TIP3    H270656   3.351   1.841  13.875  0.3300  0.4990 -0.1391
16389TIP3   OH270657   6.119   2.230  12.953  0.1015 -0.2823 -1.0470
16389TIP3    H170658   6.065   2.306  12.973  0.6839  0.6278 -2.7354
16389TIP3    H270659   6.194   2.237  13.013 -1.4218 -1.4073  1.1118
16390TIP3   OH270660   5.125   3.683  11.215 -0.5800 -0.1157  0.0367
16390TIP3    H170661   5.192   3.638  11.267 -0.2312 -0.2773 -0.5378
16390TIP3    H270662   5.173   3.716  11.138 -1.0342  0.3394 -0.0548
16391TIP3   OH270663   5.334   3.960  11.579  0.4454  0.0321  0.4266
16391TIP3    H170664   5.411   3.941  11.526  0.1350  1.9644 -0.8291
16391TIP3    H270665   5.342   4.054  11.599 -0.9288 -0.0251  1.3866
16392TIP3   OH270666   1.133   3.208  16.763  0.0257  0.4712  0.4446
16392TIP3    H170667   1.216   3.257  16.759  0.5822 -0.4415  0.6150
16392TIP3    H270668   1.128   3.164  16.678 -1.1691  1.9057 -0.2669
16393TIP3   OH270669   6.286   5.936  13.369 -0.7022  0.5989  0.1818
16393TIP3    H170670   6.275   5.844  13.393  2.1016  0.1629  0.1571
16393TIP3    H270671   6.278   5.938  13.274  1.9962 -0.2078 -0.1407
16394TIP3   OH270672   5.677   4.155  14.564  0.4292  0.2948  0.3007
16394TIP3    H170673   5.702   4.112  14.646  0.7830 -0.0746 -0.0012
16394TIP3    H270674   5.674   4.085  14.500  1.3667  0.7572 -0.2777
16395TIP3   OH270675   0.414   1.866   3.603 -0.0759  0.5685 -0.0464
16395TIP3    H170676   0.336   1.834   3.649  0.0031  0.4618  0.0135
16395TIP3    H270677   0.392   1.861   3.510  1.0468 -2.6914 -0.2678
16396TIP3   OH270678   0.644   4.531  14.902 -0.3914 -0.0136 -0.2768
16396TIP3    H170679   0.713   4.581  14.945 -1.2235  2.6288 -1.7834
16396TIP3    H270680   0.577   4.518  14.969  0.7925 -1.0905  0.7256
16397TIP3   OH270681   5.314   4.145  14.450  0.5879 -0.0327  0.4064
16397TIP3    H170682   5.312   4.141  14.354 -0.0143  2.6864  0.2183
16397TIP3    H270683   5.228   4.111  14.476 -0.7813  2.5715 -0.3269
16398TIP3   OH270684   0.532   2.214  14.131  0.0691 -0.2951 -0.6455
16398TIP3    H170685   0.593   2.288  14.136 -0.0388 -0.2970  1.3816
16398TIP3    H270686   0.514   2.191  14.222  1.0067 -3.5971 -1.1568
16399TIP3   OH270687   1.423   5.889   3.941  0.1976 -0.1764 -0.1777
16399TIP3    H170688   1.388   5.956   3.999 -1.0404 -0.3611 -0.6923
16399TIP3    H270689   1.446   5.936   3.860  0.3491 -0.1975 -0.1476
16400TIP3   OH270690   4.397   3.554  12.244  0.0130  0.4904  0.1885
16400TIP3    H170691   4.306   3.582  12.238  0.0057  0.6219  0.8428
16400TIP3    H270692   4.404   3.480  12.183 -1.2025 -1.2410  1.9987
16401TIP3   OH270693   5.203   3.382  13.173 -0.0858 -0.1676 -0.6488
16401TIP3    H170694   5.271   3.314  13.176 -1.7840 -1.9964 -1.0301
16401TIP3    H270695   5.129   3.339  13.130 -1.4855  1.7559 -0.2945
16402TIP3   OH270696   5.251   2.169  10.923  0.6084  0.7325 -0.2855
16402TIP3    H170697   5.179   2.220  10.960  0.8485  0.9744 -0.1519
16402TIP3    H270698   5.330   2.214  10.952  0.9394 -0.9380  1.7575
16403TIP3   OH270699   5.970   4.183  13.455  0.1188 -0.6393 -0.3019
16403TIP3    H170700   5.930   4.142  13.378  0.3525  0.4302 -1.0190
16403TIP3    H270701   6.060   4.151  13.455  0.1421 -0.5750 -0.5305
16404TIP3   OH270702   2.020   3.508   6.549  0.0002 -0.4755  0.2911
16404TIP3    H170703   2.046   3.418   6.566 -0.3135 -0.0023  4.2491
16404TIP3    H270704   2.091   3.545   6.497 -0.0113 -3.0129 -1.6921
16405TIP3   OH270705   2.573   3.393  11.750 -0.1066  0.3434 -0.0673
16405TIP3    H170706   2.560   3.304  11.717 -0.7229  0.0240  0.9825
16405TIP3    H270707   2.487   3.419  11.784  0.7918 -0.0117  2.8101
16406TIP3   OH270708   5.082   4.314  16.637 -0.3188  0.1505  0.0053
16406TIP3    H170709   5.119   4.240  16.686  2.2566  1.5750  0.3556
16406TIP3    H270710   5.101   4.295  16.546 -0.5188 -0.0574  0.0044
16407TIP3   OH270711   2.837   6.141   3.298  0.9698 -0.6523 -0.5588
16407TIP3    H170712   2.844   6.217   3.356  2.0583 -1.4434  0.4022
16407TIP3    H270713   2.926   6.106   3.295  0.6173 -1.4856 -1.5460
16408TIP3   OH270714   3.763   1.657  11.465 -0.2126  0.1537  0.5593
16408TIP3    H170715   3.753   1.745  11.430  1.1221 -0.6066 -2.0135
16408TIP3    H270716   3.691   1.647  11.528 -0.3730  3.0231  0.9356
16409TIP3   OH270717   3.807   4.783  16.000  0.5216 -0.2906  0.0205
16409TIP3    H170718   3.801   4.687  15.997  2.9667 -0.4832 -2.1243
16409TIP3    H270719   3.849   4.802  16.084  2.1690 -1.3145 -0.5352
16410TIP3   OH270720   1.186   1.310  15.418  0.4430  0.0180 -0.1517
16410TIP3    H170721   1.109   1.363  15.398  0.9711  0.3095 -1.5402
16410TIP3    H270722   1.227   1.295  15.333  1.3950 -0.9509  0.4547
16411TIP3   OH270723   6.179   6.490  16.095 -0.3421 -0.4309 -0.5434
16411TIP3    H170724   6.251   6.448  16.048 -1.4152 -0.3278 -2.3668
16411TIP3    H270725   6.216   6.512  16.181  2.2981  1.1191 -1.9613
16412TIP3   OH270726   2.318   3.603   2.471  0.9309 -0.3768  0.0637
16412TIP3    H170727   2.346   3.676   2.526 -0.2667 -0.5004  0.8760
16412TIP3    H270728   2.366   3.528   2.507 -0.9898 -0.7634  2.0552
16413TIP3   OH270729   3.080   3.458  10.428  0.1943  0.4058 -0.1266
16413TIP3    H170730   3.024   3.389  10.392 -0.0410  0.7216 -0.3702
16413TIP3    H270731   3.055   3.464  10.520  0.1957  0.1814 -0.1125
16414TIP3   OH270732   1.887   6.126  13.617  0.3640  0.3134  0.5502
16414TIP3    H170733   1.845   6.146  13.700  2.1082  1.3469  1.2277
16414TIP3    H270734   1.980   6.117  13.638  1.0061  1.6191 -1.4153
16415TIP3   OH270735   1.125   2.582  12.037  0.8489  0.0832  0.5650
16415TIP3    H170736   1.172   2.659  12.069  0.6659 -0.0665  1.2149
16415TIP3    H270737   1.178   2.549  11.964  1.7698 -0.1028  1.3017
16416TIP3   OH270738   3.652   6.465  16.146  0.1537 -1.0360  0.8608
16416TIP3    H170739   3.729   6.517  16.125  0.9889 -2.2532  0.7643
16416TIP3    H270740   3.588   6.527  16.181  0.8387  0.1309  0.0666
16417TIP3   OH270741   5.855   1.179  13.942  0.8449 -0.2803 -0.0700
16417TIP3    H170742   5.915   1.251  13.963  0.8923 -0.5330  0.6646
16417TIP3    H270743   5.870   1.114  14.010  0.1469 -0.5962 -0.2103
16418TIP3   OH270744   6.122   6.161  13.802  0.6781  0.1460  0.4204
16418TIP3    H170745   6.095   6.242  13.759 -0.1332 -0.1245  0.3989
16418TIP3    H270746   6.115   6.180  13.895 -1.0877 -0.3825  0.4241
16419TIP3   OH270747   3.838   6.473   3.584  0.5963  0.5677 -0.0177
16419TIP3    H170748   3.788   6.548   3.552  0.7429  0.4502 -0.5186
16419TIP3    H270749   3.894   6.448   3.511  2.8562  1.9430  1.0933
16420TIP3   OH270750   5.381   6.020  12.676  0.5374  0.3214  0.3120
16420TIP3    H170751   5.452   6.076  12.643  0.2782  1.2755  1.2954
16420TIP3    H270752   5.363   5.959  12.604 -0.2886  2.5511 -1.5241
16421TIP3   OH270753   3.744   6.071   0.791  0.7965  0.3445 -0.4197
16421TIP3    H170754   3.806   6.004   0.762  0.1239 -0.7970  0.6854
16421TIP3    H270755   3.658   6.031   0.776  0.4096  0.2461  1.7878
16422TIP3   OH270756   6.278   6.355   2.400 -0.1751 -0.3228 -0.7879
16422TIP3    H170757   6.231   6.432   2.432  0.8234  0.1075 -0.3280
16422TIP3    H270758   6.313   6.313   2.479  0.1904 -0.6541 -1.1205
16423TIP3   OH270759   2.196   3.300   1.692  0.0075 -0.5684 -0.0583
16423TIP3    H170760   2.174   3.306   1.785  0.1419 -1.0995  0.0095
16423TIP3    H270761   2.283   3.260   1.691  0.3286  0.1261 -0.3847
16424TIP3   OH270762   6.311   6.059  13.638 -0.2723 -0.2021  0.0864
16424TIP3    H170763   6.241   6.086  13.696 -0.5664  0.2844 -0.4780
16424TIP3    H270764   6.267   6.038  13.555  0.2389  0.1282 -0.2775
16425TIP3   OH270765   2.403   2.532   6.069  0.2593  0.0850 -0.3276
16425TIP3    H170766   2.376   2.480   6.144  0.8073  0.0995 -0.1195
16425TIP3    H270767   2.484   2.575   6.096 -0.2839  1.2111 -0.4227
16426TIP3   OH270768   2.969   6.014  11.323 -0.1764 -0.0240  0.0866
16426TIP3    H170769   2.917   6.007  11.403 -2.8914  0.8692 -1.5013
16426TIP3    H270770   3.005   6.103  11.326 -0.0761 -0.0706  0.3853
16427TIP3   OH270771   3.855   2.214  16.237  0.3581  0.1284 -0.5151
16427TIP3    H170772   3.772   2.168  16.251  0.3470  0.8748  2.4435
16427TIP3    H270773   3.846   2.296  16.286  2.5309  0.6185 -0.8310
16428TIP3   OH270774   3.104   0.249   0.360 -0.1343 -0.5218 -0.6704
16428TIP3    H170775   3.033   0.279   0.416 -0.1813 -2.6807  0.5362
16428TIP3    H270776   3.061   0.210   0.284 -0.2983 -1.9408  0.1186
16429TIP3   OH270777   0.141   0.009  15.625  0.0137  0.5865  0.2231
16429TIP3    H170778   0.086   0.087  15.636 -0.1560  0.2663  1.7644
16429TIP3    H270779   0.083  -0.064  15.644  0.8176  0.2202  1.3631
16430TIP3   OH270780   1.549   1.145  15.348  0.6590  0.5341  0.0097
16430TIP3    H170781   1.599   1.091  15.287  0.2417 -0.4591  0.5351
16430TIP3    H270782   1.532   1.226  15.300  0.8761  0.0141 -0.9647
16431TIP3   OH270783   4.182   0.234  11.411 -0.5550 -0.4106  0.6454
16431TIP3    H170784   4.252   0.169  11.412  0.7282  0.6519 -2.9333
16431TIP3    H270785   4.153   0.240  11.502  1.9838 -3.0131  1.7856
16432TIP3   OH270786   2.582   5.626  17.275 -0.1252 -0.7271  0.1019
16432TIP3    H170787   2.595   5.691  17.206  0.6967  0.7439  1.5767
16432TIP3    H270788   2.615   5.544  17.238  0.7498  0.1296 -1.0770
16433TIP3   OH270789   2.864   4.286   0.680  0.2948 -0.7534  0.1552
16433TIP3    H170790   2.916   4.293   0.760 -1.2599  1.3710  1.0937
16433TIP3    H270791   2.813   4.206   0.692 -0.9865  0.2551  2.0789
16434TIP3   OH270792   1.709   1.447  16.712 -0.5609  0.7996  0.6290
16434TIP3    H170793   1.625   1.481  16.741 -1.2785 -0.9292  0.7224
16434TIP3    H270794   1.769   1.466  16.785 -1.2254  0.7288  1.2058
16435TIP3   OH270795   5.654   6.250  11.213  0.1641 -0.3197 -0.5535
16435TIP3    H170796   5.711   6.179  11.241  2.5790  1.4959 -0.5286
16435TIP3    H270797   5.712   6.326  11.205 -2.5230  2.1755  1.3465
16436TIP3   OH270798   6.745   1.006  16.388 -0.3833  0.1284 -0.2683
16436TIP3    H170799   6.791   0.926  16.363  0.6542  0.9331 -0.9540
16436TIP3    H270800   6.685   0.977  16.458 -1.6753 -1.6899 -2.0054
16437TIP3   OH270801   0.222   0.984   5.538 -0.3631 -0.2006 -0.4230
16437TIP3    H170802   0.282   0.960   5.609 -0.2350  1.0322 -0.0922
16437TIP3    H270803   0.195   1.073   5.559 -1.6269 -0.4190 -1.0525
16438TIP3   OH270804   6.629   5.095   5.479 -0.0374  0.7667 -0.1189
16438TIP3    H170805   6.536   5.107   5.496 -0.3649 -1.4492  0.0201
16438TIP3    H270806   6.633   5.056   5.392  0.6148 -0.4675  0.4264
16439TIP3   OH270807   0.519   6.755   4.069  0.0165  0.1780 -0.6576
16439TIP3    H170808   0.429   6.786   4.076 -0.6049 -1.8022  0.9109
16439TIP3    H270809   0.531   6.734   3.977 -1.5438 -0.7167 -0.6740
16440TIP3   OH270810   1.669   3.910   2.730 -0.0437  0.2838  0.4396
16440TIP3    H170811   1.682   3.842   2.665  0.6517 -2.5284  3.2673
16440TIP3    H270812   1.750   3.962   2.728  0.7852 -0.9865  0.3744
16441TIP3   OH270813   3.286   0.504  10.985  0.0198 -0.0024  0.2635
16441TIP3    H170814   3.293   0.482  10.892 -1.2038 -0.5093  0.2772
16441TIP3    H270815   3.301   0.599  10.988  0.0567  0.0201 -0.4463
16442TIP3   OH270816   2.087   3.871  10.775  0.1077  0.4083  0.0882
16442TIP3    H170817   2.140   3.802  10.734  0.3766  0.3364  0.5449
16442TIP3    H270818   2.151   3.923  10.823 -0.1344  0.8163 -0.0348
16443TIP3   OH270819   2.005   5.510  14.178  0.3340  0.6716 -0.1350
16443TIP3    H170820   2.071   5.454  14.138 -0.1684  0.7477 -1.1012
16443TIP3    H270821   1.929   5.454  14.189 -0.0315  1.0482 -0.7129
16444TIP3   OH270822   5.931   2.752  16.135 -0.3636  0.1870 -1.1423
16444TIP3    H170823   6.022   2.726  16.125 -0.3682 -1.2457  1.7837
16444TIP3    H270824   5.929   2.803  16.216 -2.3039 -0.7936 -0.5052
16445TIP3   OH270825   5.732   3.419  10.829 -0.3325  0.2823  0.8330
16445TIP3    H170826   5.771   3.332  10.837  1.3810  0.9276  0.1328
16445TIP3    H270827   5.798   3.478  10.866 -1.7482  1.2558  1.9321
16446TIP3   OH270828   5.245   1.609   4.584  0.4106  0.1430 -0.0925
16446TIP3    H170829   5.252   1.681   4.521  0.3587 -0.8864 -1.3171
16446TIP3    H270830   5.336   1.585   4.604  0.4537  1.3702  1.3328
16447TIP3   OH270831   2.661   0.264  15.102  0.3222  0.2699 -0.3530
16447TIP3    H170832   2.571   0.293  15.084 -0.4002 -0.3410  1.9596
16447TIP3    H270833   2.688   0.218  15.022 -0.8138  1.7684 -1.6839
16448TIP3   OH270834   1.170   0.898   2.947 -0.1960  0.0186 -0.2582
16448TIP3    H170835   1.121   0.973   2.914 -0.6928  0.6334  1.7236
16448TIP3    H270836   1.255   0.935   2.974 -0.8335  0.1444  1.7342
16449TIP3   OH270837   1.910   4.095   4.381 -0.6332  0.2980  0.1993
16449TIP3    H170838   1.886   4.002   4.378 -0.9582  0.4202 -2.1932
16449TIP3    H270839   1.954   4.104   4.466  0.9243 -2.4263 -0.1731
16450TIP3   OH270840   0.064   2.665   6.308 -0.3656  0.1580 -0.1803
16450TIP3    H170841   0.135   2.712   6.351 -0.1542  2.1897 -2.5290
16450TIP3    H270842  -0.015   2.710   6.337 -0.6100 -1.0800  1.1768
16451TIP3   OH270843   5.445   6.361  14.250  0.4273 -0.1178 -0.6404
16451TIP3    H170844   5.507   6.325  14.186  0.5260 -0.7624 -0.1948
16451TIP3    H270845   5.483   6.339  14.335 -0.7886 -1.2296 -0.3529
16452TIP3   OH270846   3.229   2.262  16.217  0.7206 -0.3144 -0.6796
16452TIP3    H170847   3.176   2.314  16.157  1.7349  1.8160  0.1798
16452TIP3    H270848   3.310   2.245  16.168  2.2496  2.8350  0.4728
16453TIP3   OH270849   4.874   3.421  13.741  0.2292 -0.1103  0.8630
16453TIP3    H170850   4.949   3.421  13.682 -0.3879 -0.7576  0.0469
16453TIP3    H270851   4.816   3.489  13.707 -0.1947 -0.5825  0.6181
16454TIP3   OH270852   0.037   6.066  15.755 -0.1819  0.3421 -0.5455
16454TIP3    H170853   0.119   6.047  15.800 -1.1668  0.1489  1.2697
16454TIP3    H270854   0.063   6.097  15.668  1.9046  2.6878  0.7975
16455TIP3   OH270855   3.052   2.100  14.234 -0.2731 -0.1381  0.4211
16455TIP3    H170856   2.960   2.085  14.213 -0.4767 -0.2336  1.3268
16455TIP3    H270857   3.093   2.014  14.226 -0.0157  0.0961 -1.0737
16456TIP3   OH270858   2.258   4.314  10.785  0.3314  0.4549 -0.0128
16456TIP3    H170859   2.198   4.329  10.712 -2.0704  0.7620  1.8798
16456TIP3    H270860   2.303   4.398  10.797  0.0751  0.6771 -0.5742
16457TIP3   OH270861   2.735   3.825   4.359  0.0967  0.6653  0.2912
16457TIP3    H170862   2.797   3.893   4.385  1.5813 -0.3582 -0.3881
16457TIP3    H270863   2.702   3.853   4.274  0.7299  0.5604 -0.0005
16458TIP3   OH270864   2.233   5.697  11.676 -0.3411  0.3326 -0.2218
16458TIP3    H170865   2.156   5.670  11.625 -0.2956  2.2376 -1.3864
16458TIP3    H270866   2.274   5.615  11.702 -1.6940 -0.7168 -1.2438
16459TIP3   OH270867   0.589   2.689  16.146 -0.2529 -0.1497 -0.3739
16459TIP3    H170868   0.670   2.661  16.187  1.1289  1.0602 -2.0843
16459TIP3    H270869   0.553   2.610  16.106  1.1166 -0.3819 -1.2037
16460TIP3   OH270870   1.640   2.256  14.502 -0.3415  0.4061  0.4385
16460TIP3    H170871   1.705   2.286  14.565  0.0496 -0.2590  0.3634
16460TIP3    H270872   1.594   2.185  14.547  0.7919 -0.9379 -0.4588
16461TIP3   OH270873   1.700   0.368  14.406 -0.2667  0.1845  0.3689
16461TIP3    H170874   1.738   0.303  14.465  0.8285  1.4454  1.0927
16461TIP3    H270875   1.770   0.388  14.344 -0.5216  0.8285  0.2803
16462TIP3   OH270876   6.456   5.853  16.575  0.1191  0.8054 -0.1138
16462TIP3    H170877   6.402   5.854  16.654  2.2732  0.9743  1.4677
16462TIP3    H270878   6.481   5.944  16.561  1.3841  0.5258  0.2353
16463TIP3   OH270879   2.949   4.766  13.426  0.0359 -0.0628  0.7913
16463TIP3    H170880   2.918   4.779  13.516 -1.8871 -0.6624  0.2529
16463TIP3    H270881   2.950   4.854  13.388 -1.6088 -0.0839  0.6597
16464TIP3   OH270882   6.014   2.046  11.866  0.6315  0.2259  0.2103
16464TIP3    H170883   6.054   2.131  11.851  1.2445 -0.1111 -0.0917
16464TIP3    H270884   5.926   2.054  11.830  0.4625  0.9351  0.7781
16465TIP3   OH270885   1.028   4.780  13.932 -1.1932  0.1800 -0.4527
16465TIP3    H170886   0.934   4.794  13.924 -1.3941  0.2176  1.5242
16465TIP3    H270887   1.062   4.861  13.970 -0.9226 -0.9778  2.0026
16466TIP3   OH270888   6.703   5.978   0.993  0.3226 -0.6696 -0.4408
16466TIP3    H170889   6.651   5.964   1.072 -0.4105  1.3087 -0.5152
16466TIP3    H270890   6.716   6.073   0.989  0.7433 -0.7597 -2.4501
16467TIP3   OH270891   6.178   6.631  11.098 -0.4360 -0.3601 -0.0274
16467TIP3    H170892   6.115   6.559  11.096  1.0030 -1.6748 -0.9953
16467TIP3    H270893   6.213   6.635  11.009 -1.1096  2.1866 -0.2526
16468TIP3   OH270894   5.156   6.456  15.582 -0.3350  0.0254 -0.5613
16468TIP3    H170895   5.085   6.457  15.646  0.8153 -1.5540  0.8216
16468TIP3    H270896   5.125   6.396  15.513  0.1074 -1.7124  0.6737
16469TIP3   OH270897   3.025   1.258   3.107  0.1400 -0.3702 -0.3222
16469TIP3    H170898   2.976   1.337   3.087 -1.5117 -0.5285  2.5347
16469TIP3    H270899   3.049   1.222   3.022 -0.5281  2.2802 -1.7268
16470TIP3   OH270900   0.377   4.910  13.216  0.1773  0.0992 -0.4745
16470TIP3    H170901   0.369   4.888  13.309 -1.3246 -0.7615 -0.7862
16470TIP3    H270902   0.460   4.959  13.211  0.9850 -1.0141  1.0774
16471TIP3   OH270903   3.058   6.518  14.878  0.4691  0.6831 -0.0451
16471TIP3    H170904   3.029   6.514  14.787  0.2762 -0.7899  0.0600
16471TIP3    H270905   2.993   6.572  14.922 -0.6403 -0.3517 -0.3662
16472TIP3   OH270906   0.108   0.480  12.088  0.1297  0.0935 -0.0154
16472TIP3    H170907   0.160   0.428  12.149 -1.3842 -0.3758  0.9137
16472TIP3    H270908   0.099   0.565  12.131  0.1944  0.2016 -0.2154
16473TIP3   OH270909   1.861   6.322   1.618  0.0524  0.5574  0.3213
16473TIP3    H170910   1.769   6.301   1.605  0.8079 -1.7200 -2.3652
16473TIP3    H270911   1.884   6.278   1.701 -1.1104  0.5912  0.6785
16474TIP3   OH270912   2.384   1.496   1.743 -0.7224  0.8476  0.0771
16474TIP3    H170913   2.357   1.525   1.656 -1.3223 -0.5223 -0.2223
16474TIP3    H270914   2.416   1.575   1.786 -2.8386  2.0636 -0.4609
16475TIP3   OH270915   6.322   6.722  11.826  0.0958  0.0760  0.2142
16475TIP3    H170916   6.364   6.689  11.906 -0.0017  0.7245  0.5445
16475TIP3    H270917   6.228   6.712  11.843  0.0728  0.2902  0.2206
16476TIP3   OH270918   1.330   2.593  14.811 -0.4553 -0.0006  0.5475
16476TIP3    H170919   1.395   2.522  14.812 -1.1696 -0.6780  0.1489
16476TIP3    H270920   1.373   2.666  14.854 -0.3563 -1.2891  2.7941
16477TIP3   OH270921   2.249   6.697  16.281 -0.6051  0.0877 -0.0833
16477TIP3    H170922   2.301   6.661  16.210 -1.1091 -2.8946  0.8917
16477TIP3    H270923   2.304   6.685  16.359 -1.3581  0.1576  0.4695
16478TIP3   OH270924   5.013   2.989  10.551  0.3849 -0.6033  0.1862
16478TIP3    H170925   4.919   2.988  10.536  0.5603 -1.1241 -1.0329
16478TIP3    H270926   5.034   2.899  10.579  0.3837 -0.2157  1.4825
16479TIP3   OH270927   3.178   1.880  15.257 -0.4092  0.2791 -0.3498
16479TIP3    H170928   3.143   1.806  15.306  1.2856 -0.5603 -0.3176
16479TIP3    H270929   3.220   1.936  15.322  1.0751 -0.3897 -0.6800
16480TIP3   OH270930   2.034   3.006   0.180  0.2374 -0.1748 -0.0453
16480TIP3    H170931   1.975   3.012   0.105  0.1090  0.9117  0.1228
16480TIP3    H270932   2.071   2.918   0.175  1.7510  0.4897 -2.5433
16481TIP3   OH270933   0.211   3.371  13.506  0.0613 -0.3086  0.0065
16481TIP3    H170934   0.297   3.330  13.516 -0.6980 -1.5733  1.9677
16481TIP3    H270935   0.207   3.436  13.577 -0.5686 -0.1754 -0.1399
16482TIP3   OH270936   2.566   0.001  13.062 -0.1923  0.4865  0.6001
16482TIP3    H170937   2.575  -0.022  12.970 -0.6703 -0.5521  0.7954
16482TIP3    H270938   2.478   0.036  13.069 -1.2498 -2.0612  1.1332
16483TIP3   OH270939   5.733   1.754   1.863  0.6520 -0.1818  0.4093
16483TIP3    H170940   5.677   1.812   1.914  0.8201 -0.2109  0.6251
16483TIP3    H270941   5.780   1.813   1.804  1.4141 -0.0075  1.1741
16484TIP3   OH270942   2.485   4.038   4.040 -0.4243 -0.0987 -0.2516
16484TIP3    H170943   2.397   4.045   4.076 -1.0019 -2.5623 -1.0537
16484TIP3    H270944   2.509   4.129   4.018 -2.7661  0.6128 -0.0950
16485TIP3   OH270945   2.668   1.871  15.980 -0.4605 -0.2401 -0.3635
16485TIP3    H170946   2.721   1.839  15.907 -1.1269 -1.1781 -0.4615
16485TIP3    H270947   2.722   1.938  16.022  0.1146  0.0040 -1.4460
16486TIP3   OH270948   3.560   4.144  11.584  0.4347 -0.2506 -0.0729
16486TIP3    H170949   3.487   4.097  11.625  1.3568 -1.9106 -0.2520
16486TIP3    H270950   3.638   4.110  11.627  1.2719 -0.4387 -1.6600
16487TIP3   OH270951   4.566   0.394   3.135  0.3663 -0.4728 -0.5519
16487TIP3    H170952   4.649   0.353   3.108  0.5354 -0.7380  0.3416
16487TIP3    H270953   4.509   0.320   3.156  0.2630 -0.2722 -0.1196
16488TIP3   OH270954   2.467   0.692  15.204 -0.5273  0.5560 -0.6095
16488TIP3    H170955   2.393   0.741  15.169  0.1209  1.9456 -0.1095
16488TIP3    H270956   2.541   0.751  15.195  0.0368  0.2034  1.2547
16489TIP3   OH270957   1.049   5.106  13.142  0.0442 -0.0849  0.0242
16489TIP3    H170958   1.058   5.076  13.232  1.0112 -0.4111 -0.1679
16489TIP3    H270959   1.121   5.169  13.130  0.0105 -0.1498 -0.5558
16490TIP3   OH270960   6.548   4.949  14.195  0.1933  0.2981 -0.2115
16490TIP3    H170961   6.457   4.959  14.225 -0.5382 -0.7378 -1.9254
16490TIP3    H270962   6.601   4.979  14.269 -1.5373  1.1730  0.7407
16491TIP3   OH270963   0.704   1.342   5.374 -0.2405 -0.7409  0.1415
16491TIP3    H170964   0.624   1.379   5.411 -0.6382 -1.9792  0.5684
16491TIP3    H270965   0.751   1.307   5.449  2.9343  3.7323  0.6330
16492TIP3   OH270966   2.968   4.364   5.895 -0.2002 -0.2543  0.3225
16492TIP3    H170967   2.969   4.431   5.963  0.6377  1.9717 -1.7727
16492TIP3    H270968   2.875   4.351   5.876 -0.4108 -0.4383  1.4097
16493TIP3   OH270969   4.893   5.543   0.954 -0.3442 -0.6021 -0.8400
16493TIP3    H170970   4.818   5.584   0.998  1.9620  3.4032 -0.1592
16493TIP3    H270971   4.898   5.588   0.869  2.7176  1.3446  0.2046
16494TIP3   OH270972   0.973   1.776  14.905 -0.2101  0.1253  0.4758
16494TIP3    H170973   0.980   1.734  14.819 -1.5540  1.5601 -0.3745
16494TIP3    H270974   0.981   1.869  14.887  1.5138  0.3712  2.1866
16495TIP3   OH270975   4.163   3.326  16.052 -0.8371  0.0876  0.0479
16495TIP3    H170976   4.158   3.303  15.959  0.3096  1.8756 -0.5041
16495TIP3    H270977   4.076   3.361  16.073 -0.7906  0.6523 -0.6574
16496TIP3   OH270978   1.724   1.597   3.574  0.2051  0.3341 -0.2143
16496TIP3    H170979   1.817   1.597   3.593  0.1482  0.6135  0.0566
16496TIP3    H270980   1.699   1.689   3.570 -0.2851  0.2550  0.8206
16497TIP3   OH270981   2.727   2.969  16.676  0.0318  0.3395 -0.6266
16497TIP3    H170982   2.801   3.008  16.630 -0.0430  0.2489 -0.8238
16497TIP3    H270983   2.682   2.917  16.610 -0.6942  1.0657 -0.7191
16498TIP3   OH270984   5.926   4.470   3.805 -0.3569 -0.0366  0.0046
16498TIP3    H170985   5.831   4.478   3.797 -0.1974  0.8617 -1.2348
16498TIP3    H270986   5.953   4.427   3.724  0.4733  1.3263 -0.4604
16499TIP3   OH270987   2.566   0.821  14.220  0.0358  0.2373 -0.8425
16499TIP3    H170988   2.607   0.816  14.306 -1.0106 -0.8076 -0.3804
16499TIP3    H270989   2.516   0.740  14.212  0.5593  0.0333 -2.6740
16500TIP3   OH270990   0.816   3.178  13.773 -1.0346 -0.1194  0.3218
16500TIP3    H170991   0.731   3.183  13.729 -1.1677 -1.4628  0.3839
16500TIP3    H270992   0.795   3.177  13.867 -0.9312 -0.1234  0.3457
16501TIP3   OH270993   0.638   0.480   1.531  0.0570  0.5325  0.2279
16501TIP3    H170994   0.634   0.574   1.546 -0.2019  0.5337  0.1545
16501TIP3    H270995   0.630   0.470   1.437 -1.6498  0.3520  0.3641
16502TIP3   OH270996   4.957   4.974   5.660 -0.0873 -0.0577 -0.0511
16502TIP3    H170997   4.995   5.037   5.598 -0.2078 -0.1376 -0.2089
16502TIP3    H270998   4.941   5.025   5.739 -0.6983  0.2527 -0.3636
16503TIP3   OH270999   4.058   3.242   4.582 -0.2255  0.6649  0.0057
16503TIP3    H171000   4.065   3.190   4.662 -0.1178 -1.3892 -1.2848
16503TIP3    H271001   4.110   3.320   4.601 -1.3737  0.9445  2.4350
16504TIP3   OH271002   1.053   3.807  16.490  0.1447 -0.3735  0.1114
16504TIP3    H171003   1.123   3.860  16.529  0.1939 -1.9264  2.3734
16504TIP3    H271004   0.974   3.837  16.534  0.2563 -2.4664  1.8721
16505TIP3   OH271005   2.383   3.982   5.630  0.4549 -0.2494  0.5108
16505TIP3    H171006   2.343   3.914   5.575  1.0544 -1.6812  1.7782
16505TIP3    H271007   2.320   4.054   5.628 -1.8997 -2.1200  1.7967
16506TIP3   OH271008   1.230   0.120  16.048 -0.6734 -0.0553 -0.7219
16506TIP3    H171009   1.259   0.084  16.132  2.1417  2.7518 -0.2951
16506TIP3    H271010   1.254   0.054  15.983  0.8075 -0.5825  0.3244
16507TIP3   OH271011   3.005   5.643  15.660  0.3732  0.1886 -0.1533
16507TIP3    H171012   2.976   5.647  15.752 -1.1944 -1.3394 -0.5229
16507TIP3    H271013   2.924   5.644  15.609  1.1265 -0.7571 -1.4362
16508TIP3   OH271014   6.083   0.409  16.385  0.7756  0.2937 -0.4646
16508TIP3    H171015   6.153   0.376  16.329  0.4384 -0.1568 -0.6287
16508TIP3    H271016   6.021   0.337  16.391  0.6801  0.4289  0.2844
16509TIP3   OH271017   1.847   5.382   0.106  0.0430 -0.1897 -0.4335
16509TIP3    H171018   1.786   5.433   0.052  0.9513  2.7792  1.0843
16509TIP3    H271019   1.926   5.437   0.111  0.6067 -1.0943  2.4584
16510TIP3   OH271020   4.237   0.587   0.833 -0.0433  0.0818 -0.0071
16510TIP3    H171021   4.210   0.539   0.754  0.1659 -0.7437  0.4063
16510TIP3    H271022   4.166   0.571   0.896  0.6316 -0.7551  0.5533
16511TIP3   OH271023   6.664   3.369   3.006 -0.6760 -0.2431 -0.3498
16511TIP3    H171024   6.757   3.361   2.983 -0.2242  1.8329  0.5326
16511TIP3    H271025   6.665   3.396   3.098 -2.0823  1.4091 -0.7740
16512TIP3   OH271026   2.075   0.170   4.673 -0.2073 -0.9849 -0.3566
16512TIP3    H171027   1.982   0.190   4.662 -0.1649 -1.1920 -1.2033
16512TIP3    H271028   2.110   0.244   4.722 -0.9278 -1.1749  0.4591
16513TIP3   OH271029   1.732   1.196   1.984 -0.1841  0.1171 -0.0093
16513TIP3    H171030   1.800   1.206   1.918 -0.4479 -0.1456 -0.3253
16513TIP3    H271031   1.660   1.153   1.938 -0.2883 -0.2726  0.5065
16514TIP3   OH271032   5.735   5.105   1.177 -0.0577  0.2551  0.0305
16514TIP3    H171033   5.640   5.109   1.172 -0.0932  2.2020  1.2592
16514TIP3    H271034   5.765   5.142   1.094 -0.3508 -0.3808 -0.3679
16515TIP3   OH271035   3.965   1.254   3.130  0.2288 -0.0393 -0.1304
16515TIP3    H171036   4.057   1.247   3.104  0.8091 -0.6197  1.8814
16515TIP3    H271037   3.950   1.178   3.187 -0.2448  2.1581  2.9639
16516TIP3   OH271038   0.568   2.039   0.692 -0.7062  0.7451  0.2084
16516TIP3    H171039   0.561   2.110   0.629 -3.1457 -0.1241 -0.5986
16516TIP3    H271040   0.506   1.973   0.661 -0.0162 -0.8717  2.0612
16517TIP3   OH271041   0.284   6.814  17.192  0.3578  0.1448  0.3752
16517TIP3    H171042   0.299   6.720  17.184 -1.0543 -0.1510  0.9307
16517TIP3    H271043   0.191   6.826  17.171  0.6893  1.5336 -0.4835
16518TIP3   OH271044   0.534   6.754  13.330 -0.4927 -0.6434  0.1590
16518TIP3    H171045   0.474   6.818  13.293 -1.3225 -0.8298  1.1424
16518TIP3    H271046   0.593   6.732  13.258 -0.4028  0.9540 -0.2888
16519TIP3   OH271047   1.449   0.478  15.081  0.5845  0.3701  0.4993
16519TIP3    H171048   1.464   0.424  15.159 -1.0462 -1.6986 -0.5331
16519TIP3    H271049   1.496   0.433  15.011 -0.1513  0.7167 -0.2261
16520TIP3   OH271050   6.144   3.415   4.876 -0.0345 -0.3237  0.0715
16520TIP3    H171051   6.147   3.485   4.812  0.3689 -0.9378 -0.5987
16520TIP3    H271052   6.132   3.459   4.960  1.2394  0.6127 -0.2174
16521TIP3   OH271053   2.859   4.234   3.337 -0.5336 -0.2773  0.0681
16521TIP3    H171054   2.852   4.230   3.432  1.1923  0.0177  0.2414
16521TIP3    H271055   2.819   4.318   3.314 -0.4918 -0.1117  0.5852
16522TIP3   OH271056   5.419   6.323   1.139 -0.6467 -0.7532  0.1096
16522TIP3    H171057   5.450   6.299   1.227  2.8774  1.2031 -0.4453
16522TIP3    H271058   5.437   6.246   1.086 -2.4915 -1.8281  0.9301
16523TIP3   OH271059   4.794   6.155   3.886  0.3776  0.7919  0.4605
16523TIP3    H171060   4.866   6.146   3.949  0.9722  0.5812 -0.2326
16523TIP3    H271061   4.726   6.203   3.934  0.8257  0.6618  1.2499
16524TIP3   OH271062   6.441   4.887  16.775 -0.3481  0.2677 -0.3773
16524TIP3    H171063   6.405   4.966  16.735 -0.2536  0.6442  0.2626
16524TIP3    H271064   6.383   4.868  16.849  0.6162  0.7840  0.5595
16525TIP3   OH271065   6.200   5.602  13.310  0.2861  0.5373 -0.0077
16525TIP3    H171066   6.154   5.525  13.276 -0.1908  1.3604 -1.2921
16525TIP3    H271067   6.176   5.604  13.403 -2.4673  1.0288 -0.6487
16526TIP3   OH271068   0.697   6.687   3.096  0.4170  0.1903  0.0281
16526TIP3    H171069   0.742   6.615   3.052 -1.4556 -2.0919  1.5971
16526TIP3    H271070   0.656   6.737   3.026 -0.5650 -1.9813 -1.0350
16527TIP3   OH271071   1.549   5.131   3.132 -0.5153 -0.3759  0.2380
16527TIP3    H171072   1.564   5.193   3.203 -3.0435 -1.5185  1.9460
16527TIP3    H271073   1.549   5.184   3.052  0.1843  1.3141  1.3066
16528TIP3   OH271074   3.545   2.911  11.452  0.0655  0.4412  0.2666
16528TIP3    H171075   3.503   2.932  11.368  1.8334  0.0869 -0.7679
16528TIP3    H271076   3.566   2.818  11.445 -1.7406 -0.1710  2.0709
16529TIP3   OH271077   5.448   1.925   0.082  0.0228  0.0151 -0.0921
16529TIP3    H171078   5.471   1.949   0.172  1.6092  1.2431 -0.7685
16529TIP3    H271079   5.479   1.835   0.073 -1.2118 -0.5435  0.9048
16530TIP3   OH271080   3.371   2.326  14.926  0.0969 -0.7539 -0.3038
16530TIP3    H171081   3.343   2.281  14.846  0.9687 -1.9094  0.0155
16530TIP3    H271082   3.448   2.376  14.901 -1.3027  1.2784 -0.8428
16531TIP3   OH271083   4.047   1.276  11.358  0.2796 -0.4249  0.2348
16531TIP3    H171084   4.074   1.367  11.369 -0.6006 -0.0630 -0.4995
16531TIP3    H271085   4.085   1.230  11.434 -1.0845  0.9416  1.8153
16532TIP3   OH271086   3.052   1.383  13.631  0.6786 -0.3832  0.3210
16532TIP3    H171087   2.957   1.381  13.624  0.6712  0.1378  0.2346
16532TIP3    H271088   3.078   1.291  13.630  0.2764 -0.5089 -1.1518
16533TIP3   OH271089   0.502   5.662  15.164 -0.0978  0.2864  0.4113
16533TIP3    H171090   0.570   5.724  15.193 -1.4918  1.1772  1.9726
16533TIP3    H271091   0.450   5.712  15.101  0.5587 -0.3552 -0.6855
16534TIP3   OH271092   6.241   0.235   5.909  0.1243  0.4694 -0.0387
16534TIP3    H171093   6.185   0.160   5.890  0.2351  0.7201 -1.4820
16534TIP3    H271094   6.216   0.300   5.843 -0.7414  2.1516  1.8169
16535TIP3   OH271095   2.575   0.324  13.015 -0.0156  0.0547 -0.0008
16535TIP3    H171096   2.654   0.340  12.962 -0.4373  1.2249 -0.3125
16535TIP3    H271097   2.599   0.252  13.073  1.2220  0.2547 -0.2380
16536TIP3   OH271098   5.113   5.397  16.427 -0.4070 -0.3693 -0.4612
16536TIP3    H171099   5.079   5.347  16.502  1.6874 -2.8377 -0.9736
16536TIP3    H271100   5.179   5.455  16.465 -0.7422 -0.1781 -0.1716
16537TIP3   OH271101   5.120   5.018  13.491 -0.1449 -0.5270  0.0985
16537TIP3    H171102   5.071   5.081  13.544  2.0458  1.4437 -0.0544
16537TIP3    H271103   5.055   4.952  13.465 -1.9523  0.1713  2.5442
16538TIP3   OH271104   4.050   4.734   3.758  0.7630  0.1711 -0.0926
16538TIP3    H171105   3.996   4.683   3.818  1.2305  0.8253  0.8981
16538TIP3    H271106   4.071   4.673   3.687 -0.0818 -0.5071  0.2219
16539TIP3   OH271107   6.427   1.093  10.945  0.2450 -0.5924 -0.1327
16539TIP3    H171108   6.373   1.051  10.878  0.3802  0.8557 -1.1895
16539TIP3    H271109   6.369   1.157  10.986  0.6971 -0.1646 -0.1538
16540TIP3   OH271110   3.312   4.317   5.513  0.0964 -0.0462 -0.1595
16540TIP3    H171111   3.231   4.364   5.492  0.7653  0.0594 -2.8710
16540TIP3    H271112   3.290   4.266   5.591 -2.2657  0.7379 -0.2157
16541TIP3   OH271113   4.467   5.940  11.615 -0.3536  0.1246 -0.5751
16541TIP3    H171114   4.396   5.972  11.671 -1.2029  1.5077 -2.3326
16541TIP3    H271115   4.536   6.006  11.624  0.6630 -1.0962  0.9471
16542TIP3   OH271116   2.383   5.328  12.886  0.0491  0.4821 -0.0394
16542TIP3    H171117   2.385   5.271  12.963 -0.2873 -1.0846 -1.1516
16542TIP3    H271118   2.320   5.396  12.909  0.2775  0.2991  1.2317
16543TIP3   OH271119   0.098   0.487  13.868  0.1657  0.3523 -0.3034
16543TIP3    H171120   0.178   0.480  13.920  1.1807 -0.2842 -1.8889
16543TIP3    H271121   0.056   0.567  13.900  0.9611  0.2143  1.1730
16544TIP3   OH271122   2.633   2.531   2.600  0.0159 -0.1899 -0.3857
16544TIP3    H171123   2.614   2.524   2.694 -1.1315  0.6436 -0.5286
16544TIP3    H271124   2.552   2.566   2.562  0.7558  0.2978 -1.5721
16545TIP3   OH271125   2.213   2.359  10.813  0.2784 -0.1029 -0.3646
16545TIP3    H171126   2.145   2.356  10.746  1.7533 -1.9551 -1.8875
16545TIP3    H271127   2.192   2.287  10.872 -0.4701  0.9207  0.6549
16546TIP3   OH271128   3.784   3.334  16.710 -0.6343  0.2580 -0.9432
16546TIP3    H171129   3.712   3.272  16.726 -1.0924  0.9228 -0.3118
16546TIP3    H271130   3.817   3.311  16.624 -2.4962  0.7811 -1.8592
16547TIP3   OH271131   6.500   0.943  11.697 -0.3490 -0.1571  0.1171
16547TIP3    H171132   6.465   1.012  11.753 -2.6535 -1.4267  0.3875
16547TIP3    H271133   6.590   0.970  11.678 -1.2196  2.9945 -0.0155
16548TIP3   OH271134   6.281   5.525  12.227 -0.3469  0.1794 -0.3628
16548TIP3    H171135   6.320   5.603  12.188  0.0598  0.8828  1.3660
16548TIP3    H271136   6.337   5.453  12.197 -0.2860  0.6255 -1.3722
16549TIP3   OH271137   1.538   2.423   1.181  0.2820  0.4901 -0.0513
16549TIP3    H171138   1.587   2.344   1.157  1.9285  0.8439  1.8543
16549TIP3    H271139   1.521   2.466   1.097 -0.7251 -1.8738 -1.1429
16550TIP3   OH271140   0.572   4.183  11.556 -0.2037  0.3264 -0.3867
16550TIP3    H171141   0.510   4.221  11.493 -0.8479  1.6874  1.0078
16550TIP3    H271142   0.532   4.100  11.582 -1.4035  1.1118  0.3677
16551TIP3   OH271143   0.184   3.607  11.419 -0.3461  0.7068  0.1076
16551TIP3    H171144   0.117   3.675  11.411  0.7757  1.7541 -0.6110
16551TIP3    H271145   0.237   3.616  11.340 -0.7192 -1.6430 -0.5037
16552TIP3   OH271146   4.861   4.381  13.095 -0.1752  0.0029  0.2071
16552TIP3    H171147   4.789   4.319  13.088  0.2448 -0.6717  1.4997
16552TIP3    H271148   4.841   4.432  13.173 -0.8636  2.0037 -1.2016
16553TIP3   OH271149   0.532   6.534   5.782  0.8030 -0.3930  0.1998
16553TIP3    H171150   0.487   6.607   5.824  1.7747 -0.1151  0.7771
16553TIP3    H271151   0.507   6.542   5.690 -0.2493 -0.1972  0.4842
16554TIP3   OH271152   1.618   0.066   5.801 -0.6527  0.0893  0.7409
16554TIP3    H171153   1.676   0.123   5.751 -2.2753  0.6220 -0.6499
16554TIP3    H271154   1.592   0.119   5.877  1.1958 -0.4312  1.8004
16555TIP3   OH271155   1.974   5.136  16.056  0.0502 -0.3037  0.3773
16555TIP3    H171156   1.918   5.203  16.017  1.9377  1.3177  0.2839
16555TIP3    H271157   2.062   5.174  16.054  1.0267 -2.3349  1.4031
16556TIP3   OH271158   6.734   2.942  13.875 -0.5178 -0.2020 -0.0250
16556TIP3    H171159   6.707   2.990  13.953 -0.2183 -1.7205  1.0442
16556TIP3    H271160   6.823   2.974  13.858 -0.1288 -0.7222  0.9715
16557TIP3   OH271161   1.502   2.734   5.397 -0.1289 -0.1319 -0.4392
16557TIP3    H171162   1.539   2.711   5.312 -1.8933 -1.7322 -0.8316
16557TIP3    H271163   1.556   2.687   5.460 -0.1179 -0.6642 -0.8383
16558TIP3   OH271164   3.452   5.986   2.009  0.2654 -0.2765  0.4646
16558TIP3    H171165   3.461   5.904   2.058 -0.1020 -1.3428 -1.1451
16558TIP3    H271166   3.358   5.992   1.991  0.3063  0.4532  0.5038
16559TIP3   OH271167   1.148   6.207  16.961 -0.1237 -0.0437  0.2026
16559TIP3    H171168   1.105   6.155  17.029 -1.5530  0.1447 -0.5282
16559TIP3    H271169   1.076   6.249  16.913  0.9303  2.6603  0.7597
16560TIP3   OH271170   3.118   4.078   5.579 -0.0859  0.5854  0.2508
16560TIP3    H171171   3.191   4.026   5.546 -0.3774 -0.1086  0.6798
16560TIP3    H271172   3.151   4.121   5.657  0.2021  1.1761 -0.1898
16561TIP3   OH271173   4.562   0.686   3.371  0.4186 -0.1512  0.0347
16561TIP3    H171174   4.550   0.670   3.278 -0.8558 -1.6841  0.4073
16561TIP3    H271175   4.475   0.714   3.402  0.8686  0.5189  0.7453
16562TIP3   OH271176   3.641   2.868   3.092 -0.0715 -0.2955  0.3898
16562TIP3    H171177   3.727   2.908   3.099 -0.1178  0.3910 -2.1674
16562TIP3    H271178   3.597   2.891   3.174  1.8788 -0.0274  1.4073
16563TIP3   OH271179   4.743   3.288  12.346 -0.4254  0.0502  0.0458
16563TIP3    H171180   4.799   3.230  12.295  0.1978 -1.6315  2.4328
16563TIP3    H271181   4.654   3.259  12.326 -0.3357  0.7236 -1.4793
16564TIP3   OH271182   2.888   2.761  11.804 -0.6886  0.2212 -1.0267
16564TIP3    H171183   2.806   2.711  11.809 -0.9052  0.6394 -0.1093
16564TIP3    H271184   2.882   2.823  11.877  0.3085  0.4723 -1.1501
16565TIP3   OH271185   3.804   6.616   1.065 -0.1977 -0.2838 -0.2746
16565TIP3    H171186   3.788   6.576   1.150 -0.3973  2.1144  0.9201
16565TIP3    H271187   3.817   6.709   1.085  0.9599  0.1579 -2.7545
16566TIP3   OH271188   1.973   4.364   4.874  0.0259  0.5223  0.0189
16566TIP3    H171189   1.891   4.319   4.853  1.0976 -0.1878 -3.3317
16566TIP3    H271190   2.027   4.297   4.917  0.6038 -0.7286 -2.4392
16567TIP3   OH271191   1.950   1.744   2.939 -0.1470  0.1630 -0.1326
16567TIP3    H171192   2.001   1.822   2.917 -0.3255  0.2574 -0.2163
16567TIP3    H271193   2.011   1.671   2.928 -0.8652 -0.0968 -3.5420
16568TIP3   OH271194   1.446   2.787   3.594  0.4279  0.3580 -0.3463
16568TIP3    H171195   1.482   2.705   3.627 -0.0022  0.6441  0.8770
16568TIP3    H271196   1.374   2.761   3.537  1.8328 -0.1780 -1.9454
16569TIP3   OH271197   4.999   3.753   1.149  0.0350  0.8382  0.6626
16569TIP3    H171198   4.944   3.763   1.227  0.4269  1.0996  0.9158
16569TIP3    H271199   4.961   3.813   1.085 -1.1289 -0.4142  0.1612
16570TIP3   OH271200   1.156   3.271  12.856  0.2911 -0.2218  0.0206
16570TIP3    H171201   1.169   3.364  12.877 -0.2900 -0.3231  0.8898
16570TIP3    H271202   1.243   3.232  12.868  0.5433  0.2128 -0.3716
16571TIP3   OH271203   2.580   4.752  15.043  0.0892  0.0017 -0.3747
16571TIP3    H171204   2.485   4.747  15.054  0.0984  0.5703  0.0620
16571TIP3    H271205   2.592   4.809  14.968  0.0854  0.2192 -0.2116
16572TIP3   OH271206   6.648   3.852   5.196  0.8822  0.8497 -0.0776
16572TIP3    H171207   6.719   3.789   5.185  0.4462 -0.0562  1.8131
16572TIP3    H271208   6.572   3.810   5.157  1.5576  2.4325 -3.4506
16573TIP3   OH271209   5.738   2.407   1.351 -0.0653  0.3002 -0.0910
16573TIP3    H171210   5.646   2.419   1.329  0.0851  0.3106 -0.7370
16573TIP3    H271211   5.786   2.448   1.279  0.4487 -0.7638 -0.3893
16574TIP3   OH271212   3.817   4.601   4.316  0.0099 -0.3305 -0.4447
16574TIP3    H171213   3.906   4.623   4.289  0.0131 -0.1563 -0.2953
16574TIP3    H271214   3.763   4.627   4.242  0.0835 -0.4257 -0.5313
16575TIP3   OH271215   3.150   6.651  16.776 -0.1180  0.0297 -1.0490
16575TIP3    H171216   3.228   6.609  16.740  0.5443  0.8225 -0.5845
16575TIP3    H271217   3.171   6.667  16.868 -0.8108  0.3011 -0.9250
16576TIP3   OH271218   5.209   0.540  15.135  0.2326 -0.8003  0.8402
16576TIP3    H171219   5.217   0.477  15.064  2.8997 -0.1259  0.4274
16576TIP3    H271220   5.228   0.624  15.095 -1.3686  0.0528  1.7744
16577TIP3   OH271221   1.435   3.368  11.485 -0.1345  0.8005  0.0740
16577TIP3    H171222   1.478   3.452  11.499  1.6301  0.3230 -2.0079
16577TIP3    H271223   1.471   3.311  11.553  0.5719  1.0881 -0.0540
16578TIP3   OH271224   2.173   3.502   1.913 -0.2221 -0.2976  0.5767
16578TIP3    H171225   2.229   3.542   1.846 -0.3114  0.1475  0.7610
16578TIP3    H271226   2.112   3.572   1.939  0.5750 -0.0782  1.9794
16579TIP3   OH271227   5.977   0.943   5.142 -0.2623  0.0394  0.0106
16579TIP3    H171228   6.001   1.034   5.159  1.2032 -0.3725  0.3213
16579TIP3    H271229   5.907   0.947   5.077  1.1972  1.3148 -1.5317
16580TIP3   OH271230   5.427   1.805   4.420  0.5884  0.6639  0.1035
16580TIP3    H171231   5.428   1.892   4.460 -0.1161  0.4617  0.5718
16580TIP3    H271232   5.375   1.816   4.340  1.8362  1.0244 -0.6819
16581TIP3   OH271233   2.053   3.353   3.424  0.0432 -0.0893  0.1826
16581TIP3    H171234   2.140   3.331   3.456  0.1586  0.4174  0.2328
16581TIP3    H271235   2.004   3.378   3.503 -0.5656 -1.6727  0.3384
16582TIP3   OH271236   6.368   4.529  14.623  0.6324  0.2497 -0.6216
16582TIP3    H171237   6.386   4.462  14.688  0.4018 -1.0973 -1.9009
16582TIP3    H271238   6.392   4.489  14.539 -0.3676  1.4205 -1.5088
16583TIP3   OH271239   2.257   2.296  11.675  0.4415 -0.5532  0.1141
16583TIP3    H171240   2.297   2.209  11.669 -0.0147 -1.2384  4.0716
16583TIP3    H271241   2.331   2.357  11.665  0.9670 -1.3773 -1.4077
16584TIP3   OH271242   4.693   2.845   5.276 -0.3449  0.2196  0.1107
16584TIP3    H171243   4.604   2.876   5.256 -0.6567  0.0913  1.2497
16584TIP3    H271244   4.715   2.887   5.359 -0.2283 -1.4827  0.9948
16585TIP3   OH271245   2.497   2.637   3.623  0.0997 -0.0516  0.6288
16585TIP3    H171246   2.568   2.581   3.657 -1.1789 -1.2057  1.5045
16585TIP3    H271247   2.537   2.723   3.614  1.6852 -0.7251  0.8565
16586TIP3   OH271248   2.531   3.734  11.738  0.3546 -0.4397 -0.2985
16586TIP3    H171249   2.595   3.704  11.803  0.8893 -0.7864 -0.9630
16586TIP3    H271250   2.524   3.828  11.753 -1.1269 -0.7973  1.6365
16587TIP3   OH271251   0.257   3.144  13.123 -0.2078  0.7538  0.1039
16587TIP3    H171252   0.293   3.102  13.045  1.3766 -0.6139  1.5032
16587TIP3    H271253   0.330   3.193  13.160 -0.7272  0.7854  1.1257
16588TIP3   OH271254   4.123   2.032  13.829  0.4000  0.2899  0.3455
16588TIP3    H171255   4.188   2.010  13.763  0.9990 -2.3470  1.6994
16588TIP3    H271256   4.046   1.979  13.807  1.4224 -2.5685  2.9547
16589TIP3   OH271257   2.121   1.385  14.332  0.3969 -0.3492 -0.0157
16589TIP3    H171258   2.213   1.390  14.308  0.5045  0.6343  0.5395
16589TIP3    H271259   2.112   1.445  14.406 -0.9569  0.6320 -0.9184
16590TIP3   OH271260   6.139   4.541  15.177 -0.2688 -0.9976  0.2327
16590TIP3    H171261   6.219   4.496  15.203  0.0448 -1.4805 -1.4173
16590TIP3    H271262   6.107   4.491  15.102 -1.5429 -0.1836  0.1999
16591TIP3   OH271263   1.755   5.934   6.743  0.4004 -0.2561  0.1391
16591TIP3    H171264   1.757   5.957   6.836 -1.4127 -1.1034  0.4412
16591TIP3    H271265   1.846   5.936   6.716  0.8792  0.9277  1.7013
16592TIP3   OH271266   4.339   0.277  15.770  0.0861 -0.1033 -0.2421
16592TIP3    H171267   4.248   0.251  15.755  0.1138 -0.4739  0.1961
16592TIP3    H271268   4.364   0.230  15.849  0.7600 -0.2492 -0.5373
16593TIP3   OH271269   3.452   5.920  11.865 -0.1067 -0.1572  0.0144
16593TIP3    H171270   3.498   5.836  11.863  0.4948  0.1428  1.0045
16593TIP3    H271271   3.375   5.904  11.920 -1.2931 -0.6813 -1.7000
16594TIP3   OH271272   5.641   3.401  16.870 -0.2394  0.3991  0.0577
16594TIP3    H171273   5.720   3.400  16.817 -0.8249 -1.0331 -0.8379
16594TIP3    H271274   5.656   3.335  16.938 -0.9249 -0.4470 -0.5769
16595TIP3   OH271275   3.932   4.663  12.551 -0.1022  0.1936 -0.2463
16595TIP3    H171276   3.996   4.685  12.618  0.3246  2.4682 -1.2959
16595TIP3    H271277   3.965   4.705  12.471 -1.2361 -1.3446 -1.5871
16596TIP3   OH271278   0.632   6.067  16.275 -0.3324  0.5843 -0.0951
16596TIP3    H171279   0.545   6.105  16.274 -1.3698 -1.5002  1.9936
16596TIP3    H271280   0.624   5.987  16.224  0.8496  1.1902 -1.2999
16597TIP3   OH271281   0.476   2.257   5.842  0.3584  0.2376 -0.3216
16597TIP3    H171282   0.471   2.351   5.861  0.0674  0.0428  0.6383
16597TIP3    H271283   0.554   2.227   5.888  0.2768 -0.0450 -0.3648
16598TIP3   OH271284   2.429   5.054  11.341  0.1357  0.0470 -0.4350
16598TIP3    H171285   2.457   4.964  11.323 -1.0409 -0.7685  1.4208
16598TIP3    H271286   2.494   5.086  11.404  0.6174  0.5533 -1.1810
16599TIP3   OH271287   1.398   4.245  14.562  0.2681  0.0385  0.0878
16599TIP3    H171288   1.308   4.224  14.587  0.3379 -1.9937 -1.1549
16599TIP3    H271289   1.405   4.340  14.574 -1.5695  0.0470  1.5837
16600TIP3   OH271290   0.735   4.208   3.904  0.2866 -0.2176 -0.0537
16600TIP3    H171291   0.796   4.280   3.910 -0.1403  0.0730  1.2209
16600TIP3    H271292   0.755   4.153   3.980 -2.0800  0.7723  1.4008
16601TIP3   OH271293   2.136   2.793   2.975  0.8920  0.4509 -0.2199
16601TIP3    H171294   2.079   2.864   3.002  1.0703 -0.2231  2.0746
16601TIP3    H271295   2.207   2.837   2.927  0.5543  1.7290  0.4043
16602TIP3   OH271296   2.382   2.143  16.614  0.6126 -0.1784  0.4760
16602TIP3    H171297   2.412   2.053  16.599  0.3986 -0.2464  0.4563
16602TIP3    H271298   2.288   2.135  16.629  0.8179 -0.1129  1.8640
16603TIP3   OH271299   3.897   0.666  14.506  0.2388 -0.2126 -0.0445
16603TIP3    H171300   3.894   0.584  14.555  2.5340 -0.4070 -0.1523
16603TIP3    H271301   3.944   0.727  14.563 -1.6863  1.1778  0.1612
16604TIP3   OH271302   6.414   2.948   5.090  0.2574  0.2768  0.1439
16604TIP3    H171303   6.444   3.008   5.022 -0.9165 -0.1426 -0.7838
16604TIP3    H271304   6.322   2.931   5.067  0.3647 -1.3001  0.8035
16605TIP3   OH271305   6.109   5.664  16.885  0.2651 -0.0840  0.2371
16605TIP3    H171306   6.191   5.712  16.896 -0.4824  1.7731 -1.6031
16605TIP3    H271307   6.126   5.603  16.813  0.6446 -1.3468  1.3429
16606TIP3   OH271308   4.002   0.446  12.025 -0.4849 -0.1781  0.1282
16606TIP3    H171309   4.057   0.509  12.072  0.3044 -1.8950  1.6191
16606TIP3    H271310   3.920   0.445  12.074  0.4456 -2.1938  1.7877
16607TIP3   OH271311   3.600   4.305   1.261 -0.0654 -0.4447 -0.0225
16607TIP3    H171312   3.615   4.212   1.278 -0.4142 -0.5960 -0.5188
16607TIP3    H271313   3.610   4.314   1.166 -0.8585 -0.1380 -0.0845
16608TIP3   OH271314   4.641   6.405  12.208 -0.2145 -0.5219 -0.8647
16608TIP3    H171315   4.634   6.476  12.144 -0.0011 -0.0298 -0.3466
16608TIP3    H271316   4.735   6.391  12.217 -0.2330 -0.3649 -0.4136
16609TIP3   OH271317   6.687   2.256   5.630  0.1328  0.0693  0.5960
16609TIP3    H171318   6.751   2.267   5.560  1.1961 -0.3715  1.4547
16609TIP3    H271319   6.614   2.209   5.590  0.7163 -0.1570 -0.2209
16610TIP3   OH271320   0.631   6.023  16.726 -0.0752 -0.1644 -0.2266
16610TIP3    H171321   0.694   6.023  16.798  0.7788 -0.3235 -0.9590
16610TIP3    H271322   0.568   5.954  16.749  0.1137 -0.1282  0.4191
16611TIP3   OH271323   4.664   6.096  15.967  0.0755  0.2720  0.0560
16611TIP3    H171324   4.661   6.007  15.931  1.1450  0.7938 -1.4514
16611TIP3    H271325   4.585   6.138  15.933  0.3492  0.3287 -0.5361
16612TIP3   OH271326   5.132   1.085  13.249 -0.4203 -0.2626 -0.2139
16612TIP3    H171327   5.122   1.094  13.154 -1.3635  0.2508 -0.0743
16612TIP3    H271328   5.226   1.074  13.262 -0.3147 -0.6780 -1.2343
16613TIP3   OH271329   1.960   0.224   6.237 -0.1352  0.3540  0.3153
16613TIP3    H171330   1.937   0.316   6.221  0.4168  0.4717  0.2022
16613TIP3    H271331   1.971   0.218   6.332  0.2817  0.5119  0.2780
16614TIP3   OH271332   2.705   5.301   1.338 -0.7917  0.5139  0.0900
16614TIP3    H171333   2.682   5.387   1.302  1.4826  1.0331 -0.3047
16614TIP3    H271334   2.798   5.290   1.316 -1.0111 -2.0656  0.1458
16615TIP3   OH271335   6.375   4.573   3.969  0.2716 -0.3081  0.2471
16615TIP3    H171336   6.378   4.481   3.992 -0.2257 -0.5185 -0.4963
16615TIP3    H271337   6.328   4.576   3.885 -0.2149  0.6711  0.5386
16616TIP3   OH271338   0.034   2.314  17.069  0.6719 -0.5156 -0.2449
16616TIP3    H171339  -0.009   2.400  17.069 -0.5570 -1.1153 -0.0061
16616TIP3    H271340   0.117   2.330  17.025  0.8410  0.9838  0.5296
16617TIP3   OH271341   3.537   5.616  11.849  0.5906 -0.1130  0.3884
16617TIP3    H171342   3.578   5.532  11.869  0.8285  0.0182  0.4607
16617TIP3    H271343   3.445   5.595  11.835  1.1312 -0.8911 -2.6667
16618TIP3   OH271344   1.227   2.602  15.491  0.3538 -0.0824  0.0691
16618TIP3    H171345   1.246   2.601  15.397  0.4792 -1.3986  0.0823
16618TIP3    H271346   1.146   2.552  15.499 -0.4074  1.1975  0.5329
16619TIP3   OH271347   6.046   2.860   1.292  0.1817 -0.1433  0.4844
16619TIP3    H171348   6.032   2.951   1.317 -0.3686  0.2386 -1.0486
16619TIP3    H271349   6.141   2.847   1.298  0.2967  0.6301  0.4238
16620TIP3   OH271350   4.654   0.641   4.811  0.7991 -0.5890 -0.0941
16620TIP3    H171351   4.613   0.690   4.882  1.5116 -2.4538  1.7156
16620TIP3    H271352   4.588   0.579   4.783  1.3455 -1.6145  0.8003
16621TIP3   OH271353   5.258   4.975  15.900  0.6742  0.5541 -0.6477
16621TIP3    H171354   5.287   5.036  15.833  0.2286  0.0402 -1.3125
16621TIP3    H271355   5.209   4.907  15.853 -3.6574  2.4814  0.5603
16622TIP3   OH271356   3.388   4.205  11.359 -0.4002  0.1953 -0.1291
16622TIP3    H171357   3.452   4.203  11.430 -0.9405 -1.0066  0.3393
16622TIP3    H271358   3.307   4.234  11.401 -0.9003 -1.2041 -0.0849
16623TIP3   OH271359   6.146   5.727  12.564 -0.1111 -0.0589  0.4818
16623TIP3    H171360   6.174   5.818  12.580  1.5192 -0.3029 -0.6777
16623TIP3    H271361   6.220   5.674  12.593  0.0818 -0.8428 -1.3181
16624TIP3   OH271362   5.267   3.974   3.813  0.0727 -0.8230  0.7364
16624TIP3    H171363   5.262   4.011   3.902 -0.9338  0.2968  0.2584
16624TIP3    H271364   5.176   3.950   3.793 -0.2201  1.2881 -0.8858
16625TIP3   OH271365   0.199   4.100  15.858 -0.5565  0.0653  0.2580
16625TIP3    H171366   0.207   4.031  15.792 -1.2590  0.3478 -0.1295
16625TIP3    H271367   0.174   4.053  15.938  0.7942 -0.3389  0.4792
16626TIP3   OH271368   0.471   2.651   1.532 -0.6133 -0.0900  0.1608
16626TIP3    H171369   0.477   2.565   1.573 -0.8010  0.2905  1.0032
16626TIP3    H271370   0.418   2.636   1.454  0.1112 -0.9028 -0.1958
16627TIP3   OH271371   3.161   2.461  15.371  0.1121  0.3258  0.2645
16627TIP3    H171372   3.142   2.545  15.410  0.4450  0.8378 -0.6387
16627TIP3    H271373   3.242   2.475  15.322  0.5771 -0.7163  0.7145
16628TIP3   OH271374   1.120   1.999  15.240  0.1532  0.2292 -0.0510
16628TIP3    H171375   1.150   1.995  15.149  0.3269 -0.8796  0.0304
16628TIP3    H271376   1.046   1.939  15.243  0.8524 -0.6343  0.7720
16629TIP3   OH271377   1.151   3.116  14.143 -0.3117  0.3909 -0.4714
16629TIP3    H171378   1.242   3.099  14.167 -0.3431  1.9837  0.9941
16629TIP3    H271379   1.154   3.201  14.098 -1.1248  0.6749 -0.0011
16630TIP3   OH271380   6.049   0.140   1.527 -0.1181 -0.7582 -0.7320
16630TIP3    H171381   6.002   0.153   1.609  0.4628 -0.4434 -0.4361
16630TIP3    H271382   6.115   0.073   1.548  0.7543  0.1141 -0.6280
16631TIP3   OH271383   0.895   1.086  15.855 -0.1157 -0.1968  0.0596
16631TIP3    H171384   0.946   1.141  15.796 -0.1841  0.7277  0.8184
16631TIP3    H271385   0.918   0.996  15.833  1.4649  0.1935  0.0656
16632TIP3   OH271386   4.694   3.248  11.895 -0.1713 -0.0881  0.5513
16632TIP3    H171387   4.621   3.253  11.833 -1.2250  1.3091  1.8458
16632TIP3    H271388   4.654   3.216  11.976  0.0640  3.0475  2.0318
16633TIP3   OH271389   4.742   5.945  11.386  0.1601  0.2257  0.7687
16633TIP3    H171390   4.771   5.951  11.477 -1.4682  0.4887  1.2981
16633TIP3    H271391   4.823   5.936  11.336  1.0845 -0.0429  2.2437
16634TIP3   OH271392   5.666   4.282  15.675 -0.2063  0.1500  0.1997
16634TIP3    H171393   5.687   4.188  15.675 -0.0433  0.1647 -1.1315
16634TIP3    H271394   5.616   4.295  15.595 -0.6051  1.1335  0.5969
16635TIP3   OH271395   4.742   1.300   4.957 -0.3172 -0.2242  0.0539
16635TIP3    H171396   4.675   1.321   5.023 -1.7266 -1.3186 -0.9718
16635TIP3    H271397   4.693   1.285   4.877  1.4250  1.8854 -1.5089
16636TIP3   OH271398   4.241   6.158  15.421  0.1852  0.4070 -0.1938
16636TIP3    H171399   4.217   6.182  15.510 -0.8070  0.1358 -0.3801
16636TIP3    H271400   4.164   6.114  15.386 -0.1922  2.2548 -1.8590
16637TIP3   OH271401   3.127   0.981  14.928  0.0393 -0.4891  0.0659
16637TIP3    H171402   3.037   0.984  14.896 -0.3606 -2.2577  0.9111
16637TIP3    H271403   3.164   0.902  14.890 -0.0121 -1.8918  2.6985
16638TIP3   OH271404   3.157   2.351  12.272  0.4341  0.1695  0.2644
16638TIP3    H171405   3.206   2.269  12.276  1.2021  0.5078 -1.2084
16638TIP3    H271406   3.218   2.417  12.305  0.0026  0.2214  0.9655
16639TIP3   OH271407   3.486   2.235   2.710 -0.1720 -0.2745  0.2340
16639TIP3    H171408   3.526   2.149   2.698 -1.0067 -0.4266 -1.8493
16639TIP3    H271409   3.559   2.294   2.724  0.4644 -1.1782  0.8679
16640TIP3   OH271410   6.790   3.301  15.316 -0.3407 -0.0641  0.3719
16640TIP3    H171411   6.768   3.354  15.239  0.3649 -0.5161 -0.1623
16640TIP3    H271412   6.707   3.264  15.344 -0.7144  0.6628  0.2524
16641TIP3   OH271413   2.535   4.332  17.242 -0.0280 -0.3852  0.1705
16641TIP3    H171414   2.568   4.302  17.327  0.7315 -1.8422 -0.5880
16641TIP3    H271415   2.581   4.414  17.225  0.5357 -0.5806  0.7473
16642TIP3   OH271416   5.979   3.064  13.349  0.0971  0.2038  0.1528
16642TIP3    H171417   6.027   2.985  13.323 -0.6132 -0.0418 -0.4543
16642TIP3    H271418   6.025   3.136  13.307 -0.6579 -0.1261 -1.2967
16643TIP3   OH271419   0.342   2.296   5.082 -0.1187 -0.0660 -0.7106
16643TIP3    H171420   0.432   2.328   5.080  0.5114 -1.8002 -1.3848
16643TIP3    H271421   0.348   2.205   5.056 -1.6903 -1.1180  2.1057
16644TIP3   OH271422   3.273   1.293   0.733  0.0577  0.3669 -0.1040
16644TIP3    H171423   3.320   1.376   0.724 -0.2892  0.4062 -2.1016
16644TIP3    H271424   3.228   1.299   0.817  2.5494  0.8497  1.3033
16645TIP3   OH271425   6.137   0.282   2.910  0.4107 -0.2796  0.0966
16645TIP3    H171426   6.072   0.284   2.980  2.4676 -0.4296  2.1242
16645TIP3    H271427   6.151   0.189   2.892 -1.0208 -0.2440 -1.5127
16646TIP3   OH271428   1.838   2.337   0.740 -0.7584  0.4723  0.2481
16646TIP3    H171429   1.851   2.426   0.774  1.4285  0.5293 -0.5795
16646TIP3    H271430   1.823   2.284   0.818  1.9750  0.9558  1.2131
16647TIP3   OH271431   0.649   2.893  14.421  0.2567  0.5471  0.5518
16647TIP3    H171432   0.564   2.920  14.456 -0.5897  0.4827 -1.3465
16647TIP3    H271433   0.713   2.945  14.471 -1.0195  2.1927  0.5556
16648TIP3   OH271434   0.198   1.290  12.153 -0.3095 -0.5268 -0.3316
16648TIP3    H171435   0.125   1.312  12.210 -0.4398 -0.3278 -0.5725
16648TIP3    H271436   0.250   1.370  12.146  0.8366 -1.0840  1.1267
16649TIP3   OH271437   2.140   0.078  12.212 -0.6401 -0.3112 -0.1849
16649TIP3    H171438   2.058   0.106  12.252 -0.1284  1.8626 -0.5459
16649TIP3    H271439   2.164   0.149  12.153  0.9492 -1.3959 -0.9299
16650TIP3   OH271440   1.789   0.339  17.148 -0.1910 -0.3848  0.1043
16650TIP3    H171441   1.755   0.250  17.156 -0.1072 -0.3681  0.6828
16650TIP3    H271442   1.742   0.388  17.216  0.9953 -0.3627  0.9443
16651TIP3   OH271443   3.337   1.520  12.871 -0.4124 -0.3947  0.3888
16651TIP3    H171444   3.295   1.556  12.793 -0.9586  1.5758  1.5085
16651TIP3    H271445   3.265   1.502  12.931  0.1223  0.1403  1.2132
16652TIP3   OH271446   3.435   6.764   3.993  0.5456 -0.4559 -0.0387
16652TIP3    H171447   3.345   6.737   3.976  0.6408 -1.4524  0.9787
16652TIP3    H271448   3.488   6.710   3.934  0.4518  0.7836 -1.3225
16653TIP3   OH271449   0.005   4.968   1.159 -0.3402 -0.2104 -0.1551
16653TIP3    H171450  -0.069   5.027   1.142  0.7946  0.6568 -2.6498
16653TIP3    H271451  -0.035   4.883   1.175 -1.9452  0.7839  1.5008
16654TIP3   OH271452   3.383   3.521   3.630  0.2601 -0.2131 -0.3444
16654TIP3    H171453   3.422   3.475   3.704  0.5514 -0.3912 -0.6037
16654TIP3    H271454   3.290   3.498   3.634  0.1665  0.2632  0.3131
16655TIP3   OH271455   2.826   6.374  17.220 -0.0240 -0.5025  0.4357
16655TIP3    H171456   2.897   6.335  17.169 -0.3486 -0.9871  0.3486
16655TIP3    H271457   2.830   6.468  17.198 -1.5440 -0.9527 -2.2334
16656TIP3   OH271458   6.300   6.124   3.681  0.3007 -0.4814  0.1164
16656TIP3    H171459   6.358   6.121   3.756  0.5663  1.4620  0.0436
16656TIP3    H271460   6.358   6.127   3.605  0.1913  1.5186  0.0464
16657TIP3   OH271461   5.265   5.031  15.320  0.1366  0.0212 -0.0893
16657TIP3    H171462   5.265   5.125  15.338 -0.4280  0.0678 -0.3086
16657TIP3    H271463   5.176   5.003  15.341  0.2212 -0.4088 -0.2977
16658TIP3   OH271464   6.092   3.978  17.140  0.1658 -0.0357 -0.0605
16658TIP3    H171465   6.073   4.054  17.085 -1.1895 -1.3549 -1.5225
16658TIP3    H271466   6.041   3.992  17.219 -1.0361  0.0267 -0.8260
16659TIP3   OH271467   1.726   3.577   4.422  0.4200  0.3046  0.1303
16659TIP3    H171468   1.745   3.526   4.343  1.2530 -0.0601  0.5514
16659TIP3    H271469   1.739   3.515   4.494 -0.6611  0.5366  0.5521
16660TIP3   OH271470   4.152   3.330  10.662 -0.5332 -0.2541 -0.1304
16660TIP3    H171471   4.119   3.341  10.573 -1.2963  1.3241  0.3043
16660TIP3    H271472   4.086   3.372  10.718  1.4682  1.7614  0.8960
16661TIP3   OH271473   1.078   5.441   1.161 -0.2151  0.1593  0.1843
16661TIP3    H171474   1.003   5.396   1.120 -0.3687  0.2383  0.3760
16661TIP3    H271475   1.136   5.461   1.088 -0.2451 -0.1629  0.0677
16662TIP3   OH271476   6.123   6.148   1.248  0.8809  0.2064  0.4017
16662TIP3    H171477   6.073   6.121   1.325  0.5748 -0.1220  0.0912
16662TIP3    H271478   6.056   6.175   1.184  1.1854  2.5910  1.0085
16663TIP3   OH271479   1.433   5.427   6.055 -0.2393  0.2841 -0.4735
16663TIP3    H171480   1.365   5.434   5.988  0.0834  0.5132 -0.7853
16663TIP3    H271481   1.387   5.441   6.137 -0.6106  0.1915 -0.6603
16664TIP3   OH271482   3.534   6.201   4.757 -0.3607 -0.7475 -0.6590
16664TIP3    H171483   3.562   6.174   4.669  0.7805 -2.1452  0.0993
16664TIP3    H271484   3.608   6.253   4.790 -0.7499 -0.3037 -0.4709
16665TIP3   OH271485   3.934   5.750  11.696 -0.5316 -0.5436  0.2608
16665TIP3    H171486   4.004   5.714  11.751  0.4869 -0.2951 -0.8189
16665TIP3    H271487   3.915   5.836  11.734 -1.1311 -1.1085  1.2859
16666TIP3   OH271488   2.410   5.871  11.193 -0.1770 -0.0422  0.3718
16666TIP3    H171489   2.481   5.809  11.175 -1.5710 -1.6391  0.0972
16666TIP3    H271490   2.444   5.927  11.262  1.5097 -0.4673 -0.0680
16667TIP3   OH271491   2.510   6.555  16.720 -0.3294  0.0356 -1.2245
16667TIP3    H171492   2.578   6.569  16.786  0.7691 -2.9417 -1.5434
16667TIP3    H271493   2.548   6.492  16.659 -3.3416 -1.8716 -1.3795
16668TIP3   OH271494   2.724   5.922  15.775 -0.4062 -0.1308  0.4449
16668TIP3    H171495   2.633   5.947  15.760 -0.8745 -2.0340 -0.1958
16668TIP3    H271496   2.763   5.921  15.687  0.2541  0.7163  0.7212
16669TIP3   OH271497   4.268   2.542  13.466 -0.5448 -0.1910 -0.1416
16669TIP3    H171498   4.177   2.514  13.481 -0.7186  0.7103  0.6063
16669TIP3    H271499   4.267   2.585  13.381 -1.2450  1.4262  0.6341
16670TIP3   OH271500   4.559   3.700   4.521 -0.1106  0.3080  0.5642
16670TIP3    H171501   4.586   3.708   4.430 -1.9425 -1.3175 -0.1874
16670TIP3    H271502   4.494   3.630   4.521 -1.0897  1.1119  2.9190
16671TIP3   OH271503   5.892   1.555  16.618 -0.1068  0.0367 -0.2992
16671TIP3    H171504   5.865   1.646  16.607 -1.9059 -0.2927  0.9332
16671TIP3    H271505   5.979   1.561  16.659  1.1289  1.1394 -2.8601
16672TIP3   OH271506   1.851   0.810   2.618 -0.6659 -0.2489  0.0351
16672TIP3    H171507   1.818   0.844   2.535 -0.0196 -0.2526 -0.2273
16672TIP3    H271508   1.858   0.887   2.674 -1.9398 -0.3703  0.3790
16673TIP3   OH271509   0.518   5.717  13.503  0.5230  0.4897 -0.3591
16673TIP3    H171510   0.555   5.724  13.416  0.4117  2.4902 -0.2854
16673TIP3    H271511   0.429   5.684  13.489  1.1851 -1.1712 -0.8027
16674TIP3   OH271512   4.626   3.521   0.217  0.1779  0.3268 -0.3949
16674TIP3    H171513   4.676   3.439   0.224  0.5294  0.7064  2.6816
16674TIP3    H271514   4.541   3.494   0.183  0.5128 -1.2107 -0.0870
16675TIP3   OH271515   0.638   6.198   3.327 -0.5458 -0.1612 -0.4026
16675TIP3    H171516   0.603   6.109   3.333 -0.2408 -0.3518 -1.2841
16675TIP3    H271517   0.624   6.223   3.235 -0.6069  0.6894 -0.1648
16676TIP3   OH271518   0.839   6.265  16.311 -0.7649  0.1635  0.3296
16676TIP3    H171519   0.790   6.329  16.364 -1.9630 -0.3960 -0.0518
16676TIP3    H271520   0.777   6.193  16.299  0.5306 -1.0498  0.6919
16677TIP3   OH271521   0.392   2.820  14.936  0.2665  0.2792  0.2455
16677TIP3    H171522   0.384   2.862  14.850 -0.2303  2.2071  1.1858
16677TIP3    H271523   0.425   2.732  14.916  0.8884  0.9246 -1.8545
16678TIP3   OH271524   5.343   1.087  13.063  0.3331 -0.0792  0.0752
16678TIP3    H171525   5.351   1.090  12.968  0.2362 -0.9639  0.0266
16678TIP3    H271526   5.339   1.179  13.090  2.1012  0.2297 -0.6120
16679TIP3   OH271527   5.533   5.113  14.255  0.3575 -0.3705  0.1882
16679TIP3    H171528   5.601   5.059  14.215 -0.5110 -0.8237 -0.7120
16679TIP3    H271529   5.465   5.051  14.281 -0.4815  0.2419 -0.5047
16680TIP3   OH271530   1.634   4.732  11.717  0.6333 -0.1564  0.1292
16680TIP3    H171531   1.666   4.642  11.720  0.8255 -0.1776 -1.8333
16680TIP3    H271532   1.692   4.777  11.656 -0.5424  0.8488 -0.3016
16681TIP3   OH271533   3.841   4.585  11.887 -0.1442 -1.0826 -0.8924
16681TIP3    H171534   3.822   4.640  11.963  1.9184 -1.0383 -0.3506
16681TIP3    H271535   3.758   4.581  11.839 -1.2056 -0.2339  0.7856
16682TIP3   OH271536   0.605   5.551  16.938 -0.4158  0.2926 -0.2250
16682TIP3    H171537   0.515   5.560  16.968 -0.3861 -0.5307  0.1467
16682TIP3    H271538   0.600   5.490  16.864  0.0852 -1.7434  1.3181
16683TIP3   OH271539   5.711   1.646  15.215 -0.2011  0.5429  0.4254
16683TIP3    H171540   5.754   1.616  15.135  0.8755  0.1301  1.1377
16683TIP3    H271541   5.690   1.738  15.199 -2.0140 -0.0681 -1.1541
16684TIP3   OH271542   6.084   3.010   2.987 -0.3594 -0.0787 -0.3388
16684TIP3    H171543   6.050   2.979   2.903 -2.0317  0.0422  0.2434
16684TIP3    H271544   6.133   3.089   2.966  2.6125 -2.0792 -1.6534
16685TIP3   OH271545   0.494   3.469   0.135  0.1661  0.0916 -0.0642
16685TIP3    H171546   0.443   3.517   0.200  0.1267  1.0344 -0.7678
16685TIP3    H271547   0.446   3.387   0.123 -1.1117  0.8755 -0.5782
16686TIP3   OH271548   1.104   5.215  15.688  0.2535  0.4304  0.5693
16686TIP3    H171549   1.186   5.219  15.737 -0.5138  0.5926  1.8935
16686TIP3    H271550   1.126   5.251  15.601  2.2354 -2.1559 -0.1307
16687TIP3   OH271551   1.797   4.762   3.761  0.1927  0.2746 -0.2496
16687TIP3    H171552   1.829   4.740   3.849 -0.4179  1.0253  0.1754
16687TIP3    H271553   1.766   4.679   3.726  0.3954 -0.0281  0.2621
16688TIP3   OH271554   5.503   4.765  14.131  0.3530 -0.1581  0.2120
16688TIP3    H171555   5.582   4.818  14.119 -1.4318  2.3064 -1.4772
16688TIP3    H271556   5.535   4.675  14.130  2.8195  0.4605 -4.6365
16689TIP3   OH271557   1.534   0.511   3.020  0.3682  0.3160  0.3220
16689TIP3    H171558   1.442   0.519   2.994  0.4026 -0.3328 -0.0053
16689TIP3    H271559   1.558   0.422   2.996  1.2307  0.6436 -0.0474
16690TIP3   OH271560   5.372   0.942   1.229  0.0966 -0.0669 -0.2126
16690TIP3    H171561   5.354   0.865   1.282  0.3565  0.4390  0.6267
16690TIP3    H271562   5.320   0.929   1.149 -1.1879 -0.3100  0.6292
16691TIP3   OH271563   6.498   0.598   4.270  0.0521 -0.3795 -0.2016
16691TIP3    H171564   6.587   0.572   4.245 -0.0077  0.4579 -1.4106
16691TIP3    H271565   6.449   0.596   4.188 -0.9318 -0.3498  0.3681
16692TIP3   OH271566   3.109   3.432  16.800 -0.3616  0.0788 -0.3125
16692TIP3    H171567   3.191   3.400  16.836 -1.1957 -0.9319  0.7741
16692TIP3    H271568   3.125   3.525  16.782  1.4315 -0.4011 -1.4707
16693TIP3   OH271569   1.401   0.825  16.632  0.2203 -0.0765  0.6985
16693TIP3    H171570   1.483   0.806  16.677  1.2292 -0.0622 -1.0139
16693TIP3    H271571   1.415   0.912  16.593 -0.2847 -0.4033 -0.2576
16694TIP3   OH271572   0.969   2.603   4.479 -0.1006  0.0661  0.1939
16694TIP3    H171573   1.031   2.641   4.417 -1.4932  1.9321 -0.1681
16694TIP3    H271574   0.982   2.652   4.560 -1.9743  1.4983 -0.2982
16695TIP3   OH271575   5.577   1.369   4.073  0.0207 -0.2869  0.2193
16695TIP3    H171576   5.657   1.391   4.121 -0.5774 -1.1625  1.7095
16695TIP3    H271577   5.507   1.412   4.123 -0.5368 -0.3871 -0.4620
16696TIP3   OH271578   2.975   2.302   3.137  0.2098  0.5179 -0.3467
16696TIP3    H171579   2.884   2.289   3.163  0.7795 -1.1289  1.0104
16696TIP3    H271580   2.981   2.260   3.051 -0.2496  0.4088 -0.3299
16697TIP3   OH271581   5.511   0.944   3.105  0.5470  0.5141 -0.3841
16697TIP3    H171582   5.544   0.977   3.021 -1.6883 -1.2613 -2.0808
16697TIP3    H271583   5.568   0.871   3.126  0.3014  0.0923 -1.1222
16698TIP3   OH271584   1.374   2.822  12.832  0.1940  0.1681 -0.4618
16698TIP3    H171585   1.377   2.784  12.920  0.5639  1.6531  0.1838
16698TIP3    H271586   1.316   2.762  12.784  1.1603 -1.5094  0.3464
16699TIP3   OH271587   5.153   6.207  16.213 -0.0551  0.3928  0.2281
16699TIP3    H171588   5.237   6.227  16.171  0.6545 -0.4190  1.2180
16699TIP3    H271589   5.088   6.249  16.157  0.9678  0.5791 -0.8605
16700TIP3   OH271590   5.060   0.057  11.959  0.4698  0.1958 -0.3262
16700TIP3    H171591   5.051   0.103  12.042 -0.4149 -0.5874  0.0249
16700TIP3    H271592   5.154   0.061  11.940  1.1606 -1.8363  2.0513
16701TIP3   OH271593   6.637   2.747   6.402  0.8564  0.7081  0.0702
16701TIP3    H171594   6.570   2.690   6.365 -0.0027  2.1536 -0.7225
16701TIP3    H271595   6.606   2.767   6.490  1.6479 -0.7707  0.7097
16702TIP3   OH271596   0.048   2.146   3.071  0.1601 -0.1997  0.0186
16702TIP3    H171597   0.016   2.184   2.989  1.8757 -0.2871 -0.7316
16702TIP3    H271598  -0.029   2.147   3.130 -0.5851  1.7433 -0.9036
16703TIP3   OH271599   6.230   0.641  14.113 -0.4334  1.0225  0.1117
16703TIP3    H171600   6.175   0.564  14.127  0.6451  0.2502  0.1790
16703TIP3    H271601   6.228   0.655  14.018 -1.7797  1.7997  0.2267
16704TIP3   OH271602   0.643   1.488  13.122 -0.4374  0.6381  0.3409
16704TIP3    H171603   0.596   1.447  13.195 -0.0903 -2.6465 -1.1114
16704TIP3    H271604   0.734   1.460  13.133 -0.3814  0.0692 -1.3110
16705TIP3   OH271605   1.843   3.517   2.340 -1.1478 -0.0154 -0.1236
16705TIP3    H171606   1.772   3.457   2.321 -0.4959 -1.4214  1.5753
16705TIP3    H271607   1.888   3.530   2.256 -2.1944 -0.7047 -0.8077
16706TIP3   OH271608   4.013   3.686   0.948  0.2292 -0.0585 -0.9238
16706TIP3    H171609   4.001   3.736   1.029  0.2749  1.6853 -1.9551
16706TIP3    H271610   3.924   3.672   0.915  0.2128 -0.7383 -0.6096
16707TIP3   OH271611   4.592   3.770  10.530  0.5212  0.2549 -0.1805
16707TIP3    H171612   4.687   3.785  10.529  0.6272 -0.3600 -0.0912
16707TIP3    H271613   4.574   3.740  10.619  0.6430 -1.9309 -0.8338
16708TIP3   OH271614   5.421   5.637   3.460  0.2015  0.0314  0.1459
16708TIP3    H171615   5.435   5.644   3.554 -1.0512 -1.0978  0.4567
16708TIP3    H271616   5.438   5.724   3.426 -2.4085  1.3622  1.8911
16709TIP3   OH271617   1.519   6.030   0.535 -0.4947 -0.1373 -0.0129
16709TIP3    H171618   1.520   6.110   0.483 -2.8874  0.3554  0.5827
16709TIP3    H271619   1.599   5.983   0.509 -0.0004  1.5508 -1.7370
16710TIP3   OH271620   3.463   1.382  17.125 -0.1548  0.2980 -0.0867
16710TIP3    H171621   3.550   1.402  17.159 -0.4036  1.0263  0.1394
16710TIP3    H271622   3.474   1.299  17.078  0.2912 -0.5242  1.3838
16711TIP3   OH271623   1.095   1.651  13.941 -0.5145 -0.3248  0.6543
16711TIP3    H171624   1.085   1.588  13.869 -0.5263  0.7405 -0.2995
16711TIP3    H271625   1.127   1.598  14.014 -0.1987 -1.3874 -0.2186
16712TIP3   OH271626   4.073   5.843   4.728  0.0008 -0.2794 -0.0894
16712TIP3    H171627   4.168   5.839   4.735  0.0233 -2.2535 -0.9424
16712TIP3    H271628   4.043   5.863   4.817  1.1759  0.2200  0.2137
16713TIP3   OH271629   3.698   0.915   3.721 -0.4528 -0.2045  0.6714
16713TIP3    H171630   3.640   0.911   3.645  2.6690 -3.3570 -1.8725
16713TIP3    H271631   3.739   1.001   3.714 -0.5272 -0.2588 -1.0528
16714TIP3   OH271632   3.304   0.080  10.917  0.3577 -0.0224  0.3759
16714TIP3    H171633   3.218   0.121  10.926  0.6702  1.0264 -0.9683
16714TIP3    H271634   3.285  -0.011  10.894 -0.4144  0.2130  0.0433
16715TIP3   OH271635   6.788   2.015   4.716  0.0880 -0.2280  0.2834
16715TIP3    H171636   6.730   2.042   4.787 -0.0812 -0.1302  0.1089
16715TIP3    H271637   6.827   2.097   4.685  1.1532 -0.3980  1.1166
16716TIP3   OH271638   1.740   1.858   4.590  0.7805  0.0810 -0.8028
16716TIP3    H171639   1.755   1.950   4.609 -0.6722 -0.0564  1.4036
16716TIP3    H271640   1.822   1.815   4.615  0.6337  0.5283  0.5248
16717TIP3   OH271641   4.991   3.509   3.859 -0.6974 -0.0517  0.7995
16717TIP3    H171642   4.909   3.485   3.816 -0.7009  0.3233  0.5891
16717TIP3    H271643   5.037   3.427   3.871 -1.2033 -0.2914  1.1203
16718TIP3   OH271644   1.994   2.332   1.310 -0.2846 -0.3418 -0.1193
16718TIP3    H171645   2.025   2.372   1.391 -1.6746 -0.6492  0.5930
16718TIP3    H271646   1.915   2.382   1.287 -1.2243 -1.7054 -0.0003
16719TIP3   OH271647   0.833   4.608  14.307  0.0192  0.8900 -0.6705
16719TIP3    H171648   0.908   4.667  14.313 -1.4381  2.7175  1.0105
16719TIP3    H271649   0.786   4.638  14.229  0.5852  0.2478 -1.2762
16720TIP3   OH271650   2.056   3.300   6.227 -0.3714 -0.2939 -0.3043
16720TIP3    H171651   2.129   3.263   6.179  0.2393 -2.1468  1.8557
16720TIP3    H271652   2.082   3.294   6.319 -2.8062 -0.0595  0.4774
16721TIP3   OH271653   0.645   3.514   6.186  0.1905  0.1592  0.3193
16721TIP3    H171654   0.580   3.454   6.223  0.8177 -1.3561 -0.9560
16721TIP3    H271655   0.729   3.481   6.218  0.6620 -0.5730 -1.5394
16722TIP3   OH271656   6.755   4.287   2.625 -0.3556 -0.8435  0.2314
16722TIP3    H171657   6.831   4.239   2.591 -0.4345 -1.2522  0.6112
16722TIP3    H271658   6.685   4.221   2.629 -0.3639 -0.7989  1.1078
16723TIP3   OH271659   6.560   0.106  17.284 -0.5974 -0.2877 -0.5882
16723TIP3    H171660   6.577   0.126  17.376 -4.7386  0.5345  0.1999
16723TIP3    H271661   6.559   0.010  17.280  0.6167 -0.3376 -0.0473
16724TIP3   OH271662   3.288   2.172  13.373  0.6765  0.4014  0.5706
16724TIP3    H171663   3.307   2.263  13.396  0.7852  0.1697  1.4554
16724TIP3    H271664   3.192   2.167  13.376  0.7092  0.2218  1.6440
16725TIP3   OH271665   0.073   4.382  13.482 -0.2703 -0.1173  0.3254
16725TIP3    H171666   0.028   4.344  13.406  0.7934 -2.0024  0.5670
16725TIP3    H271667   0.008   4.380  13.552 -0.9287  0.6403 -0.2537
16726TIP3   OH271668   6.222   4.733   0.258  0.8754 -0.5176 -0.2894
16726TIP3    H171669   6.138   4.777   0.268  1.8258  1.3274  0.1409
16726TIP3    H271670   6.286   4.794   0.295  2.4055 -1.9051 -0.4832
16727TIP3   OH271671   3.374   2.343  10.369  0.6355 -0.4273  0.2204
16727TIP3    H171672   3.423   2.420  10.341  0.2004  0.2299  1.1994
16727TIP3    H271673   3.284   2.361  10.341  0.6841 -1.0060 -0.3477
16728TIP3   OH271674   4.046   1.966   4.414  0.4054  0.0436 -0.4025
16728TIP3    H171675   3.977   2.026   4.384  0.4573 -0.4163 -1.4848
16728TIP3    H271676   4.041   1.892   4.354  1.4666 -0.2686 -0.1270
16729TIP3   OH271677   2.248   2.017   3.940 -0.1376  0.2336  0.2778
16729TIP3    H171678   2.334   1.974   3.939 -0.2017  0.1214 -0.9072
16729TIP3    H271679   2.268   2.110   3.952  0.2156  0.3359 -1.0034
16730TIP3   OH271680   6.492   4.919   2.477  0.1469  0.0634  0.0283
16730TIP3    H171681   6.471   4.898   2.568  2.1548  0.5236  0.6499
16730TIP3    H271682   6.484   4.836   2.431  0.0860 -0.3902  0.8379
16731TIP3   OH271683   2.201   2.162  15.698  0.4058  0.4939 -0.6514
16731TIP3    H171684   2.268   2.105  15.738  1.2471 -0.2294 -2.9548
16731TIP3    H271685   2.233   2.178  15.610 -0.6923  3.1919 -0.6342
16732TIP3   OH271686   3.197   6.745  12.215  0.5830  0.1124 -0.2557
16732TIP3    H171687   3.221   6.789  12.297 -1.3465  1.6197 -0.4443
16732TIP3    H271688   3.177   6.655  12.242  0.9131  0.3207  0.7533
16733TIP3   OH271689   5.261   6.101   4.614 -0.3272  0.1707 -0.1192
16733TIP3    H171690   5.180   6.059   4.644 -0.6376  0.0481 -1.0715
16733TIP3    H271691   5.325   6.082   4.682 -0.7281 -0.9924 -0.0399
16734TIP3   OH271692   2.569   1.461  15.561  0.3053 -0.0965  0.1071
16734TIP3    H171693   2.486   1.494  15.596  0.6177  2.0350 -0.9982
16734TIP3    H271694   2.560   1.366  15.564 -1.1051  0.0162  2.4938
16735TIP3   OH271695   3.672   5.083   6.422 -0.5753  0.0716 -0.0359
16735TIP3    H171696   3.661   5.087   6.517  0.0954 -1.0817  0.1130
16735TIP3    H271697   3.624   5.004   6.396  1.8845 -1.4896 -0.1823
16736TIP3   OH271698   2.535   2.570  13.430  0.6634  0.1996  0.3217
16736TIP3    H171699   2.454   2.619  13.420  0.3657  0.0216  1.6567
16736TIP3    H271700   2.581   2.581  13.347 -0.8966 -0.0286 -0.6005
16737TIP3   OH271701   6.727   0.797  14.821 -0.1397  0.0820  0.4124
16737TIP3    H171702   6.723   0.892  14.831 -0.9009  0.1168 -0.1417
16737TIP3    H271703   6.820   0.778  14.811 -0.0659  0.9064 -0.6630
16738TIP3   OH271704   0.945   1.848  17.130 -0.0913  0.6975 -0.0449
16738TIP3    H171705   0.898   1.786  17.186 -1.9822  0.1833 -2.0643
16738TIP3    H271706   1.030   1.806  17.114 -1.2683 -1.3881 -1.2564
16739TIP3   OH271707   0.249   1.262   3.589  0.0447 -0.2346  0.1322
16739TIP3    H171708   0.332   1.267   3.636  0.4615 -0.7398 -0.5398
16739TIP3    H271709   0.261   1.192   3.525 -0.5733  0.3134 -0.6061
16740TIP3   OH271710   0.277   4.081  16.806  0.3242 -0.1732  0.1319
16740TIP3    H171711   0.248   4.014  16.744  0.6166  0.2376 -0.4531
16740TIP3    H271712   0.231   4.059  16.887 -0.4393 -0.4262 -0.3559
16741TIP3   OH271713   1.824   3.846   4.414  0.2270  0.7571  0.2487
16741TIP3    H171714   1.775   3.819   4.337  0.4999  1.5823 -0.2344
16741TIP3    H271715   1.879   3.771   4.435  0.8478  0.8356 -0.9530
16742TIP3   OH271716   6.472   3.033  14.477 -0.1802  0.0197 -0.1777
16742TIP3    H171717   6.479   3.129  14.475  2.0624 -0.0508  1.0456
16742TIP3    H271718   6.517   3.008  14.558 -0.4342 -2.1047 -0.6519
16743TIP3   OH271719   0.418   2.824  11.354  0.6992 -0.3062 -0.5083
16743TIP3    H171720   0.502   2.816  11.308  1.2829 -3.9473  0.8708
16743TIP3    H271721   0.437   2.880  11.429  2.3655 -2.1482  0.5315
16744TIP3   OH271722   1.167   0.806   1.490 -0.4921  0.0277 -0.3726
16744TIP3    H171723   1.108   0.814   1.414 -0.2035 -2.4368 -0.9208
16744TIP3    H271724   1.122   0.746   1.549 -0.3031  1.2402  1.0557
16745TIP3   OH271725   2.288   5.847   1.607 -0.0383  0.2599 -0.0668
16745TIP3    H171726   2.219   5.913   1.614  0.5589  0.7855  1.2701
16745TIP3    H271727   2.366   5.890   1.642  0.9254 -0.4092 -1.2889
16746TIP3   OH271728   2.207   6.502   5.114  0.3467 -0.1267 -0.1209
16746TIP3    H171729   2.206   6.503   5.018  1.6935  2.3617 -0.1791
16746TIP3    H271730   2.122   6.467   5.138 -0.1450 -0.5243 -2.2092
16747TIP3   OH271731   2.075   1.185   3.625 -0.0462 -0.2021  0.7433
16747TIP3    H171732   2.167   1.199   3.646  0.8160 -3.2424 -0.4703
16747TIP3    H271733   2.040   1.272   3.608  2.5516  1.0490  1.3905
16748TIP3   OH271734   2.157   1.377   4.668  0.4077 -0.3699  0.2985
16748TIP3    H171735   2.125   1.456   4.623  1.4628  0.5970  1.2006
16748TIP3    H271736   2.120   1.305   4.617  0.4989  0.6833 -1.3538
16749TIP3   OH271737   2.935   1.140  15.156 -0.4194  0.1255  0.3368
16749TIP3    H171738   3.024   1.105  15.156  0.6859  2.6538  1.7439
16749TIP3    H271739   2.946   1.235  15.150 -3.0970  0.4776 -0.5519
16750TIP3   OH271740   3.463   1.761  15.393  0.3005 -0.0147  0.1838
16750TIP3    H171741   3.404   1.784  15.465  0.7788 -0.2244  0.6494
16750TIP3    H271742   3.539   1.818  15.405  1.0128 -1.0370  0.7001
16751TIP3   OH271743   3.305   2.171   5.398 -0.0037 -0.1440 -0.1018
16751TIP3    H171744   3.263   2.107   5.456 -0.3244 -0.2189 -0.4165
16751TIP3    H271745   3.274   2.148   5.310  1.4014 -0.7722 -0.4585
16752TIP3   OH271746   4.992   4.292  16.137  0.4655 -0.2873  0.0215
16752TIP3    H171747   5.073   4.267  16.092  0.5475  1.4580 -0.8605
16752TIP3    H271748   4.923   4.249  16.086  0.7930 -1.9766  0.9153
16753TIP3   OH271749   3.615   3.787  17.084  0.2275  0.0499  0.3147
16753TIP3    H171750   3.552   3.806  17.153 -0.8678 -2.1872  0.0208
16753TIP3    H271751   3.690   3.749  17.130 -0.7259 -1.9635  0.3099
16754TIP3   OH271752   5.735   1.794  13.869 -0.1566  0.0952 -0.2237
16754TIP3    H171753   5.712   1.815  13.779  1.1492  0.6028 -0.4649
16754TIP3    H271754   5.705   1.704  13.882 -1.4106  0.4147 -0.7691
16755TIP3   OH271755   1.885   1.410   1.283  0.0844  0.1633  0.1465
16755TIP3    H171756   1.901   1.320   1.309 -0.9127 -0.7461 -2.0633
16755TIP3    H271757   1.965   1.457   1.304  0.6140 -1.2260  1.3496
16756TIP3   OH271758   5.113   4.331  13.479 -0.0036  0.1622  0.1863
16756TIP3    H171759   5.198   4.289  13.495 -0.6261 -1.1962  0.0386
16756TIP3    H271760   5.079   4.288  13.401 -0.6153  1.0606 -0.0652
16757TIP3   OH271761   0.000   6.236   1.172 -0.1945  0.3570 -0.0335
16757TIP3    H171762   0.036   6.223   1.084 -1.1007 -0.1116 -0.3465
16757TIP3    H271763   0.027   6.325   1.195 -0.9149  0.9211 -1.2568
16758TIP3   OH271764   4.462   3.623   0.844 -0.0285  0.1143  0.3742
16758TIP3    H171765   4.396   3.592   0.782  0.3225  0.0038  0.0508
16758TIP3    H271766   4.417   3.624   0.928 -1.0893  2.0479 -0.1493
16759TIP3   OH271767   0.221   6.086  14.904  0.1528 -0.7673  0.0731
16759TIP3    H171768   0.176   6.130  14.977  0.8922 -2.6402  1.7469
16759TIP3    H271769   0.298   6.141  14.887 -1.1885  0.9104 -0.8840
16760TIP3   OH271770   2.698   5.967   0.411  0.0728 -0.3164  0.4455
16760TIP3    H171771   2.624   6.027   0.402 -1.8370 -2.3147  1.7321
16760TIP3    H271772   2.684   5.902   0.341  0.2662 -1.0287  1.0543
16761TIP3   OH271773   0.575   6.706  11.645  0.3441  0.0154  0.4007
16761TIP3    H171774   0.527   6.634  11.605  1.2387 -1.1476  1.3231
16761TIP3    H271775   0.650   6.720  11.586 -0.3189  0.8538 -0.2725
16762TIP3   OH271776   3.794   0.028  12.866 -0.2769  0.5789  0.0163
16762TIP3    H171777   3.875  -0.008  12.902  0.0166  2.8321  1.7684
16762TIP3    H271778   3.726   0.001  12.928 -0.6417  0.0865 -0.5792
16763TIP3   OH271779   1.004   5.059  15.167  0.2552  0.2177  0.3246
16763TIP3    H171780   0.960   4.986  15.211  0.9958 -1.0310 -0.8984
16763TIP3    H271781   0.943   5.132  15.175 -0.2969 -0.3822  2.0370
16764TIP3   OH271782   3.542   1.439   3.745 -0.3430  0.0317  0.8198
16764TIP3    H171783   3.542   1.519   3.692 -0.5961 -0.4652  0.0546
16764TIP3    H271784   3.515   1.468   3.832 -1.6624  0.6041  0.2552
16765TIP3   OH271785   2.892   6.465   0.415  0.0194 -0.3405  0.5486
16765TIP3    H171786   2.934   6.379   0.411 -1.9295 -1.3786  0.9450
16765TIP3    H271787   2.814   6.456   0.360 -1.2682  0.5304  2.1648
16766TIP3   OH271788   5.193   1.189   0.241  0.5924  0.0139 -0.4402
16766TIP3    H171789   5.150   1.274   0.247 -1.4738 -1.0400  0.8036
16766TIP3    H271790   5.205   1.175   0.147 -0.0747  1.1977 -0.7229
16767TIP3   OH271791   0.965   2.604   0.792  0.6110 -0.0474 -0.1838
16767TIP3    H171792   0.959   2.569   0.881 -0.0431 -0.8742 -0.5401
16767TIP3    H271793   0.892   2.666   0.786  2.0641  1.8616  0.6139
16768TIP3   OH271794   0.116   4.696  12.951 -0.2362 -0.4134  0.1748
16768TIP3    H171795   0.142   4.780  12.914 -0.3251 -0.2516  0.4834
16768TIP3    H271796   0.109   4.638  12.875  0.6701 -0.3735  0.0472
16769TIP3   OH271797   4.148   3.686  14.362  0.0552  0.0838 -0.2270
16769TIP3    H171798   4.192   3.601  14.365 -0.0672  0.0335  0.5951
16769TIP3    H271799   4.105   3.693  14.448 -2.7791 -0.5112 -1.5018
16770TIP3   OH271800   4.040   6.110   0.289 -0.5944  0.2057  0.4959
16770TIP3    H171801   3.999   6.186   0.329  1.0080  2.2438 -1.4336
16770TIP3    H271802   4.125   6.142   0.259 -0.2329 -2.0935 -1.2214
16771TIP3   OH271803   2.609   4.541  10.985 -0.5928 -0.8328 -0.9464
16771TIP3    H171804   2.561   4.474  11.034  0.0312 -0.7400 -0.1905
16771TIP3    H271805   2.572   4.624  11.015  0.6855 -0.7138  0.3777
16772TIP3   OH271806   3.731   3.752   0.897  0.2193  0.4201 -0.7973
16772TIP3    H171807   3.642   3.780   0.877  0.2462  1.5425  0.5266
16772TIP3    H271808   3.786   3.823   0.863  0.6805 -0.5315 -2.1267
16773TIP3   OH271809   2.429   1.473  14.013  0.0999 -0.1858  0.0772
16773TIP3    H171810   2.510   1.481  13.963  0.4413  0.5134  0.7159
16773TIP3    H271811   2.365   1.527  13.966 -0.0210 -0.8113 -0.4767
16774TIP3   OH271812   3.230   0.777  14.804 -0.5617 -0.4971 -0.7137
16774TIP3    H171813   3.322   0.791  14.785 -0.2822 -0.4648  0.5848
16774TIP3    H271814   3.186   0.789  14.720  0.6069 -0.5269 -1.3500
16775TIP3   OH271815   5.564   6.287   3.520  0.2424  0.1033 -0.4529
16775TIP3    H171816   5.519   6.366   3.549 -0.8026 -0.5076 -0.3746
16775TIP3    H271817   5.584   6.239   3.601  0.1013 -0.1194 -0.5477
16776TIP3   OH271818   4.240   6.467   5.540 -0.7282 -0.2357 -0.1029
16776TIP3    H171819   4.302   6.408   5.582  0.9735  1.0294 -0.6815
16776TIP3    H271820   4.238   6.544   5.598  0.8429  1.0899 -1.6914
16777TIP3   OH271821   1.881   2.829   2.419  0.0497  0.0171 -0.3844
16777TIP3    H171822   1.838   2.907   2.384 -1.5030 -0.5404  0.1974
16777TIP3    H271823   1.967   2.860   2.447 -0.2307  1.3391 -0.9152
16778TIP3   OH271824   5.437   4.523  15.800 -0.7940 -0.0588  0.6012
16778TIP3    H171825   5.452   4.614  15.775 -0.2725 -0.2188  0.3178
16778TIP3    H271826   5.465   4.472  15.724  0.1844 -0.5150  1.2375
16779TIP3   OH271827   3.686   3.542  12.275  0.0626  0.1157  0.4296
16779TIP3    H171828   3.610   3.554  12.333  0.1896  0.9761  0.4399
16779TIP3    H271829   3.756   3.516  12.334 -0.2659 -0.8716  0.3943
16780TIP3   OH271830   5.945   2.965  10.724 -0.2329  0.0239  0.1701
16780TIP3    H171831   5.868   2.908  10.721 -0.0687 -0.1515 -1.9679
16780TIP3    H271832   6.010   2.915  10.773 -0.0278 -1.7752 -1.8128
16781TIP3   OH271833   6.706   1.084  15.702 -0.3219  0.1483 -0.0030
16781TIP3    H171834   6.622   1.082  15.748 -0.5918  2.2466 -0.3127
16781TIP3    H271835   6.704   1.165  15.652  1.4962 -0.2631 -0.8203
16782TIP3   OH271836   2.362   0.192   0.342  0.5074 -0.8776 -0.0550
16782TIP3    H171837   2.413   0.113   0.359  1.3553 -0.2616  0.3208
16782TIP3    H271838   2.384   0.216   0.252  1.4121 -0.2282  0.3380
16783TIP3   OH271839   5.427   2.139  12.481  0.6479 -0.1988 -0.2270
16783TIP3    H171840   5.478   2.148  12.400  0.4307  0.5669 -0.2848
16783TIP3    H271841   5.339   2.168  12.457  0.2859 -1.0887 -0.0115
16784TIP3   OH271842   0.894   0.440  11.498  0.0309  0.0820  0.6257
16784TIP3    H171843   0.876   0.348  11.517 -0.2528 -0.3094 -1.3714
16784TIP3    H271844   0.984   0.454  11.528  1.2914 -1.7840 -1.9749
16785TIP3   OH271845   4.863   3.644  14.968 -0.6254  0.6886 -0.2574
16785TIP3    H171846   4.840   3.551  14.961  0.3422  0.0998  2.8694
16785TIP3    H271847   4.785   3.690  14.939 -0.5885 -0.9837 -3.5081
16786TIP3   OH271848   1.821   1.290   2.811  0.1307 -0.2182 -0.6078
16786TIP3    H171849   1.830   1.353   2.739  0.4286 -0.1186 -0.4825
16786TIP3    H271850   1.730   1.300   2.840  0.0287 -0.2111 -0.9251
16787TIP3   OH271851   0.984   4.557   6.093 -0.4617  0.5118  0.9165
16787TIP3    H171852   1.075   4.528   6.098 -0.1604  1.4457  0.9147
16787TIP3    H271853   0.960   4.577   6.184 -0.4392  0.9355  0.8316
16788TIP3   OH271854   1.712   0.688  14.080 -0.1559  0.1854  0.6511
16788TIP3    H171855   1.768   0.720  14.151  1.2660 -0.9152  0.0568
16788TIP3    H271856   1.697   0.765  14.025  3.1728  0.0069 -0.7259
16789TIP3   OH271857   0.634   2.729  13.617 -0.0046  0.3990 -0.4629
16789TIP3    H171858   0.724   2.709  13.591 -0.2450 -0.0810 -0.9430
16789TIP3    H271859   0.613   2.665  13.685  0.7161  1.8229  1.1843
16790TIP3   OH271860   2.413   3.572  14.557  0.2777  0.8959 -0.4496
16790TIP3    H171861   2.492   3.585  14.610 -2.3775  1.3209  3.8436
16790TIP3    H271862   2.384   3.660  14.534 -0.2075  0.8845  0.0981
16791TIP3   OH271863   4.764   2.956  10.657 -0.4943  0.1332 -0.7017
16791TIP3    H171864   4.747   2.868  10.692 -2.5528  0.6510 -0.2727
16791TIP3    H271865   4.752   3.014  10.732  4.5523  0.6727  0.0479
16792TIP3   OH271866   5.639   6.663   1.469 -0.1904  0.2971  0.2991
16792TIP3    H171867   5.719   6.627   1.508  0.1488 -0.4716 -1.0388
16792TIP3    H271868   5.665   6.686   1.380 -1.8234 -1.5555 -0.7391
16793TIP3   OH271869   5.264   3.558  15.374 -0.1747  0.2451  0.4559
16793TIP3    H171870   5.305   3.631  15.328 -2.4489  1.2735 -0.1143
16793TIP3    H271871   5.321   3.483  15.356  1.4310  1.5667 -0.1964
16794TIP3   OH271872   0.339   6.300   6.074 -0.1047 -0.5031 -0.5644
16794TIP3    H171873   0.275   6.230   6.061  0.8766 -1.3978 -0.6596
16794TIP3    H271874   0.416   6.257   6.110  0.1078  0.7203  0.5212
16795TIP3   OH271875   4.815   0.728   6.439 -0.0882 -0.6549  0.5267
16795TIP3    H171876   4.877   0.687   6.499  1.2091  2.0657  1.1865
16795TIP3    H271877   4.862   0.802   6.402 -2.8444  1.4940  0.9541
16796TIP3   OH271878   1.988   5.893   2.814  0.0451 -0.2047  0.0303
16796TIP3    H171879   1.976   5.933   2.728 -2.2308  0.5959  0.6559
16796TIP3    H271880   1.900   5.866   2.840  0.6053 -0.0003  2.3140
16797TIP3   OH271881   3.130   6.067  13.526 -0.0789 -0.0683 -0.2935
16797TIP3    H171882   3.106   6.156  13.552 -0.4778 -0.3320  0.2813
16797TIP3    H271883   3.136   6.071  13.430 -1.2644  0.3119 -0.3782
16798TIP3   OH271884   2.525   1.976  13.525 -0.2844  0.1300  0.0314
16798TIP3    H171885   2.483   2.057  13.555  0.6818  0.3421  0.8572
16798TIP3    H271886   2.523   1.983  13.429 -3.2178 -0.4656 -0.0686
16799TIP3   OH271887   6.794   2.228   1.141 -0.8577 -0.4817  0.4763
16799TIP3    H171888   6.797   2.184   1.226 -1.7376 -2.8676 -0.6408
16799TIP3    H271889   6.719   2.189   1.096 -1.9674  2.5143 -0.5201
16800TIP3   OH271890   2.887   4.069   4.796  0.0983 -0.3280 -0.4142
16800TIP3    H171891   2.947   4.003   4.761  1.3906 -0.0576  1.2020
16800TIP3    H271892   2.896   4.144   4.737  1.8235 -0.0861  0.0977
16801TIP3   OH271893   3.749   0.301  15.480  0.7510  0.3208 -0.3730
16801TIP3    H171894   3.817   0.330  15.419  0.8150 -1.7618 -1.3852
16801TIP3    H271895   3.786   0.223  15.521  1.6658  2.8268  4.1773
16802TIP3   OH271896   2.875   2.943  15.125 -0.2607  0.1444  0.1307
16802TIP3    H171897   2.789   2.978  15.149  0.5411  2.5696 -0.2244
16802TIP3    H271898   2.919   2.929  15.209 -0.7811 -0.5587  0.2962
16803TIP3   OH271899   1.445   5.536  15.375  0.2886 -0.0844 -0.2902
16803TIP3    H171900   1.520   5.479  15.393  1.0638  0.7599 -0.7553
16803TIP3    H271901   1.399   5.492  15.304  0.5370 -0.4382 -0.2382
16804TIP3   OH271902   3.512   2.673  14.748  0.8666  0.6231 -0.3027
16804TIP3    H171903   3.439   2.700  14.693  0.6456 -0.0161 -0.3227
16804TIP3    H271904   3.590   2.688  14.694  0.5883 -0.9962 -1.1908
16805TIP3   OH271905   2.517   0.440  15.314  0.2610 -0.0686 -0.1978
16805TIP3    H171906   2.482   0.515  15.267 -1.7458 -2.1154 -2.2797
16805TIP3    H271907   2.572   0.395  15.250 -1.2479 -2.0941 -0.1637
16806TIP3   OH271908   1.801   0.341   4.910  0.5147 -0.1696 -0.2285
16806TIP3    H171909   1.804   0.362   5.003 -2.8585 -0.2374  0.0230
16806TIP3    H271910   1.834   0.252   4.904  2.9610  0.5954  0.4771
16807TIP3   OH271911   2.362   2.659  11.293  0.1932  0.9131  0.1442
16807TIP3    H171912   2.448   2.636  11.257 -0.2399 -0.0241 -0.3298
16807TIP3    H271913   2.316   2.701  11.221 -1.0571 -1.8986 -0.8747
16808TIP3   OH271914   0.017   3.649   5.197  0.2193 -0.4866  0.1668
16808TIP3    H171915   0.036   3.634   5.105 -1.6103 -1.3698 -0.0861
16808TIP3    H271916   0.084   3.599   5.244  0.1497 -1.3956 -0.6829
16809TIP3   OH271917   4.087   4.889   1.023  0.0189 -0.4433  0.2027
16809TIP3    H171918   4.155   4.922   1.081  0.0600  1.3125 -0.7582
16809TIP3    H271919   4.005   4.907   1.069  0.1247 -0.6283  0.4609
16810TIP3   OH271920   1.016   3.262   4.338 -0.0901  0.5030 -0.3375
16810TIP3    H171921   0.948   3.288   4.400 -0.9991  0.3643 -1.2481
16810TIP3    H271922   1.022   3.335   4.276 -1.4036 -0.6011 -1.8676
16811TIP3   OH271923   3.890   6.448  13.332  0.1815  0.1158  0.1126
16811TIP3    H171924   3.954   6.519  13.336  0.5352  0.0136 -2.3168
16811TIP3    H271925   3.918   6.395  13.257 -2.3970 -0.2572 -0.6729
16812TIP3   OH271926   2.663   0.133   2.289 -0.2547 -0.1860 -0.5332
16812TIP3    H171927   2.670   0.076   2.365 -0.3097  1.4815  0.7947
16812TIP3    H271928   2.753   0.159   2.270 -0.4231  1.6667  0.8563
16813TIP3   OH271929   5.660   5.029   5.456  0.0921 -0.2758 -0.5410
16813TIP3    H171930   5.604   5.101   5.426  0.9892  1.0593  0.8689
16813TIP3    H271931   5.632   5.012   5.546  0.7073 -0.8708 -0.4517
16814TIP3   OH271932   3.772   5.700  12.052  0.7652 -0.0444 -0.0475
16814TIP3    H171933   3.718   5.690  12.131  0.6524  1.6574  0.1332
16814TIP3    H271934   3.709   5.721  11.983  0.9269 -0.9338 -0.4831
16815TIP3   OH271935   5.124   2.405   6.220 -0.0360 -0.4924  0.3283
16815TIP3    H171936   5.192   2.341   6.201 -0.6629 -0.4159 -2.7801
16815TIP3    H271937   5.160   2.488   6.192 -1.3392 -0.4717 -1.5197
16816TIP3   OH271938   3.557   3.429   3.360  0.2627 -0.2904 -0.0509
16816TIP3    H171939   3.602   3.357   3.405  1.0211  1.0791  1.4976
16816TIP3    H271940   3.464   3.408   3.369  0.4794 -1.1930  0.1679
16817TIP3   OH271941   1.514   5.173   6.060  0.1307 -0.7263  0.1531
16817TIP3    H171942   1.489   5.265   6.047  0.3847 -0.4874  1.2823
16817TIP3    H271943   1.536   5.167   6.153 -1.3520 -2.2961  0.4389
16818TIP3   OH271944   2.100   2.302   4.250  0.2159 -0.4570 -0.1025
16818TIP3    H171945   2.074   2.246   4.322 -0.9570 -0.0541 -0.1847
16818TIP3    H271946   2.081   2.251   4.171  3.4558 -1.7429 -0.1716
16819TIP3   OH271947   0.502   3.008   0.741  0.1684 -0.2205  0.0010
16819TIP3    H171948   0.526   2.945   0.674 -0.6661 -0.5209 -0.0335
16819TIP3    H271949   0.578   3.066   0.748  0.9377 -1.1968  0.0091
16820TIP3   OH271950   5.585   3.784  16.125  0.0384  0.4358  0.0114
16820TIP3    H171951   5.661   3.769  16.070  1.6614 -2.8120  2.7863
16820TIP3    H271952   5.610   3.856  16.182  1.7719 -1.4685  1.8149
16821TIP3   OH271953   6.593   5.850   3.294  0.7047 -0.3444 -0.1466
16821TIP3    H171954   6.640   5.924   3.256  0.8336 -0.3129  0.0736
16821TIP3    H271955   6.535   5.820   3.224 -0.2316  0.7328  0.1351
16822TIP3   OH271956   3.273   6.487   6.130  0.2241 -0.1744 -0.7919
16822TIP3    H171957   3.360   6.513   6.160 -0.6724  3.4856 -0.8185
16822TIP3    H271958   3.216   6.560   6.157 -2.8676 -2.4049 -0.7586
16823TIP3   OH271959   4.342   3.226   5.753  0.2057 -0.0749 -0.3447
16823TIP3    H171960   4.412   3.248   5.814 -0.7493  0.8768  0.4593
16823TIP3    H271961   4.369   3.143   5.714  1.5350  0.0313  0.2906
16824TIP3   OH271962   4.840   4.993   1.915  0.6939  0.4602  0.0927
16824TIP3    H171963   4.790   5.062   1.960 -0.2388  0.5307 -0.9778
16824TIP3    H271964   4.805   4.911   1.950  0.1925  0.5172 -0.2608
16825TIP3   OH271965   0.212   2.435   3.466 -0.3178 -0.1477 -0.0502
16825TIP3    H171966   0.292   2.386   3.445 -0.7040 -1.6119  1.6353
16825TIP3    H271967   0.243   2.523   3.489  0.5532 -0.0315 -1.5465
16826TIP3   OH271968   4.468   5.618   6.135 -0.3817  0.1562  0.8624
16826TIP3    H171969   4.498   5.624   6.226 -0.6745  0.0064  0.9706
16826TIP3    H271970   4.415   5.539   6.133  0.4022 -0.3683  0.3313
16827TIP3   OH271971   4.905   0.844  16.741 -0.0837  0.2320  0.2319
16827TIP3    H171972   4.895   0.791  16.820  0.5315 -1.4463 -0.7708
16827TIP3    H271973   4.919   0.780  16.671  0.4607  1.7235 -1.0687
16828TIP3   OH271974   0.878   0.053   4.300 -0.3012 -0.3002  0.3406
16828TIP3    H171975   0.955   0.069   4.355 -0.7340 -2.4611  1.7141
16828TIP3    H271976   0.858   0.138   4.261  2.0343  0.5866  0.8940
16829TIP3   OH271977   6.482   5.391  11.818 -0.1109 -0.3499  0.5784
16829TIP3    H171978   6.561   5.412  11.868  1.2964 -0.9510 -1.2732
16829TIP3    H271979   6.444   5.477  11.797  1.3276  0.0856 -0.4129
16830TIP3   OH271980   5.761   4.704   5.627  0.3864  0.1392 -0.2374
16830TIP3    H171981   5.694   4.765   5.659  0.5273  0.0514  0.2344
16830TIP3    H271982   5.747   4.701   5.532  0.8443  1.4506 -0.3660
16831TIP3   OH271983   5.409   0.647   2.482  0.1037 -0.3512 -0.3229
16831TIP3    H171984   5.367   0.637   2.396 -1.2072  0.0821  0.2257
16831TIP3    H271985   5.420   0.742   2.492 -1.5049 -0.2257  0.7321
16832TIP3   OH271986   3.310   6.133  14.121 -0.1060  0.4801 -0.1571
16832TIP3    H171987   3.362   6.123  14.041 -2.0429  0.0183 -1.4497
16832TIP3    H271988   3.228   6.087  14.101 -0.9748  1.0926  1.7936
16833TIP3   OH271989   6.568   5.046   4.638  0.2568 -0.1539  0.2605
16833TIP3    H171990   6.634   4.984   4.607  0.4059 -0.3756  0.9970
16833TIP3    H271991   6.526   5.078   4.559 -0.7912 -2.2815 -0.1314
16834TIP3   OH271992   3.735   6.377   4.845 -0.5179  0.9194 -0.3138
16834TIP3    H171993   3.799   6.350   4.912 -1.5029 -0.6176  0.0592
16834TIP3    H271994   3.684   6.447   4.888 -1.3567 -0.2761  0.7074
16835TIP3   OH271995   0.484   3.203  14.743 -0.8214 -0.4486 -0.1017
16835TIP3    H171996   0.505   3.176  14.833  1.7218 -0.6108 -0.6421
16835TIP3    H271997   0.533   3.284  14.731 -2.1679  0.2581 -0.9550
16836TIP3   OH271998   1.650   6.478  12.069 -0.2982  0.3477  0.6039
16836TIP3    H171999   1.730   6.500  12.022 -1.4954 -0.5202 -2.0280
16836TIP3    H272000   1.674   6.403  12.124  0.7033  0.0239 -0.2504
16837TIP3   OH272001   1.699   6.202  11.509  0.0183  0.9830 -0.7362
16837TIP3    H172002   1.696   6.153  11.427 -0.6987  1.5101 -1.0360
16837TIP3    H272003   1.748   6.146  11.569  1.3966  0.9984 -1.7885
16838TIP3   OH272004   3.197   4.189   4.274  0.0158 -0.0508 -0.6401
16838TIP3    H172005   3.246   4.204   4.354 -0.7556 -0.1460 -0.1386
16838TIP3    H272006   3.188   4.276   4.234 -2.2287  0.5432  0.9491
16839TIP3   OH272007   5.887   2.742  13.298 -0.5946 -0.1641 -0.4119
16839TIP3    H172008   5.945   2.691  13.242 -1.5223  0.4053 -1.9679
16839TIP3    H272009   5.932   2.746  13.382  2.6347  1.8983 -2.0154
16840TIP3   OH272010   3.184   5.591   1.630  0.1515 -0.6991  0.4379
16840TIP3    H172011   3.225   5.641   1.701  0.2092  0.1905 -0.2068
16840TIP3    H272012   3.210   5.637   1.550 -2.5977  0.3088  0.0096
16841TIP3   OH272013   5.443   4.776   3.062  0.3470 -0.4256 -0.3837
16841TIP3    H172014   5.490   4.785   3.144  0.9891  1.2731 -0.9054
16841TIP3    H272015   5.507   4.796   2.994 -0.2741 -1.4060 -1.3020
16842TIP3   OH272016   3.611   1.249   5.604 -0.0685 -0.0067  0.1918
16842TIP3    H172017   3.699   1.225   5.576  0.9094  0.9935  2.1898
16842TIP3    H272018   3.560   1.253   5.523  2.1483  1.1119 -1.2503
16843TIP3   OH272019   2.476   6.362   0.580 -0.5550 -0.4588  0.3010
16843TIP3    H172020   2.438   6.275   0.592  0.5452 -1.1587 -0.9759
16843TIP3    H272021   2.449   6.389   0.492  0.9492 -0.5155 -0.2141
16844TIP3   OH272022   4.469   3.961   2.836  0.3334 -0.2744  0.1699
16844TIP3    H172023   4.558   3.987   2.811  0.3243 -0.4849 -0.0962
16844TIP3    H272024   4.417   3.975   2.756  0.7204 -3.0193 -0.6856
16845TIP3   OH272025   6.459   5.070   3.384 -0.2832  0.7297 -0.4214
16845TIP3    H172026   6.385   5.130   3.392 -1.9033 -1.1142 -0.7963
16845TIP3    H272027   6.535   5.121   3.413 -1.4427  3.1412 -1.3778
16846TIP3   OH272028   4.044   6.023  11.914 -0.5732  0.3145 -0.2438
16846TIP3    H172029   4.126   6.046  11.871  0.6932 -1.1969  1.2034
16846TIP3    H272030   3.976   6.059  11.858  1.0698  3.3524 -0.4915
16847TIP3   OH272031   4.888   5.585  14.852 -0.2974  0.2693 -0.7055
16847TIP3    H172032   4.909   5.492  14.844  1.9598  0.5094  1.4496
16847TIP3    H272033   4.915   5.623  14.768  1.8130 -0.5658 -0.4603
16848TIP3   OH272034   4.624   5.038  11.248  0.0897 -0.0664  0.5097
16848TIP3    H172035   4.678   5.088  11.309 -0.7952 -0.1963  1.4210
16848TIP3    H272036   4.537   5.040  11.286 -0.4344 -0.3817 -0.6231
16849TIP3   OH272037   5.893   3.553   3.001  0.5399 -0.2884  0.3403
16849TIP3    H172038   5.811   3.553   3.051  0.2589  0.7712 -0.0738
16849TIP3    H272039   5.944   3.481   3.037 -1.4024 -2.3308 -0.7476
16850TIP3   OH272040   3.823   2.086   3.435  0.3304  0.1231 -0.1022
16850TIP3    H172041   3.756   2.141   3.394  0.5019  0.7255  0.4213
16850TIP3    H272042   3.875   2.053   3.361  0.1680  0.5872 -0.4290
16851TIP3   OH272043   5.568   5.102   3.142 -0.2009 -0.4554 -0.0844
16851TIP3    H172044   5.641   5.156   3.173 -0.2455 -1.0087  1.0216
16851TIP3    H272045   5.490   5.147   3.174 -0.3986  0.3653 -1.6239
16852TIP3   OH272046   2.165   0.238  15.807 -0.4238  0.4544  0.3709
16852TIP3    H172047   2.180   0.162  15.863  1.1190  0.1017 -0.4638
16852TIP3    H272048   2.222   0.306  15.843 -0.2041  0.5493 -0.1537
16853TIP3   OH272049   1.179   1.663  15.339 -0.3393 -0.9097 -0.0677
16853TIP3    H172050   1.096   1.680  15.383 -0.0552  0.2004  0.0571
16853TIP3    H272051   1.161   1.679  15.247  0.1195  0.9408  0.1296
16854TIP3   OH272052   0.017   4.266  14.827  0.1549  1.0609  0.6254
16854TIP3    H172053   0.021   4.354  14.790 -0.9493  1.5603  1.6293
16854TIP3    H272054  -0.008   4.210  14.755  1.0234  1.5415 -0.0670
16855TIP3   OH272055   4.201   1.057  15.412 -0.3901 -0.6404 -0.2637
16855TIP3    H172056   4.273   1.106  15.451  0.3922 -2.0497  0.1043
16855TIP3    H272057   4.123   1.110  15.432  0.6009  1.5305 -1.6956
16856TIP3   OH272058   2.757   4.990   2.302 -0.2949 -0.4457  0.4927
16856TIP3    H172059   2.824   4.938   2.346 -0.2614 -1.3438 -0.5738
16856TIP3    H272060   2.790   5.001   2.212 -1.2414 -0.2966  0.1484
16857TIP3   OH272061   5.062   3.748  14.598  0.5584  0.3329 -0.2298
16857TIP3    H172062   5.013   3.736  14.679  0.2619  0.7654 -0.3435
16857TIP3    H272063   5.082   3.659  14.568 -0.7499  0.1371 -0.5460
16858TIP3   OH272064   5.219   6.171  16.925  0.0716  0.0593 -0.2096
16858TIP3    H172065   5.161   6.114  16.976  0.1232  0.1315 -0.0699
16858TIP3    H272066   5.216   6.255  16.970  0.3687  0.0333 -0.1343
16859TIP3   OH272067   4.073   4.586   5.824  0.2476  0.2612  0.1382
16859TIP3    H172068   4.140   4.653   5.837 -1.1165  1.4272  1.5552
16859TIP3    H272069   4.013   4.625   5.760 -0.5201  0.4227  0.9268
16860TIP3   OH272070   2.659   2.617  14.023  0.1108  0.6615  0.2539
16860TIP3    H172071   2.606   2.582  14.095  0.5716  0.6409  0.5844
16860TIP3    H272072   2.720   2.678  14.065  1.4531 -0.5317  0.1090
16861TIP3   OH272073   3.594   6.586   0.382 -0.9727  0.0408 -0.2472
16861TIP3    H172074   3.539   6.652   0.339 -0.6946  0.2832 -0.2318
16861TIP3    H272075   3.665   6.571   0.321 -0.6637  0.2642  0.0534
16862TIP3   OH272076   3.535   3.784   1.719  0.2059 -0.0488 -0.1490
16862TIP3    H172077   3.549   3.861   1.774 -1.5347  0.8313 -0.8485
16862TIP3    H272078   3.526   3.712   1.781 -0.2727  0.6855  0.6599
16863TIP3   OH272079   4.164   2.073   1.659 -0.6305  0.5034  0.7154
16863TIP3    H172080   4.151   1.978   1.657 -0.0956  0.4225  0.9977
16863TIP3    H272081   4.186   2.093   1.750  0.7633  0.6837  0.3576
16864TIP3   OH272082   3.504   6.790   4.822  0.1668  0.7611 -0.4725
16864TIP3    H172083   3.548   6.785   4.736 -0.7080 -1.3285 -0.8401
16864TIP3    H272084   3.566   6.751   4.883 -0.5334 -0.8091 -0.7389
16865TIP3   OH272085   2.423   1.858  14.561 -0.0558  0.2135 -0.5447
16865TIP3    H172086   2.482   1.923  14.601  0.4036 -0.2656 -0.4359
16865TIP3    H272087   2.390   1.807  14.635  0.6975 -0.5967 -0.7575
16866TIP3   OH272088   3.883   1.812   2.956 -1.0746 -0.5189  0.2736
16866TIP3    H172089   3.971   1.779   2.940 -0.7710 -0.7338  2.1348
16866TIP3    H272090   3.878   1.893   2.904  0.6192  0.0671  0.9481
16867TIP3   OH272091   0.490   0.801  14.616  0.2812  0.1858 -0.0488
16867TIP3    H172092   0.439   0.802  14.698  0.4373 -0.8584  0.0742
16867TIP3    H272093   0.514   0.892  14.602 -2.2444  0.8733 -0.5022
16868TIP3   OH272094   6.605   3.638  10.770 -0.5072 -0.2730 -0.1715
16868TIP3    H172095   6.521   3.683  10.781  0.6584  1.6850  1.2722
16868TIP3    H272096   6.661   3.702  10.727  0.5451 -1.2245 -0.2693
16869TIP3   OH272097   1.433   3.830   1.873  0.2385 -0.1641  0.1358
16869TIP3    H172098   1.491   3.841   1.948  0.4928 -2.5187  0.3675
16869TIP3    H272099   1.347   3.860   1.903  0.7675  0.9107  0.6338
16870TIP3   OH272100   0.499   0.578   5.840  0.7812 -0.0224  0.2309
16870TIP3    H172101   0.591   0.579   5.814  1.1761  0.0102  1.5477
16870TIP3    H272102   0.500   0.545   5.930 -0.5140 -0.1888  0.2017
16871TIP3   OH272103   0.463   5.584   4.033  0.1282 -0.0163 -0.2882
16871TIP3    H172104   0.509   5.655   3.990 -0.5417  1.0641  0.7162
16871TIP3    H272105   0.432   5.528   3.962 -0.2229  1.2524 -1.1677
16872TIP3   OH272106   0.651   3.203  12.808  0.1498  0.3154 -0.3075
16872TIP3    H172107   0.716   3.163  12.750  1.5940 -1.1823  2.1810
16872TIP3    H272108   0.700   3.264  12.862 -0.8856  0.6393  0.2994
16873TIP3   OH272109   3.613   4.835   2.689 -0.0636 -0.2862 -0.2489
16873TIP3    H172110   3.628   4.929   2.687  2.1816 -0.5850 -1.5667
16873TIP3    H272111   3.529   4.823   2.644 -0.8820  1.0997  0.8208
16874TIP3   OH272112   4.654   1.590   0.338  0.9553  0.0963  0.6073
16874TIP3    H172113   4.729   1.628   0.291  0.8415 -0.9373 -0.4320
16874TIP3    H272114   4.671   1.496   0.339 -1.2092 -0.4189 -1.3465
16875TIP3   OH272115   3.937   1.448   4.898 -0.0544 -0.3936 -0.5027
16875TIP3    H172116   4.024   1.414   4.881  0.4591 -0.6353  2.1712
16875TIP3    H272117   3.940   1.539   4.870  0.4310 -0.8841 -2.1536
16876TIP3   OH272118   0.816   4.923  11.611 -0.2613  0.9515 -0.0839
16876TIP3    H172119   0.748   4.879  11.561  0.8790  1.0211 -1.7775
16876TIP3    H272120   0.863   4.976  11.546  1.5073  0.7729  0.9834
16877TIP3   OH272121   5.707   4.035  15.368  0.2101 -0.8272  0.2241
16877TIP3    H172122   5.677   4.035  15.277 -1.0300 -0.5982  0.6156
16877TIP3    H272123   5.802   4.040  15.362  0.0968  2.3751 -1.0886
16878TIP3   OH272124   2.613   3.409   0.240 -0.6203  0.2924 -0.0800
16878TIP3    H172125   2.530   3.399   0.287 -0.1470  0.4309  0.8113
16878TIP3    H272126   2.587   3.425   0.150 -1.5544 -0.5270  0.0132
16879TIP3   OH272127   4.180   6.169  15.027 -0.1318  0.8594 -0.0959
16879TIP3    H172128   4.200   6.104  14.960 -2.6564 -0.6686  0.4895
16879TIP3    H272129   4.123   6.233  14.983  0.5029  1.4336 -0.0984
16880TIP3   OH272130   2.807   6.487   4.040 -0.2721 -0.3824 -0.2973
16880TIP3    H172131   2.848   6.573   4.055 -0.0986 -0.6470  0.8978
16880TIP3    H272132   2.816   6.442   4.124  1.6667 -2.4419 -1.5089
16881TIP3   OH272133   2.661   1.457  13.101  0.0272  0.3486  0.0864
16881TIP3    H172134   2.600   1.413  13.042 -0.8590  0.7198  0.7062
16881TIP3    H272135   2.669   1.398  13.176 -0.8164  1.0116  0.7191
16882TIP3   OH272136   0.127   1.340   3.300  0.2258 -0.4405  0.2194
16882TIP3    H172137   0.214   1.370   3.326  0.3062  1.3232 -1.7902
16882TIP3    H272138   0.141   1.255   3.259  1.4961  0.9725 -2.5171
16883TIP3   OH272139   4.877   4.580   4.325  0.3237 -0.5384 -0.4385
16883TIP3    H172140   4.787   4.565   4.352  0.5890 -1.3089  0.0582
16883TIP3    H272141   4.872   4.651   4.262 -0.3769  0.9425  1.2187
16884TIP3   OH272142   2.997   1.770  11.499 -0.2304  0.5521  0.0134
16884TIP3    H172143   2.915   1.783  11.547 -0.2089 -1.8809  0.8235
16884TIP3    H272144   2.970   1.758  11.408 -0.8665 -0.8664  0.3716
16885TIP3   OH272145   5.718   4.659   0.934  0.7736  0.1942 -0.0052
16885TIP3    H172146   5.628   4.691   0.941  0.4373 -0.3930 -1.3075
16885TIP3    H272147   5.770   4.739   0.924  0.2682  0.4974 -0.3217
16886TIP3   OH272148   1.396   3.918   5.340 -0.1267  1.0331  0.2150
16886TIP3    H172149   1.456   3.974   5.290  0.8899  0.2356  0.5036
16886TIP3    H272150   1.405   3.949   5.430 -1.1258  1.7438  0.0837
16887TIP3   OH272151   0.693   4.802  12.659 -0.4229  0.1845  0.1820
16887TIP3    H172152   0.746   4.723  12.665 -0.8457 -0.0806  0.4682
16887TIP3    H272153   0.646   4.807  12.742 -0.5936  0.5971  0.0682
16888TIP3   OH272154   2.829   4.037  15.502 -0.1236  0.1864 -0.2237
16888TIP3    H172155   2.905   4.025  15.558 -0.0650  1.9037  0.0999
16888TIP3    H272156   2.850   4.112  15.448 -0.8309 -0.4889 -1.4766
16889TIP3   OH272157   2.628   4.925  13.277  0.7485 -0.3221  0.2486
16889TIP3    H172158   2.673   4.950  13.358  0.2001  0.6110  0.2673
16889TIP3    H272159   2.647   4.996  13.216  1.5293 -1.2297 -0.6081
16890TIP3   OH272160   0.225   1.203   1.444 -0.0800 -0.5237  0.0927
16890TIP3    H172161   0.250   1.130   1.388  1.2320  0.0432 -0.1004
16890TIP3    H272162   0.215   1.165   1.531  1.6491 -0.7711  0.2050
16891TIP3   OH272163   2.829   5.753  12.563  0.2721 -0.1945  0.5287
16891TIP3    H172164   2.884   5.676  12.550 -0.2888 -0.3243 -1.3056
16891TIP3    H272165   2.740   5.717  12.568  0.2129  0.0981  2.5724
16892TIP3   OH272166   1.132   2.505   0.609 -0.6946 -0.7697 -0.5570
16892TIP3    H172167   1.156   2.413   0.607  2.5285 -0.0922  1.0492
16892TIP3    H272168   1.080   2.515   0.689  0.0622 -0.9811 -0.0333
16893TIP3   OH272169   0.146   1.863  12.088  0.2744 -0.0300 -0.0970
16893TIP3    H172170   0.212   1.908  12.140  1.3167 -0.0348 -1.4006
16893TIP3    H272171   0.120   1.925  12.021 -3.8757  1.4921  2.4620
16894TIP3   OH272172   3.106   5.148   1.111  0.0058  0.1087 -0.2230
16894TIP3    H172173   3.147   5.104   1.036  0.5230  0.2311 -0.0125
16894TIP3    H272174   3.072   5.230   1.075 -0.3843 -0.1564 -0.4747
16895TIP3   OH272175   1.179   2.251  13.141 -0.5840  0.1164  0.4231
16895TIP3    H172176   1.100   2.213  13.102  0.1526 -0.0216 -1.0230
16895TIP3    H272177   1.228   2.176  13.173  0.1363 -0.0657 -1.0172
16896TIP3   OH272178   2.456   4.119   0.259 -0.5167 -0.2966 -0.2055
16896TIP3    H172179   2.402   4.087   0.187 -0.6385 -0.8640  0.1274
16896TIP3    H272180   2.495   4.040   0.296 -0.0939  0.0322  0.0622
16897TIP3   OH272181   4.945   6.695  15.765 -0.1264  0.1170  0.0237
16897TIP3    H172182   4.966   6.727  15.853 -2.9938  1.8367  0.2250
16897TIP3    H272183   4.959   6.601  15.769 -1.4663 -0.0532  2.7892
16898TIP3   OH272184   4.238   2.624   4.136 -0.2469 -0.1535 -0.1972
16898TIP3    H172185   4.164   2.648   4.080 -0.5125  0.7580  0.5238
16898TIP3    H272186   4.287   2.560   4.084 -1.1172 -0.2006 -0.9951
16899TIP3   OH272187   4.860   4.179   3.552 -0.0691  0.2141  0.6224
16899TIP3    H172188   4.869   4.204   3.460  0.1046  0.8198  0.7979
16899TIP3    H272189   4.793   4.110   3.552  0.2798 -0.1429 -0.0127
16900TIP3   OH272190   1.126   5.276  12.746 -0.6536 -0.4590 -0.0728
16900TIP3    H172191   1.192   5.324  12.796 -0.5392 -1.6764  0.9794
16900TIP3    H272192   1.156   5.185  12.746 -1.8187 -0.8660 -0.4335
16901TIP3   OH272193   4.988   6.157  10.984  0.5259  0.2963 -0.1293
16901TIP3    H172194   4.935   6.083  10.954  0.6640 -0.2066  0.8222
16901TIP3    H272195   4.924   6.222  11.011  0.2661 -0.9936  2.7359
16902TIP3   OH272196   1.978   1.992  14.102  0.1792  0.0742 -0.7250
16902TIP3    H172197   2.031   2.016  14.178  0.1831  0.0167 -0.7101
16902TIP3    H272198   1.948   1.903  14.119 -0.4485  0.3365 -0.4434
16903TIP3   OH272199   5.111   0.783  13.982  0.2939  0.5625 -0.0703
16903TIP3    H172200   5.054   0.805  13.908 -0.0587  1.3879  0.4237
16903TIP3    H272201   5.057   0.802  14.059  0.3084 -1.2228  0.4046
16904TIP3   OH272202   6.229   0.274   3.210  0.2332  0.3038  0.1686
16904TIP3    H172203   6.237   0.322   3.292  0.1585  1.3901 -0.4393
16904TIP3    H272204   6.185   0.335   3.151  2.7168  0.6039 -1.5192
16905TIP3   OH272205   5.672   3.379   2.169  0.2269  0.5427  0.2228
16905TIP3    H172206   5.666   3.470   2.139  0.8043  0.6185  0.3253
16905TIP3    H272207   5.730   3.383   2.245  1.8502 -0.1595 -0.9236
16906TIP3   OH272208   4.991   1.623  16.414  0.3869  0.4869 -0.6130
16906TIP3    H172209   4.991   1.590  16.324 -2.6697  0.5645 -0.7678
16906TIP3    H272210   5.061   1.575  16.457  0.4728 -1.2307 -2.4904
16907TIP3   OH272211   0.218   1.777  12.441 -0.2363 -0.0381 -0.0221
16907TIP3    H172212   0.295   1.725  12.463 -1.5037 -1.4962  1.2230
16907TIP3    H272213   0.168   1.723  12.380  0.2563  1.4105 -1.7872
16908TIP3   OH272214   2.035   3.826  12.206 -0.1725 -0.3939 -0.3904
16908TIP3    H172215   2.121   3.785  12.215  0.3582  0.5121 -1.1737
16908TIP3    H272216   2.050   3.919  12.227 -0.4421  0.2550 -2.7604
16909TIP3   OH272217   3.855   0.359   1.441 -0.0150  0.4415 -0.2209
16909TIP3    H172218   3.854   0.297   1.514 -1.0030  1.0851  0.3281
16909TIP3    H272219   3.942   0.400   1.446  0.9898 -1.4712 -1.1194
16910TIP3   OH272220   0.085   2.335  11.296 -0.2336 -0.3216 -0.1404
16910TIP3    H172221   0.044   2.405  11.244  0.3206 -0.1019 -0.2878
16910TIP3    H272222   0.117   2.272  11.230 -2.1401 -1.5467  0.0201
16911TIP3   OH272223   2.702   3.557   3.655  0.0044  0.2390  0.2849
16911TIP3    H172224   2.707   3.545   3.749 -1.9022  0.4738  0.4552
16911TIP3    H272225   2.700   3.652   3.643  0.2548  0.2103  0.0159
16912TIP3   OH272226   5.561   1.079   2.865  0.1407 -0.2682  0.0315
16912TIP3    H172227   5.588   0.993   2.835  0.8695  0.6124 -1.9989
16912TIP3    H272228   5.478   1.095   2.821  0.3019  0.3133 -0.0693
16913TIP3   OH272229   3.598   4.475  13.131 -0.0784 -0.1048 -0.3629
16913TIP3    H172230   3.637   4.484  13.044  0.9159 -2.1003 -0.1766
16913TIP3    H272231   3.589   4.565  13.163  1.7089  0.5575 -1.5906
16914TIP3   OH272232   3.833   5.955  12.147  0.1149  0.4958 -0.0801
16914TIP3    H172233   3.814   5.865  12.174 -0.4736  0.5297 -0.3800
16914TIP3    H272234   3.870   5.946  12.059 -3.4047  0.7520 -1.7584
16915TIP3   OH272235   4.649   0.377  13.381 -0.1655 -0.8569  0.1418
16915TIP3    H172236   4.592   0.324  13.437  0.0604 -0.4410  0.7656
16915TIP3    H272237   4.703   0.427  13.441  0.4292 -0.7754 -0.4469
16916TIP3   OH272238   0.931   3.915   1.529  0.8689 -0.2035  0.8231
16916TIP3    H172239   0.962   4.003   1.509 -2.0609  0.9807  0.8951
16916TIP3    H272240   0.972   3.859   1.463  0.9734  1.6102 -0.7257
16917TIP3   OH272241   0.444   1.416   1.098  0.3094 -0.2980  0.1644
16917TIP3    H172242   0.457   1.476   1.025  1.2683  1.1843  1.4926
16917TIP3    H272243   0.349   1.405   1.104  0.2318 -2.1966 -2.5926
16918TIP3   OH272244   1.767   5.862   6.150 -0.0286  0.0247  0.0189
16918TIP3    H172245   1.729   5.838   6.066 -0.9831 -1.0895  0.7483
16918TIP3    H272246   1.855   5.894   6.128  0.3361 -1.7179 -1.2487
16919TIP3   OH272247   0.867   5.656  16.919 -0.3193  0.1066 -0.0814
16919TIP3    H172248   0.782   5.615  16.912  0.0544 -0.7267  0.1819
16919TIP3    H272249   0.858   5.721  16.989 -0.3945 -0.8560  0.8092
16920TIP3   OH272250   6.167   5.510  15.524 -0.0300 -0.4063 -0.2293
16920TIP3    H172251   6.214   5.427  15.514 -0.4356 -0.5009 -1.6659
16920TIP3    H272252   6.136   5.530  15.436 -1.0379  0.6323  0.3379
16921TIP3   OH272253   4.596   6.689  14.609  0.5638 -0.5097  0.1166
16921TIP3    H172254   4.535   6.755  14.577  1.0463 -0.2870 -0.3603
16921TIP3    H272255   4.607   6.628  14.536  0.8224 -0.6137  0.2389
16922TIP3   OH272256   0.753   3.291   5.783 -0.0252  0.2576 -0.0257
16922TIP3    H172257   0.679   3.325   5.833 -0.1508  0.7887 -0.5658
16922TIP3    H272258   0.727   3.202   5.758 -0.4047  0.3789 -0.0590
16923TIP3   OH272259   5.085   6.597  14.153 -0.3433 -0.1179  0.0812
16923TIP3    H172260   5.091   6.549  14.071  0.6450 -2.3884  1.3835
16923TIP3    H272261   5.037   6.677  14.131 -0.3813 -0.7909 -2.5985
16924TIP3   OH272262   0.380   4.897   6.537 -0.4877 -0.0353 -0.1812
16924TIP3    H172263   0.391   4.944   6.454  0.0082  0.2218  0.0254
16924TIP3    H272264   0.304   4.938   6.577 -1.7030 -1.2118 -1.2122
16925TIP3   OH272265   1.475   0.986  11.905 -0.0924  0.4774 -0.3670
16925TIP3    H172266   1.526   1.034  11.970 -1.2159  1.2031  0.0022
16925TIP3    H272267   1.515   0.898  11.904  1.1117  0.9937 -0.0644
16926TIP3   OH272268   5.754   0.444  13.269  0.2294  0.4113 -0.2437
16926TIP3    H172269   5.673   0.462  13.317  1.5124  3.1255  1.1116
16926TIP3    H272270   5.732   0.463  13.178 -1.0601 -0.5359 -0.1715
16927TIP3   OH272271   0.494   2.464   1.151  0.4867  0.0613  0.2419
16927TIP3    H172272   0.451   2.518   1.217  3.5868  0.3430  2.2368
16927TIP3    H272273   0.539   2.526   1.095  0.2277 -0.2986 -0.3718
16928TIP3   OH272274   0.126   0.725  11.555  0.2726  0.0532  0.2966
16928TIP3    H172275   0.062   0.656  11.540 -1.7003  1.8098  0.0244
16928TIP3    H272276   0.202   0.699  11.504 -0.4645 -1.7890  0.0574
16929TIP3   OH272277   1.274   5.822  16.889  0.3728 -0.3476 -0.6972
16929TIP3    H172278   1.213   5.797  16.957  1.0499 -1.3088 -0.4162
16929TIP3    H272279   1.349   5.860  16.936  0.5868 -0.4633 -0.9419
16930TIP3   OH272280   6.351   6.138   5.490  0.3435 -0.0991  0.3430
16930TIP3    H172281   6.324   6.201   5.423 -1.1505 -1.3657 -0.2902
16930TIP3    H272282   6.274   6.083   5.504  1.6008 -1.7985  0.8720
16931TIP3   OH272283   0.340   6.373  14.642  0.1081 -0.0953 -0.0758
16931TIP3    H172284   0.423   6.418  14.654 -0.3183  0.9996 -1.1268
16931TIP3    H272285   0.345   6.334  14.555 -1.4435  2.1992 -1.2872
16932TIP3   OH272286   5.897   4.908  11.302  0.5420  0.0389 -0.0835
16932TIP3    H172287   5.821   4.951  11.340  0.2349 -0.4702 -0.1101
16932TIP3    H272288   5.870   4.886  11.213  1.0963  0.8122 -0.4572
16933TIP3   OH272289   1.098   5.019   0.189  0.3516 -0.3699  0.2991
16933TIP3    H172290   1.135   5.040   0.103  2.2196 -3.9773  0.0040
16933TIP3    H272291   1.024   4.962   0.170 -1.2635  1.3464  1.1096
16934TIP3   OH272292   2.569   4.988   5.608 -0.3474 -0.7232  0.1860
16934TIP3    H172293   2.554   5.055   5.675  0.8057  0.0835 -0.3292
16934TIP3    H272294   2.657   5.006   5.575 -0.8785 -1.0992 -1.5433
16935TIP3   OH272295   0.845   1.094   4.472 -0.0944  0.2883 -0.1572
16935TIP3    H172296   0.891   1.026   4.521 -1.3578  0.1120  0.8554
16935TIP3    H272297   0.754   1.062   4.467 -0.8064  2.0453  0.6957
16936TIP3   OH272298   4.323   2.141  12.118  0.1526  0.2725  0.6949
16936TIP3    H172299   4.365   2.106  12.196 -2.2243  1.3473  2.5803
16936TIP3    H272300   4.272   2.068  12.083 -0.8931  0.4788  1.7460
16937TIP3   OH272301   2.381   4.519   4.792 -0.0280 -0.4489 -0.0936
16937TIP3    H172302   2.344   4.591   4.844  0.9892 -1.2457  1.8390
16937TIP3    H272303   2.447   4.561   4.736  0.3844  0.1684  0.8379
16938TIP3   OH272304   4.432   0.815  11.474  0.4076  0.1731 -0.1562
16938TIP3    H172305   4.459   0.727  11.501 -0.7430  0.4334  2.0844
16938TIP3    H272306   4.514   0.865  11.473  0.7342 -0.2239  1.6038
16939TIP3   OH272307   3.694   6.171  16.826  0.0780  0.4273 -0.2701
16939TIP3    H172308   3.734   6.107  16.886 -2.1510  0.1371  0.9944
16939TIP3    H272309   3.740   6.157  16.743  0.8347 -1.6379  0.4205
16940TIP3   OH272310   3.442   2.102   5.100 -0.2546  0.3141  0.3203
16940TIP3    H172311   3.428   2.196   5.114  0.0848  0.2382  1.2276
16940TIP3    H272312   3.355   2.063   5.109 -0.9645  0.8294 -2.9766
16941TIP3   OH272313   6.257   1.156  14.552 -0.3211  0.7403  0.1370
16941TIP3    H172314   6.204   1.170  14.474  0.6351 -0.4820 -0.7608
16941TIP3    H272315   6.197   1.113  14.614 -0.7200  0.5303 -0.3888
16942TIP3   OH272316   4.034   2.194   3.080  0.0514 -0.6182 -0.0234
16942TIP3    H172317   4.055   2.175   2.989  1.7263  0.1648  0.1429
16942TIP3    H272318   4.013   2.109   3.119  0.2644 -1.0931 -0.9260
16943TIP3   OH272319   5.547   5.562   4.304 -0.6272  0.0993  0.7187
16943TIP3    H172320   5.591   5.641   4.336 -1.9051  1.9531 -1.7311
16943TIP3    H272321   5.607   5.527   4.238  0.2071 -1.4232  2.2035
16944TIP3   OH272322   6.297   3.974   4.623 -0.8642  0.1915  0.4463
16944TIP3    H172323   6.320   4.000   4.534 -0.3580 -1.0063  0.2155
16944TIP3    H272324   6.202   3.966   4.622 -0.8411 -0.0029 -0.0300
16945TIP3   OH272325   3.814   0.321   3.880 -0.0378 -0.1813 -0.3656
16945TIP3    H172326   3.722   0.344   3.883 -0.1129 -0.4943 -0.1948
16945TIP3    H272327   3.859   0.402   3.856 -0.3700 -0.0668 -0.6007
16946TIP3   OH272328   1.253   0.107  14.762 -0.6041 -0.1324 -0.2805
16946TIP3    H172329   1.174   0.112  14.709 -1.5494  0.8866  1.1552
16946TIP3    H272330   1.289   0.196  14.759  0.2951 -0.4926 -0.5993
16947TIP3   OH272331   2.960   6.577  13.472 -0.4482  0.1154  0.5057
16947TIP3    H172332   2.962   6.583  13.568 -1.1510  0.2358  0.5119
16947TIP3    H272333   2.944   6.484  13.455  0.0097  0.0355  0.4991
16948TIP3   OH272334   5.852   4.256  16.639  0.3325 -0.8726 -0.9542
16948TIP3    H172335   5.926   4.255  16.700  0.0788 -0.6449 -0.6368
16948TIP3    H272336   5.858   4.341  16.596  1.2236 -1.5121 -2.1440
16949TIP3   OH272337   2.867   5.455  14.158  0.3493  0.4253  0.7232
16949TIP3    H172338   2.950   5.502  14.162 -0.1412  1.4276 -0.2782
16949TIP3    H272339   2.800   5.524  14.154 -0.4504 -0.3528  0.1154
16950TIP3   OH272340   1.671   3.300   3.626  0.4774  0.4823  0.6842
16950TIP3    H172341   1.601   3.331   3.684 -0.3094  1.7335 -0.8884
16950TIP3    H272342   1.632   3.226   3.580  0.3398  0.8849  0.1486
16951TIP3   OH272343   3.452   3.013   2.199 -0.2425  0.4635 -0.2994
16951TIP3    H172344   3.413   2.981   2.281 -1.7753  0.2231 -1.0943
16951TIP3    H272345   3.512   3.082   2.227  0.2950 -0.5131  1.1326
16952TIP3   OH272346   1.118   4.754   3.726  0.7241 -0.0039 -0.5294
16952TIP3    H172347   1.132   4.755   3.820  0.1647 -0.9171 -0.4184
16952TIP3    H272348   1.105   4.845   3.702  0.5148  0.1988  0.3347
16953TIP3   OH272349   1.107   6.099  13.362 -0.2875  0.4822 -0.0645
16953TIP3    H172350   1.057   6.109  13.443  0.4887  1.5758  0.3006
16953TIP3    H272351   1.041   6.079  13.296 -1.0824  0.7765  0.6179
16954TIP3   OH272352   5.548   2.301   5.767 -0.0133 -0.7101  0.1648
16954TIP3    H172353   5.545   2.344   5.853  0.0579  0.2379 -0.2893
16954TIP3    H272354   5.633   2.257   5.765  0.8464  0.8905 -0.1532
16955TIP3   OH272355   2.894   5.651  15.941  0.4573 -0.1308 -0.2157
16955TIP3    H172356   2.927   5.741  15.950 -0.4896  0.6309 -3.1822
16955TIP3    H272357   2.800   5.659  15.954  0.0836 -0.2355 -2.4180
16956TIP3   OH272358   1.420   3.182   5.701 -0.2261 -0.3867  0.0978
16956TIP3    H172359   1.434   3.246   5.631  0.0329 -0.2746  0.2538
16956TIP3    H272360   1.417   3.234   5.781  1.9813 -0.7472  0.4631
16957TIP3   OH272361   5.610   0.602  11.451  0.4143  0.5071  0.3115
16957TIP3    H172362   5.578   0.589  11.362 -1.4620  1.3742  0.8106
16957TIP3    H272363   5.705   0.609  11.441  0.5743 -2.2522 -1.2351
16958TIP3   OH272364   0.053   5.622  12.693 -0.0452 -0.5865  0.0453
16958TIP3    H172365   0.106   5.569  12.752 -0.2606 -0.1355  0.6556
16958TIP3    H272366  -0.014   5.660  12.749 -0.5504 -0.5383 -0.5815
16959TIP3   OH272367   0.175   2.816  16.779 -0.0341  0.0835 -0.3321
16959TIP3    H172368   0.190   2.731  16.820  0.1216 -0.2233 -1.0176
16959TIP3    H272369   0.209   2.879  16.843 -0.4281 -0.3408  0.3154
16960TIP3   OH272370   0.674   4.784   2.605 -0.5385 -0.7305 -0.2054
16960TIP3    H172371   0.743   4.764   2.668 -1.8779 -2.2540  0.8489
16960TIP3    H272372   0.699   4.870   2.570 -0.2480  0.7625  3.1949
16961TIP3   OH272373   2.372   5.582   2.826  0.3289  0.1453  0.3781
16961TIP3    H172374   2.306   5.643   2.857  1.3894  0.6159  1.8018
16961TIP3    H272375   2.393   5.528   2.903  1.3800 -0.1843 -0.1174
16962TIP3   OH272376   2.536   1.147   5.593  0.6754 -0.8139  0.2121
16962TIP3    H172377   2.522   1.213   5.525  1.0877 -0.0797  0.8146
16962TIP3    H272378   2.586   1.078   5.549  0.1477 -0.7817 -0.4559
16963TIP3   OH272379   0.140   3.246  12.373 -0.2326  0.2837 -0.1398
16963TIP3    H172380   0.116   3.226  12.282 -0.7881  0.6601 -0.0807
16963TIP3    H272381   0.196   3.173  12.400 -0.8085 -0.2949 -0.4873
16964TIP3   OH272382   4.541   4.011  16.788  0.0605 -0.0372  0.0127
16964TIP3    H172383   4.573   3.933  16.832 -1.1280  0.2551  1.4383
16964TIP3    H272384   4.571   4.001  16.697  1.9047 -1.0066  0.6827
16965TIP3   OH272385   1.081   2.382  17.158  0.2361  0.3877  0.5860
16965TIP3    H172386   0.987   2.364  17.162  0.5082 -2.2616 -1.9078
16965TIP3    H272387   1.123   2.297  17.175  2.1349  1.2637  0.5469
16966TIP3   OH272388   0.680   3.204   4.393  0.0556 -0.2695 -0.1648
16966TIP3    H172389   0.729   3.247   4.463  0.7506 -0.1097 -0.7401
16966TIP3    H272390   0.614   3.269   4.367 -1.1412 -0.8473  1.2721
16967TIP3   OH272391   1.614   2.402   0.626  0.1489  0.4459 -0.1586
16967TIP3    H172392   1.695   2.361   0.655  1.9354  3.2147 -0.8841
16967TIP3    H272393   1.595   2.467   0.694 -2.3056 -1.0234  0.6968
16968TIP3   OH272394   5.878   6.637  13.446 -0.8947  0.2021  0.6076
16968TIP3    H172395   5.972   6.629  13.456 -0.7065 -1.0393 -1.6946
16968TIP3    H272396   5.844   6.549  13.464 -1.5914  0.5263  0.9507
16969TIP3   OH272397   5.147   1.661  14.258 -0.2156  0.7412 -0.3129
16969TIP3    H172398   5.218   1.643  14.197  0.1388  0.0344  0.2857
16969TIP3    H272399   5.131   1.577  14.301  0.3131  1.4576  1.3682
16970TIP3   OH272400   2.288   5.752   0.287 -0.4365  0.0861  0.2192
16970TIP3    H172401   2.368   5.700   0.282  0.6532  1.4258  2.3117
16970TIP3    H272402   2.228   5.700   0.340 -0.6457 -0.5089 -0.5800
16971TIP3   OH272403   2.652   4.694   6.301 -0.0619  0.3388 -0.0059
16971TIP3    H172404   2.685   4.778   6.269  0.1534  0.5874  0.8490
16971TIP3    H272405   2.731   4.641   6.316 -0.0735  0.6277  1.1973
16972TIP3   OH272406   6.053   0.417  12.251  0.1500  0.1221 -0.6196
16972TIP3    H172407   5.984   0.481  12.239 -0.0229  0.5889  2.2635
16972TIP3    H272408   6.009   0.340  12.286  0.6393 -0.9306 -2.1915
16973TIP3   OH272409   2.212   0.359  13.875 -0.5203  0.1147 -0.1828
16973TIP3    H172410   2.281   0.362  13.808  1.4120 -0.2213  1.6984
16973TIP3    H272411   2.142   0.414  13.839  0.9970  1.0585 -1.8653
16974TIP3   OH272412   6.488   1.775  13.930 -0.2377  0.1601 -0.5062
16974TIP3    H172413   6.509   1.858  13.887  1.7554 -0.3470 -0.5856
16974TIP3    H272414   6.524   1.783  14.018  0.5193 -0.8357 -0.7095
16975TIP3   OH272415   2.993   0.404  13.424 -0.0899 -0.8946  0.3152
16975TIP3    H172416   2.955   0.462  13.489 -0.9702 -0.1538 -0.8100
16975TIP3    H272417   3.077   0.377  13.461  0.6999  1.6827  0.6150
16976TIP3   OH272418   4.028   5.122   5.046 -0.3823  0.7363 -0.3783
16976TIP3    H172419   4.029   5.082   5.133  0.0354  0.5520 -0.4665
16976TIP3    H272420   4.008   5.049   4.987 -1.9719  1.0978 -0.3215
16977TIP3   OH272421   0.209   6.736   5.062  0.3954  0.3206  0.1415
16977TIP3    H172422   0.131   6.752   5.115  0.0034  1.8906 -0.8559
16977TIP3    H272423   0.205   6.643   5.040 -1.3497  0.4471 -0.1462
16978TIP3   OH272424   6.399   3.679  15.728 -0.3830 -0.1585  0.0670
16978TIP3    H172425   6.431   3.680  15.638  1.6077  0.7818  0.7282
16978TIP3    H272426   6.378   3.588  15.746  1.1529 -0.7037 -0.7299
16979TIP3   OH272427   5.952   6.114  16.822  0.0403 -0.5067 -0.3403
16979TIP3    H172428   6.000   6.154  16.895 -0.6550 -0.0154 -0.1357
16979TIP3    H272429   5.918   6.188  16.773 -0.8900 -0.8378 -0.2174
16980TIP3   OH272430   3.426   6.219  11.703  0.0336 -0.0458 -0.1670
16980TIP3    H172431   3.512   6.227  11.744 -1.3546 -1.9410  3.5846
16980TIP3    H272432   3.442   6.169  11.623  2.3276 -1.1643  0.8974
16981TIP3   OH272433   5.741   0.204   4.116 -0.5873 -0.2750 -0.2267
16981TIP3    H172434   5.749   0.110   4.129 -0.6441 -0.5393 -1.8407
16981TIP3    H272435   5.766   0.217   4.024 -2.1981  1.0561 -0.5233
16982TIP3   OH272436   3.067   0.228  10.508  0.7007 -0.2671  0.3124
16982TIP3    H172437   3.104   0.274  10.433  0.2213 -0.3848 -0.0032
16982TIP3    H272438   3.137   0.170  10.538  1.6435  1.3346  1.3097
16983TIP3   OH272439   3.549   0.588  16.635  0.2950 -0.2413  0.4657
16983TIP3    H172440   3.504   0.559  16.715 -0.3751  0.3840  0.3253
16983TIP3    H272441   3.481   0.629  16.583  0.9369  0.2699  0.0164
16984TIP3   OH272442   1.642   2.826   6.097  0.5876 -0.0614  0.7824
16984TIP3    H172443   1.622   2.830   6.191  0.7217  0.5330  0.7903
16984TIP3    H272444   1.577   2.883   6.056  0.2641 -0.6532  0.4653
16985TIP3   OH272445   3.285   1.449  11.852  0.5072  0.1986  0.0015
16985TIP3    H172446   3.298   1.381  11.786 -1.7085  0.2006 -0.4977
16985TIP3    H272447   3.234   1.517  11.806 -2.6023 -0.5404  2.0905
16986TIP3   OH272448   4.417   6.510  12.996  0.2031 -0.1189 -0.1783
16986TIP3    H172449   4.332   6.554  12.999  0.3326  0.0973  0.5370
16986TIP3    H272450   4.396   6.418  12.981 -0.3078 -0.4307  1.9915
16987TIP3   OH272451   4.791   1.488   1.694  0.1153  0.2158  0.2226
16987TIP3    H172452   4.858   1.478   1.626 -0.2577 -1.1929  0.0281
16987TIP3    H272453   4.763   1.399   1.712  0.3291  0.5318  2.3661
16988TIP3   OH272454   6.539   2.441  15.495 -0.2053  0.1070  0.4371
16988TIP3    H172455   6.447   2.414  15.485 -0.2629 -0.5018  2.2014
16988TIP3    H272456   6.534   2.532  15.522 -0.3711 -0.2594  1.6991
16989TIP3   OH272457   4.168   2.900  11.316 -0.2429  0.4540  0.0490
16989TIP3    H172458   4.127   2.970  11.367 -0.0945  0.1750  0.5577
16989TIP3    H272459   4.230   2.946  11.259 -0.3579  0.7676  0.1694
16990TIP3   OH272460   0.924   0.887   1.279 -0.1017 -0.5391 -0.1584
16990TIP3    H172461   0.939   0.961   1.338  0.8731 -0.8841  0.0430
16990TIP3    H272462   0.829   0.874   1.281 -0.5786  1.8997 -1.6748
16991TIP3   OH272463   0.493   5.360  14.743 -0.0305  0.8581  0.3529
16991TIP3    H172464   0.412   5.320  14.776  1.1674  0.0027  2.4208
16991TIP3    H272465   0.547   5.285  14.717  0.5385  1.3585  0.0774
16992TIP3   OH272466   4.800   1.539   2.524  0.0725  0.2861 -0.4710
16992TIP3    H172467   4.792   1.625   2.485 -0.5329  0.6927  0.5130
16992TIP3    H272468   4.775   1.551   2.616  1.2009 -0.6812  0.0008
16993TIP3   OH272469   2.328   1.364   1.327  0.3070 -0.3446  0.0005
16993TIP3    H172470   2.294   1.453   1.343 -0.2789 -0.6164  0.3112
16993TIP3    H272471   2.254   1.317   1.289  0.2483 -1.0059  0.8884
16994TIP3   OH272472   0.606   2.058   2.672  0.2268  0.2820  0.3453
16994TIP3    H172473   0.632   2.068   2.580  1.8125  1.1908  0.8547
16994TIP3    H272474   0.689   2.060   2.721 -0.5833 -0.2033  1.7976
16995TIP3   OH272475   5.881   0.091  17.024  0.1899  0.7564 -0.3831
16995TIP3    H172476   5.844   0.048  17.102 -2.2154 -0.4123 -2.0573
16995TIP3    H272477   5.885   0.183  17.047  0.4920  0.3377  1.4509
16996TIP3   OH272478   3.268   1.872  14.978 -0.7747 -0.3255 -0.2465
16996TIP3    H172479   3.244   1.861  15.070 -1.2159  1.3076 -0.1290
16996TIP3    H272480   3.212   1.943  14.947  1.0766  0.8589 -1.0782
16997TIP3   OH272481   1.517   6.667   0.260  0.3192 -0.3969  0.2163
16997TIP3    H172482   1.580   6.647   0.330 -0.7609  0.0773  1.3548
16997TIP3    H272483   1.490   6.582   0.226 -0.9566 -0.7817  2.0511
16998TIP3   OH272484   6.039   2.588   2.482  0.0818  0.1853  0.3555
16998TIP3    H172485   6.105   2.549   2.539  1.7124 -0.5581 -1.9074
16998TIP3    H272486   6.088   2.619   2.406 -1.9948  1.0180 -0.7317
16999TIP3   OH272487   1.709   3.390   5.613  0.0508  0.2456 -0.8347
16999TIP3    H172488   1.636   3.444   5.585 -0.9135  0.3494  1.6091
16999TIP3    H272489   1.709   3.316   5.552 -2.0611  0.2741 -0.9437
17000TIP3   OH272490   1.848   1.956   4.241 -0.1584 -0.5981  0.2092
17000TIP3    H172491   1.770   2.003   4.269  0.3077  0.0860  0.3865
17000TIP3    H272492   1.893   2.016   4.182  0.5810 -0.7067  0.6475
17001TIP3   OH272493   3.679   1.359   4.452  0.2063  0.1777  0.3463
17001TIP3    H172494   3.675   1.378   4.546 -1.6855  1.2575  0.0938
17001TIP3    H272495   3.604   1.302   4.436 -0.1507  0.9201 -0.6987
17002TIP3   OH272496   2.515   2.604   0.059  0.4209  0.1179  0.3129
17002TIP3    H172497   2.551   2.587  -0.028  0.4520 -1.9192  0.6553
17002TIP3    H272498   2.464   2.684   0.049  1.4058  0.5971 -1.2752
17003TIP3   OH272499   6.180   5.682   1.733  0.1974  0.6195  0.2439
17003TIP3    H172500   6.140   5.759   1.691 -0.8084 -0.3394 -0.6267
17003TIP3    H272501   6.213   5.630   1.660 -2.5198 -1.6123  0.4689
17004TIP3   OH272502   0.083   0.977   6.609 -0.4697  0.4951  0.3083
17004TIP3    H172503   0.036   0.953   6.688 -1.6909  0.8327 -0.2786
17004TIP3    H272504   0.176   0.968   6.631 -0.8125 -0.5085  1.4055
17005TIP3   OH272505   5.555   4.799  12.818 -0.6677  0.3559  0.2685
17005TIP3    H172506   5.596   4.719  12.850 -1.7005 -1.0011 -1.5946
17005TIP3    H272507   5.611   4.827  12.746 -0.8183  0.8077  0.3250
17006TIP3   OH272508   3.217   5.835  13.882 -0.0512  0.0708 -0.2825
17006TIP3    H172509   3.169   5.899  13.935  2.5410  0.7032  1.4418
17006TIP3    H272510   3.163   5.825  13.803 -2.0785  2.0620  0.7327
17007TIP3   OH272511   1.848   3.938  10.922  0.5011  0.1938  0.1291
17007TIP3    H172512   1.934   3.909  10.890  0.9092  0.7055  0.7431
17007TIP3    H272513   1.807   3.978  10.845  0.3713 -0.9808 -0.4453
17008TIP3   OH272514   2.269   6.326  11.472 -0.2277 -0.4346  0.8636
17008TIP3    H172515   2.182   6.291  11.487 -0.9320  1.9565  3.0464
17008TIP3    H272516   2.315   6.314  11.555  0.9899 -0.2701  0.2363
17009TIP3   OH272517   2.612   5.137  14.743 -0.3307  0.3686  0.2429
17009TIP3    H172518   2.576   5.050  14.760 -0.1549 -0.2912 -2.3536
17009TIP3    H272519   2.571   5.164  14.660  0.2592  2.3987  0.5652
17010TIP3   OH272520   5.890   0.885  14.976 -0.2824  0.5887 -0.0416
17010TIP3    H172521   5.982   0.861  14.983 -0.2967  0.7037  0.5613
17010TIP3    H272522   5.859   0.888  15.067 -0.4032  2.4039 -0.1033
17011TIP3   OH272523   5.211   0.067  13.069  0.0145 -0.0518  0.0735
17011TIP3    H172524   5.180  -0.011  13.115  1.3182 -0.7035 -0.1084
17011TIP3    H272525   5.202   0.138  13.133  1.8519 -0.9420  1.4372
17012TIP3   OH272526   0.389   6.520  14.044 -0.3574 -0.4995 -0.0307
17012TIP3    H172527   0.339   6.518  14.126 -1.5591  1.3815 -0.6700
17012TIP3    H272528   0.347   6.454  13.989 -0.4405 -0.7752  0.3516
17013TIP3   OH272529   4.113   5.704   5.398  0.3942 -0.0323 -0.2674
17013TIP3    H172530   4.031   5.729   5.439  0.7186 -0.3191  0.5864
17013TIP3    H272531   4.169   5.781   5.405 -0.1820  0.5616 -1.9140
17014TIP3   OH272532   5.979   6.716   0.276 -0.0322  0.1400  0.0955
17014TIP3    H172533   5.982   6.747   0.366 -0.6621 -1.5179  0.7397
17014TIP3    H272534   5.886   6.699   0.260 -0.0236  1.1657 -1.1554
17015TIP3   OH272535   5.223   3.165  14.842 -0.1067 -0.0319 -0.1311
17015TIP3    H172536   5.254   3.181  14.931  1.1619 -3.8637  0.2867
17015TIP3    H272537   5.301   3.143  14.793 -1.2138 -2.2824 -1.0281
17016TIP3   OH272538   5.356   0.235   1.296 -0.1689  0.1162  0.4764
17016TIP3    H172539   5.383   0.242   1.204  1.2499 -0.8982  0.7851
17016TIP3    H272540   5.261   0.236   1.293 -0.1608  1.6940 -0.8712
17017TIP3   OH272541   1.023   5.170  12.434 -0.0547  0.6348  0.4991
17017TIP3    H172542   1.085   5.103  12.462 -1.0141 -0.3791  0.2687
17017TIP3    H272543   0.940   5.145  12.475 -0.0891  2.6876  1.8895
17018TIP3   OH272544   3.786   4.442   3.130  0.0594  0.2276 -0.1190
17018TIP3    H172545   3.734   4.446   3.050 -1.0438 -0.9698  0.5030
17018TIP3    H272546   3.874   4.471   3.103 -0.6377  1.2554 -1.4230
17019TIP3   OH272547   2.846   1.026   4.690 -0.0742 -0.3127 -0.2469
17019TIP3    H172548   2.756   1.042   4.660  0.5905 -0.0300 -2.2801
17019TIP3    H272549   2.871   1.107   4.733 -0.7618 -0.3763  0.2993
17020TIP3   OH272550   0.201   1.850   6.556 -0.1079 -0.5801  0.0758
17020TIP3    H172551   0.265   1.904   6.510 -0.9524 -0.1600 -0.6415
17020TIP3    H272552   0.221   1.761   6.527  0.9256 -0.6128  0.8239
17021TIP3   OH272553   3.365   3.323  16.817 -0.2420 -0.4663 -0.2867
17021TIP3    H172554   3.419   3.246  16.799  0.2800 -0.0383 -0.5819
17021TIP3    H272555   3.397   3.390  16.757 -0.7737 -0.0512 -0.1216
17022TIP3   OH272556   5.285   0.422  17.080  0.6949  0.9295  0.2586
17022TIP3    H172557   5.216   0.359  17.061  0.4096  1.2452  0.2489
17022TIP3    H272558   5.266   0.498  17.025  1.1698  0.9383  0.0962
17023TIP3   OH272559   3.750   3.600   0.653 -0.3335  0.4435  0.1541
17023TIP3    H172560   3.719   3.667   0.714 -3.0507  1.1993 -1.8694
17023TIP3    H272561   3.724   3.517   0.693 -1.4940  0.8899  0.3570
17024TIP3   OH272562   2.608   1.786   3.039  0.1453  0.3987  0.5022
17024TIP3    H172563   2.586   1.696   3.014 -1.2003  1.3367 -2.0072
17024TIP3    H272564   2.673   1.814   2.975  0.4696  1.2796  1.1924
17025TIP3   OH272565   0.027   3.608   5.746 -0.2614  0.2024 -0.0012
17025TIP3    H172566   0.093   3.539   5.738 -0.5654 -0.0961 -0.0150
17025TIP3    H272567   0.038   3.642   5.834 -0.9118 -0.7184  0.4525
17026TIP3   OH272568   1.013   2.664  15.324 -0.0769 -0.2305 -0.0169
17026TIP3    H172569   1.027   2.693  15.233  0.4773 -0.1449  0.0931
17026TIP3    H272570   0.963   2.583  15.316  1.8639 -1.4457 -0.5092
17027TIP3   OH272571   3.271   2.545  13.960  0.0577 -0.3842 -0.0699
17027TIP3    H172572   3.251   2.452  13.957  0.4953 -0.5987  1.9830
17027TIP3    H272573   3.193   2.587  13.922 -0.2384 -1.5463 -0.8182
17028TIP3   OH272574   5.031   6.046  17.082  0.6698 -0.1972  0.4569
17028TIP3    H172575   5.071   6.054  17.169 -0.9435  0.8361  1.1443
17028TIP3    H272576   4.989   5.960  17.084 -1.7041  0.9063  1.7918
17029TIP3   OH272577   5.793   4.785   3.020 -0.0092 -0.0048 -0.3585
17029TIP3    H172578   5.817   4.694   2.999  0.9446 -0.2796  1.6470
17029TIP3    H272579   5.725   4.807   2.957 -0.6114 -2.2872 -0.6144
17030TIP3   OH272580   3.683   3.166  17.277 -0.2664  0.4679 -0.3930
17030TIP3    H172581   3.589   3.162  17.260 -0.7013  1.5768  1.4531
17030TIP3    H272582   3.709   3.075  17.289 -1.1411  0.1581 -0.7915
17031TIP3   OH272583   3.857   6.783  16.726  0.3648 -0.1067  0.5354
17031TIP3    H172584   3.878   6.873  16.751 -0.2364 -0.1219  1.1002
17031TIP3    H272585   3.765   6.772  16.748  0.8095 -1.3545  1.9276
17032TIP3   OH272586   0.855   2.122   0.249  0.5930  0.2184 -0.2827
17032TIP3    H172587   0.766   2.153   0.269  0.8111  0.4986  0.2801
17032TIP3    H272588   0.857   2.115   0.154 -0.1073 -0.0078 -0.2866
17033TIP3   OH272589   0.377   0.755   3.583 -0.4369 -0.2738 -0.1259
17033TIP3    H172590   0.464   0.770   3.544 -0.0604 -0.8972  0.4527
17033TIP3    H272591   0.323   0.724   3.510 -0.0596 -0.2903 -0.4011
17034TIP3   OH272592   0.816   3.520  13.668  0.6037 -0.4007  0.0674
17034TIP3    H172593   0.742   3.515  13.729  0.5899 -1.6987 -0.0344
17034TIP3    H272594   0.776   3.509  13.582  0.9353 -1.3852  0.0295
17035TIP3   OH272595   6.453   5.513   5.079  0.0986  0.0619 -0.2445
17035TIP3    H172596   6.371   5.487   5.037  0.3920  0.0530 -0.8112
17035TIP3    H272597   6.473   5.599   5.043 -0.8632  1.1299  1.6125
17036TIP3   OH272598   4.352   5.366  15.067  0.2377  0.2427 -0.3562
17036TIP3    H172599   4.356   5.446  15.120 -0.5663 -0.0925  0.2255
17036TIP3    H272600   4.443   5.338  15.059  0.4017  0.4665  0.6088
17037TIP3   OH272601   2.610   5.588   1.523  0.1684 -0.2692 -0.1444
17037TIP3    H172602   2.694   5.626   1.547  0.0270  0.1308 -0.2760
17037TIP3    H272603   2.606   5.505   1.570  1.1594 -0.8680 -1.0697
17038TIP3   OH272604   3.805   6.242  16.533  0.1520  0.1447 -0.0067
17038TIP3    H172605   3.739   6.297  16.576 -1.0188 -1.0922 -0.1718
17038TIP3    H272606   3.858   6.304  16.483  0.8337  1.5129  2.2277
17039TIP3   OH272607   5.923   0.266   3.105  0.0067  0.0721  0.4488
17039TIP3    H172608   5.862   0.333   3.137 -0.1594  1.6759 -2.7626
17039TIP3    H272609   5.868   0.207   3.053  0.7900  0.0675 -0.4048
17040TIP3   OH272610   5.030   1.258  15.087 -0.2471 -0.1784 -0.1355
17040TIP3    H172611   5.090   1.186  15.066  0.3308  0.0599  0.6467
17040TIP3    H272612   4.950   1.238  15.038 -0.8261 -2.4138  1.5388
17041TIP3   OH272613   0.979   6.166   1.918 -0.1692 -0.3134 -0.0644
17041TIP3    H172614   0.974   6.255   1.884 -0.1562 -0.7306 -1.2230
17041TIP3    H272615   0.955   6.111   1.843  0.7026 -1.3260  0.3732
17042TIP3   OH272616   0.573   3.059  11.238  0.4142  0.3413 -0.1667
17042TIP3    H172617   0.589   3.021  11.324  0.1065 -0.7511 -0.5785
17042TIP3    H272618   0.630   3.136  11.235 -0.5438  1.1665  1.5078
17043TIP3   OH272619   4.721   2.663  14.360 -0.0907  0.4092  0.1416
17043TIP3    H172620   4.803   2.615  14.354 -0.5324 -0.4406  0.7269
17043TIP3    H272621   4.674   2.642  14.279  0.6130  1.5923 -0.6064
17044TIP3   OH272622   1.737   1.573   5.128  0.0081  0.0323  0.1470
17044TIP3    H172623   1.790   1.621   5.064 -1.7077 -1.2130 -2.4097
17044TIP3    H272624   1.780   1.487   5.133  0.2123  0.1690  0.8176
17045TIP3   OH272625   4.774   2.846  12.407 -0.1606 -0.4866  0.8409
17045TIP3    H172626   4.716   2.894  12.348  0.2984 -0.0885  0.7043
17045TIP3    H272627   4.802   2.912  12.472  2.1869  0.0371 -0.5823
17046TIP3   OH272628   5.749   5.520   4.550 -0.0898 -0.5082  0.5812
17046TIP3    H172629   5.705   5.589   4.500 -0.0827  0.1039  1.3901
17046TIP3    H272630   5.752   5.554   4.640 -0.3874 -1.7179  1.0686
17047TIP3   OH272631   4.519   1.362  11.370 -0.0952  0.1251 -0.0436
17047TIP3    H172632   4.449   1.298  11.361  0.0698 -0.5022  2.2998
17047TIP3    H272633   4.593   1.323  11.323 -0.2559 -1.0453  0.6234
17048TIP3   OH272634   2.025   5.972   6.089  0.1402 -0.1359  1.0401
17048TIP3    H172635   2.059   5.989   6.177 -1.0308  0.6960  1.3500
17048TIP3    H272636   2.026   6.057   6.047 -0.6982 -0.2607  0.7547
17049TIP3   OH272637   0.684   0.006  13.820 -0.3379  0.8643 -0.5830
17049TIP3    H172638   0.722   0.025  13.734  2.4885 -0.2268  0.3222
17049TIP3    H272639   0.704   0.083  13.873 -0.2177  0.6733 -0.3483
17050TIP3   OH272640   6.750   2.953  12.443 -0.2850  0.4834 -0.1579
17050TIP3    H172641   6.844   2.962  12.432 -0.1900  1.8400  1.4025
17050TIP3    H272642   6.714   2.973  12.356  0.8871 -1.7390 -1.2136
17051TIP3   OH272643   0.297   5.819  17.142  0.3209 -0.7764  0.1907
17051TIP3    H172644   0.308   5.763  17.065 -0.0244 -1.7600  0.8435
17051TIP3    H272645   0.360   5.890  17.129 -0.4050 -0.3926 -1.4624
17052TIP3   OH272646   1.171   4.012  15.436 -0.0497 -0.1312 -0.1462
17052TIP3    H172647   1.248   3.979  15.484  0.1506 -1.5470 -1.3880
17052TIP3    H272648   1.102   4.016  15.502  0.6383 -0.5006  0.6164
17053TIP3   OH272649   4.095   3.374   5.778 -0.0536  0.5941 -0.7508
17053TIP3    H172650   4.111   3.446   5.716  0.2154  1.3264  0.1473
17053TIP3    H272651   4.169   3.315   5.765  1.0863  1.7375  0.2338
17054TIP3   OH272652   5.241   6.200   3.084  0.3841 -0.1340  0.0548
17054TIP3    H172653   5.266   6.286   3.052  1.2067 -0.2519  0.3461
17054TIP3    H272654   5.313   6.142   3.056  0.2166 -0.5765  0.5212
17055TIP3   OH272655   1.919   1.924  13.056  0.1463 -0.3247 -0.6204
17055TIP3    H172656   1.881   2.007  13.027  1.8942  0.6910 -0.1775
17055TIP3    H272657   1.905   1.923  13.151 -1.9058 -1.6906 -0.8619
17056TIP3   OH272658   2.912   5.849   2.472  0.2211 -0.0452 -0.1870
17056TIP3    H172659   2.855   5.925   2.486  0.8153  0.1975  1.0622
17056TIP3    H272660   2.984   5.883   2.419 -1.2867 -0.6108 -2.7566
17057TIP3   OH272661   2.447   1.459  12.798 -0.7111  0.2725 -0.4823
17057TIP3    H172662   2.374   1.401  12.776 -0.5916  0.7303 -2.2295
17057TIP3    H272663   2.416   1.547  12.777  0.0818  0.5531 -0.5116
17058TIP3   OH272664   1.746   2.478   6.558 -0.1995  0.2250 -0.5130
17058TIP3    H172665   1.746   2.382   6.548  3.5018 -0.6439  4.1053
17058TIP3    H272666   1.697   2.493   6.639  2.4320  1.6230  0.9405
17059TIP3   OH272667   3.535   3.135   3.844 -0.0858 -0.0246 -0.1012
17059TIP3    H172668   3.629   3.119   3.852 -0.3880 -1.7639  0.3353
17059TIP3    H272669   3.501   3.057   3.802 -1.5308 -0.0200  0.9866
17060TIP3   OH272670   6.542   0.337  13.075 -0.1731 -0.3928  0.5068
17060TIP3    H172671   6.630   0.308  13.054  1.0850  2.0755  1.8781
17060TIP3    H272672   6.525   0.301  13.162 -0.7286 -1.2211  0.0680
17061TIP3   OH272673   5.323   4.376  16.173  0.2380  0.1112  0.3487
17061TIP3    H172674   5.284   4.307  16.120 -0.6324  0.4561  0.5383
17061TIP3    H272675   5.300   4.457  16.128 -1.2924  0.4810  1.7136
17062TIP3   OH272676   6.159   2.323  16.784  0.1219  0.5242 -0.1637
17062TIP3    H172677   6.113   2.248  16.821 -0.8661  1.7526  1.2021
17062TIP3    H272678   6.098   2.361  16.721  1.1723 -0.6020 -1.9449
17063TIP3   OH272679   2.046   5.263   3.970 -0.1833 -0.0984  0.2662
17063TIP3    H172680   2.134   5.269   4.007 -0.4948 -1.0223  1.2234
17063TIP3    H272681   2.014   5.353   3.967  1.5910  0.5570 -2.1903
17064TIP3   OH272682   5.132   5.540  17.241 -0.1183 -0.4135 -0.0219
17064TIP3    H172683   5.052   5.488  17.235 -0.6238  0.1369  1.4126
17064TIP3    H272684   5.151   5.543  17.335  0.9811  0.3577 -0.2555
17065TIP3   OH272685   0.783   0.234   0.673  0.1888 -0.2110 -0.6792
17065TIP3    H172686   0.751   0.144   0.681  0.0355 -0.0536  0.6176
17065TIP3    H272687   0.706   0.288   0.689  0.4815  0.1575 -0.5013
17066TIP3   OH272688   4.415   5.461  13.497 -0.2554 -0.5574 -0.5943
17066TIP3    H172689   4.385   5.552  13.496 -0.3335 -0.5798 -1.7409
17066TIP3    H272690   4.361   5.418  13.564  1.1622  0.6584  1.4128
17067TIP3   OH272691   6.665   0.773   5.694 -0.0942 -0.6413 -0.6666
17067TIP3    H172692   6.588   0.718   5.676 -1.6488  1.3673 -0.4767
17067TIP3    H272693   6.667   0.835   5.621 -0.9714  1.7539  1.2460
17068TIP3   OH272694   6.639   3.598  12.236  0.3020  0.2005 -0.1013
17068TIP3    H172695   6.573   3.666  12.249 -0.4062 -0.7754  1.7815
17068TIP3    H272696   6.704   3.638  12.178  0.1304  2.6285  1.2794
17069TIP3   OH272697   1.664   4.760  17.055 -0.5962 -0.0202  0.4369
17069TIP3    H172698   1.690   4.669  17.039 -1.9862 -0.6346  1.4700
17069TIP3    H272699   1.692   4.778  17.145  4.1117  2.2951 -1.1418
17070TIP3   OH272700   1.111   4.180   0.497 -0.2570  0.3305 -0.2948
17070TIP3    H172701   1.024   4.178   0.537 -0.0279 -0.9484  0.1901
17070TIP3    H272702   1.155   4.254   0.539 -0.6212  0.0838  0.5360
17071TIP3   OH272703   5.612   5.296  13.232 -0.3035 -0.4178 -0.1747
17071TIP3    H172704   5.691   5.296  13.178 -0.8557  0.7137 -1.0268
17071TIP3    H272705   5.600   5.205  13.258  1.5482 -0.5369  0.3844
17072TIP3   OH272706   2.397   5.373  13.312  0.2034 -0.2179  0.2591
17072TIP3    H172707   2.426   5.338  13.396 -1.4429 -0.3583  0.7939
17072TIP3    H272708   2.397   5.298  13.253  3.0074  0.1817 -0.3905
17073TIP3   OH272709   1.555   3.709   3.935  0.0188 -0.0242  0.0427
17073TIP3    H172710   1.523   3.627   3.972  1.1421 -0.1483  0.8000
17073TIP3    H272711   1.649   3.695   3.925  0.3338  1.3804  0.7856
17074TIP3   OH272712   0.129   4.541  11.688  0.1952  0.0611  0.1591
17074TIP3    H172713   0.110   4.493  11.608 -1.6468  0.9018  0.0558
17074TIP3    H272714   0.082   4.494  11.757 -0.7717  1.0991  0.2238
17075TIP3   OH272715   0.505   2.630   4.783  0.0256 -0.4239 -0.1658
17075TIP3    H172716   0.582   2.630   4.841  1.4275  0.1611 -1.9366
17075TIP3    H272717   0.482   2.537   4.775  0.3735 -0.5867  0.5621
17076TIP3   OH272718   6.496   3.623  12.638 -0.1813  0.4049 -0.3607
17076TIP3    H172719   6.514   3.712  12.608 -0.0792  0.9295  1.2014
17076TIP3    H272720   6.545   3.614  12.719 -0.4154 -0.9887 -0.3503
17077TIP3   OH272721   6.449   0.795  16.616 -0.4544  0.0206  0.4399
17077TIP3    H172722   6.429   0.876  16.570 -1.5944  0.7158  2.0816
17077TIP3    H272723   6.545   0.796  16.625 -0.5313  1.8758  1.5737
17078TIP3   OH272724   1.823   0.092  16.884  0.5466  0.3868  0.3653
17078TIP3    H172725   1.904   0.131  16.918  0.1151  1.0264  0.6851
17078TIP3    H272726   1.806   0.139  16.802 -0.4776  1.5785  1.2129
17079TIP3   OH272727   6.356   4.142  15.916  0.1797  0.0947  1.0130
17079TIP3    H172728   6.391   4.093  15.991  0.5785 -2.1340 -0.5214
17079TIP3    H272729   6.261   4.138  15.927  0.1358 -2.3153  0.2391
17080TIP3   OH272730   4.803   1.412  13.685 -0.2052 -0.0434  0.3484
17080TIP3    H172731   4.757   1.432  13.767 -0.3579 -0.4376  0.3607
17080TIP3    H272732   4.858   1.337  13.706 -0.4613 -0.3313  0.0184
17081TIP3   OH272733   5.856   2.264  16.944 -0.3684  0.2844 -0.0702
17081TIP3    H172734   5.898   2.344  16.975 -1.7424  0.6106  1.0072
17081TIP3    H272735   5.793   2.294  16.878 -0.4401  0.0169 -0.1241
17082TIP3   OH272736   5.317   5.684   0.915 -0.8596 -0.6397  0.3850
17082TIP3    H172737   5.259   5.758   0.897 -1.0307 -1.0858 -1.0147
17082TIP3    H272738   5.361   5.707   0.996 -0.0590  1.5469 -0.5929
17083TIP3   OH272739   0.541   6.412  15.833 -0.6721 -0.2829 -0.4572
17083TIP3    H172740   0.471   6.405  15.768 -0.9423  2.1685 -0.5097
17083TIP3    H272741   0.503   6.465  15.903  0.8228  0.2570 -0.0258
17084TIP3   OH272742   1.799   5.556  11.776  0.5258  0.4994 -0.4988
17084TIP3    H172743   1.784   5.619  11.846 -0.2624  0.9520 -1.0624
17084TIP3    H272744   1.894   5.540  11.777  0.2534 -1.6049  2.4554
17085TIP3   OH272745   1.415   0.928  16.258  0.1981 -0.2157  0.0743
17085TIP3    H172746   1.331   0.970  16.279  0.6743 -0.4429  2.8108
17085TIP3    H272747   1.411   0.913  16.164 -3.2134 -0.9806  0.1897
17086TIP3   OH272748   5.344   2.234   0.219  0.2897 -0.0580 -0.5474
17086TIP3    H172749   5.402   2.208   0.290 -2.0512 -0.2485  1.4103
17086TIP3    H272750   5.316   2.323   0.242 -1.5090 -0.6095 -0.4917
17087TIP3   OH272751   4.965   0.349   3.912 -0.1233  0.0345  0.1796
17087TIP3    H172752   5.053   0.387   3.915 -0.2875  0.3958  0.8377
17087TIP3    H272753   4.928   0.371   3.998 -0.8489 -0.1262 -0.0909
17088TIP3   OH272754   6.550   1.158  16.188 -0.0870  0.4133  0.0195
17088TIP3    H172755   6.492   1.097  16.142 -2.1498  0.9286  1.7448
17088TIP3    H272756   6.612   1.101  16.233  0.6693 -0.1766 -1.6798
17089TIP3   OH272757   4.487   5.468   2.564  0.4976  0.2040  0.3083
17089TIP3    H172758   4.401   5.474   2.607  0.4973  0.8331  0.2336
17089TIP3    H272759   4.548   5.505   2.627  0.6904 -0.0691  0.2834
17090TIP3   OH272760   6.777   3.649  15.722 -0.5086 -0.1587  0.5079
17090TIP3    H172761   6.689   3.633  15.689 -0.1773 -0.3665 -0.2853
17090TIP3    H272762   6.773   3.622  15.814 -1.5245  0.7418  0.7567
17091TIP3   OH272763   0.024   3.909  15.485  0.1716  0.0722 -0.2363
17091TIP3    H172764  -0.044   3.973  15.504 -1.3150 -1.1118 -1.2633
17091TIP3    H272765   0.087   3.918  15.556 -1.1164  1.1650  0.8101
17092TIP3   OH272766   0.460   6.528  16.179 -0.0556  0.3047  0.2008
17092TIP3    H172767   0.533   6.551  16.236 -1.2350  2.5656  0.9225
17092TIP3    H272768   0.392   6.495  16.239  0.1085 -1.1682 -0.3884
17093TIP3   OH272769   5.336   2.438   4.173  0.0832 -0.0951 -0.0131
17093TIP3    H172770   5.259   2.494   4.177  0.8516  1.0492 -0.6904
17093TIP3    H272771   5.410   2.498   4.178  0.9515 -0.8758 -2.2651
17094TIP3   OH272772   6.076   2.206  14.486  0.1594  0.4507  0.0009
17094TIP3    H172773   6.149   2.206  14.424  0.4725  2.8555  0.2559
17094TIP3    H272774   6.098   2.274  14.550 -0.9007 -0.8513  1.8700
17095TIP3   OH272775   6.215   2.535  11.317  0.2907 -0.4349 -0.3068
17095TIP3    H172776   6.162   2.605  11.280 -2.2707 -1.8203  0.5115
17095TIP3    H272777   6.296   2.536  11.265 -0.3041  2.0815 -1.3060
17096TIP3   OH272778   0.470   0.825   2.767  0.8199  0.2702 -0.1521
17096TIP3    H172779   0.512   0.756   2.715 -0.6780 -0.1632 -0.8549
17096TIP3    H272780   0.400   0.780   2.814  1.2977  0.9132  1.2200
17097TIP3   OH272781   3.941   4.893  12.291  0.6491 -0.2141  0.2853
17097TIP3    H172782   4.014   4.840  12.323  1.1041  0.7817  0.9719
17097TIP3    H272783   3.978   4.944  12.219 -0.0919 -1.6507 -1.1616
17098TIP3   OH272784   3.566   5.885   1.296 -0.1531 -0.0330 -0.0682
17098TIP3    H172785   3.493   5.928   1.340  1.2937  2.2045  0.3616
17098TIP3    H272786   3.626   5.861   1.366 -0.4299 -1.8164 -0.4134
17099TIP3   OH272787   3.438   1.411   4.251  0.7037 -0.6305 -0.0663
17099TIP3    H172788   3.489   1.331   4.263  0.9436 -0.2878  1.3228
17099TIP3    H272789   3.412   1.409   4.158  1.0921 -2.0719 -0.1675
17100TIP3   OH272790   0.684   2.679   3.402 -0.6403 -0.6236  0.2113
17100TIP3    H172791   0.608   2.695   3.347  1.5057 -1.1912 -3.2497
17100TIP3    H272792   0.677   2.587   3.427 -0.2223 -1.2233 -1.7322
17101TIP3   OH272793   1.716   4.313   3.412 -0.4787  0.2966  0.2821
17101TIP3    H172794   1.756   4.252   3.350  1.9625  1.2656  0.7750
17101TIP3    H272795   1.662   4.371   3.358 -1.4177 -1.1557 -0.4052
17102TIP3   OH272796   2.918   2.675   2.341 -0.2705  0.6911  0.1419
17102TIP3    H172797   2.832   2.716   2.354  0.6028  2.5946  0.2974
17102TIP3    H272798   2.933   2.626   2.422 -0.5070  1.7271  0.8380
17103TIP3   OH272799   5.352   2.475   2.063  0.4783 -0.1333 -0.4447
17103TIP3    H172800   5.408   2.398   2.062  2.4626  1.2187 -0.2226
17103TIP3    H272801   5.380   2.523   2.141 -0.5130  0.9465 -0.7284
17104TIP3   OH272802   6.118   1.005  12.213 -0.2995 -0.2625 -0.1751
17104TIP3    H172803   6.026   0.978  12.203 -0.1006 -0.9671 -0.1368
17104TIP3    H272804   6.166   0.949  12.153 -0.2749  2.5961 -3.0875
17105TIP3   OH272805   0.676   5.121  14.694  0.4078  0.0362 -0.0648
17105TIP3    H172806   0.608   5.069  14.735  0.6272  1.2563  1.9568
17105TIP3    H272807   0.743   5.057  14.669 -0.1416 -0.8410  0.6533
17106TIP3   OH272808   0.851   5.409  12.430  0.2241  0.2618 -0.0188
17106TIP3    H172809   0.885   5.487  12.385  0.5577  0.0212 -0.1901
17106TIP3    H272810   0.925   5.348  12.430 -0.2085 -0.2736 -0.3944
17107TIP3   OH272811   5.933   5.185  10.852  0.6029  0.4366 -0.2129
17107TIP3    H172812   6.028   5.191  10.859  0.6480 -0.3581 -0.0567
17107TIP3    H272813   5.914   5.091  10.850 -0.0494  0.5551 -2.1902
17108TIP3   OH272814   5.549   1.773   4.928 -0.2278 -0.1616 -0.4884
17108TIP3    H172815   5.569   1.720   4.851  0.0701  0.0173 -0.5396
17108TIP3    H272816   5.554   1.864   4.896  0.6025 -0.0615 -0.1026
17109TIP3   OH272817   5.134   0.593   1.666 -0.3312  0.3370  0.0770
17109TIP3    H172818   5.142   0.514   1.612  0.4550 -0.9842  2.0285
17109TIP3    H272819   5.223   0.627   1.671 -0.5731  1.0414 -0.2597
17110TIP3   OH272820   4.145   5.729   2.586 -1.0624  0.0126  0.3948
17110TIP3    H172821   4.150   5.749   2.493 -1.2909  0.5875  0.5075
17110TIP3    H272822   4.071   5.669   2.594 -0.9973 -0.0953  0.2012
17111TIP3   OH272823   4.826   4.463   2.003 -0.3678 -0.8190  0.8250
17111TIP3    H172824   4.915   4.485   2.032  0.3305 -3.5190  0.9807
17111TIP3    H272825   4.783   4.430   2.081 -0.6573 -1.9042  0.2258
17112TIP3   OH272826   2.655   2.824   1.391  0.4346  0.2258 -0.1411
17112TIP3    H172827   2.710   2.885   1.342 -0.5700  0.3335 -1.1766
17112TIP3    H272828   2.566   2.844   1.363  0.1441 -2.6253 -1.5957
17113TIP3   OH272829   0.334   6.217  13.086  0.0223 -0.2006 -0.1339
17113TIP3    H172830   0.417   6.171  13.095  0.3602  0.5225  0.5967
17113TIP3    H272831   0.355   6.308  13.107 -1.3623 -0.3600  2.2752
17114TIP3   OH272832   3.804   5.225   1.884  0.0171  0.0343 -0.4434
17114TIP3    H172833   3.858   5.254   1.810  0.3405  1.2395  0.2330
17114TIP3    H272834   3.715   5.253   1.862 -0.1552 -0.9736 -1.0612
17115TIP3   OH272835   6.487   0.172   2.072 -0.4935 -0.4329 -0.4185
17115TIP3    H172836   6.467   0.229   1.999  2.4715  0.6344 -0.5172
17115TIP3    H272837   6.441   0.090   2.052 -1.5787  0.5689 -2.2684
17116TIP3   OH272838   0.380   3.771   1.794  0.3238 -0.0524  0.1282
17116TIP3    H172839   0.359   3.733   1.708  2.6686 -0.5822 -0.2832
17116TIP3    H272840   0.391   3.696   1.852  1.1624  0.1604  0.2631
17117TIP3   OH272841   3.445   3.414   1.479 -0.3839  0.7098 -0.6064
17117TIP3    H172842   3.431   3.508   1.493 -0.9481  0.7759 -1.5266
17117TIP3    H272843   3.526   3.395   1.526 -1.1159  1.3053  0.9744
17118TIP3   OH272844   4.421   2.119   5.030 -0.3042  0.5508 -0.0391
17118TIP3    H172845   4.404   2.198   5.081  0.6626  1.2495 -0.7587
17118TIP3    H272846   4.343   2.110   4.974 -1.3948 -0.2587  1.5480
17119TIP3   OH272847   1.074   2.654  15.843 -0.3160 -0.0080 -0.1636
17119TIP3    H172848   1.053   2.682  15.754 -2.2473  0.0114  0.2628
17119TIP3    H272849   1.106   2.564  15.833 -0.8135 -0.1200 -0.8542
17120TIP3   OH272850   6.259   1.286  12.169 -0.6009  0.0956  0.7429
17120TIP3    H172851   6.214   1.207  12.138 -0.9012  1.1079 -1.5742
17120TIP3    H272852   6.208   1.313  12.246 -0.2482 -2.1364  1.8550
17121TIP3   OH272853   1.007   2.791   4.962 -0.1726  0.1720 -0.3082
17121TIP3    H172854   0.966   2.876   4.973 -0.6630  0.0633 -1.2360
17121TIP3    H272855   1.066   2.783   5.037 -0.2587  1.2420 -0.1156
17122TIP3   OH272856   0.553   3.322  11.773 -0.0780  0.1075 -0.7661
17122TIP3    H172857   0.549   3.322  11.678  1.0794 -0.3695 -0.8361
17122TIP3    H272858   0.633   3.370  11.794  2.0268 -3.2936 -0.2530
17123TIP3   OH272859   3.623   3.187   3.414 -0.0992 -0.1788 -0.1568
17123TIP3    H172860   3.674   3.188   3.495 -0.4479  1.0476  0.0602
17123TIP3    H272861   3.662   3.116   3.362 -2.0437 -3.4141  2.4465
17124TIP3   OH272862   2.970   3.217   6.202  0.3965 -0.0489 -0.1204
17124TIP3    H172863   2.931   3.238   6.287 -1.3003  1.1590 -1.1379
17124TIP3    H272864   3.022   3.138   6.219  0.3895  0.3430  2.0866
17125TIP3   OH272865   1.340   6.251   3.847  0.1667  0.4582 -0.1778
17125TIP3    H172866   1.373   6.327   3.894  1.8869  0.8010 -1.8310
17125TIP3    H272867   1.374   6.260   3.758 -0.2602 -1.8166 -0.6495
17126TIP3   OH272868   0.751   3.162   6.063  0.0918 -0.0982  0.3555
17126TIP3    H172869   0.812   3.184   6.133 -1.9374  1.1815  1.8517
17126TIP3    H272870   0.716   3.076   6.088 -1.4083  0.8151  1.5842
17127TIP3   OH272871   1.443   0.345   5.616 -0.1783 -0.1409 -0.5006
17127TIP3    H172872   1.382   0.297   5.559 -1.8013  0.6726  0.4911
17127TIP3    H272873   1.462   0.426   5.568 -0.1777 -0.2195 -0.6336
17128TIP3   OH272874   6.749   6.476  12.309 -0.2011  0.5103 -0.4663
17128TIP3    H172875   6.839   6.455  12.332 -0.9918 -2.6592  0.1275
17128TIP3    H272876   6.728   6.419  12.236 -1.9985  0.4952  0.0093
17129TIP3   OH272877   2.844   5.195  12.677  0.0626 -0.2755 -0.8844
17129TIP3    H172878   2.748   5.195  12.677  0.0242 -1.1400 -2.5294
17129TIP3    H272879   2.868   5.287  12.685 -0.9310  0.0480 -1.4229
17130TIP3   OH272880   3.310   6.754  13.888 -0.1059 -0.2836  0.1952
17130TIP3    H172881   3.337   6.797  13.969 -0.2871 -0.1202  0.1689
17130TIP3    H272882   3.217   6.773  13.880 -0.2612 -0.9336  0.3455
17131TIP3   OH272883   4.976   0.888   6.297  0.0660 -0.2525  0.3674
17131TIP3    H172884   5.007   0.911   6.209  0.3278  0.7920  0.7185
17131TIP3    H272885   4.968   0.972   6.342 -0.0809 -0.7797  1.3426
17132TIP3   OH272886   4.806   0.920   3.476  0.2559  0.4236  0.4830
17132TIP3    H172887   4.798   0.826   3.491 -1.4481  0.4420 -0.0578
17132TIP3    H272888   4.775   0.960   3.558 -1.3461  0.4928 -0.1233
17133TIP3   OH272889   2.569   1.587   5.445  0.3366  0.1925 -0.2247
17133TIP3    H172890   2.632   1.604   5.375 -0.3978  1.1861 -0.6727
17133TIP3    H272891   2.619   1.598   5.526  0.5662  1.8276 -0.5545
17134TIP3   OH272892   4.986   5.749   3.838 -0.1252 -0.5383  0.1349
17134TIP3    H172893   5.001   5.718   3.749  0.1407  0.0730 -0.0423
17134TIP3    H272894   4.919   5.816   3.829  1.1660  0.8124  0.1231
17135TIP3   OH272895   5.068   0.434  14.067  0.1557 -0.0172  0.4127
17135TIP3    H172896   4.997   0.422  14.004  2.5661 -1.8223 -2.2450
17135TIP3    H272897   5.126   0.497  14.025  1.7352 -1.1240  0.8273
17136TIP3   OH272898   2.081   5.627   4.809 -0.1327  0.6789 -0.6391
17136TIP3    H172899   2.128   5.692   4.863 -0.3324 -0.2410  0.6983
17136TIP3    H272900   2.101   5.652   4.719  3.3381  0.0671 -0.1706
17137TIP3   OH272901   6.034   6.267  15.565  0.2252  0.0931  0.1046
17137TIP3    H172902   6.123   6.286  15.535 -0.2213  2.5824  0.1165
17137TIP3    H272903   5.997   6.213  15.497  1.5669 -0.5299 -0.1695
17138TIP3   OH272904   3.184   1.052   2.863  0.3956 -0.4783  0.9561
17138TIP3    H172905   3.171   0.972   2.913  1.5234 -1.0779  0.3377
17138TIP3    H272906   3.128   1.043   2.786  0.4177 -0.6215  0.9577
17139TIP3   OH272907   0.955   4.423   5.482 -0.2822 -0.1911 -0.5749
17139TIP3    H172908   0.943   4.410   5.388  0.3669  0.2717 -0.7358
17139TIP3    H272909   0.959   4.335   5.518 -1.2900 -0.3691 -0.8714
17140TIP3   OH272910   3.539   4.585   1.609 -0.2236 -0.0271  0.0857
17140TIP3    H172911   3.632   4.577   1.586 -0.1186  2.8755 -0.9373
17140TIP3    H272912   3.493   4.559   1.529 -0.2160  0.2735 -0.0178
17141TIP3   OH272913   6.572   5.435  15.566  0.1455 -0.2660  0.5928
17141TIP3    H172914   6.507   5.429  15.495  0.3188 -1.1785  0.4993
17141TIP3    H272915   6.549   5.363  15.625 -0.5342  1.0011  1.9355
17142TIP3   OH272916   1.139   1.382  11.479 -0.1861 -0.2817  0.2213
17142TIP3    H172917   1.150   1.288  11.493 -0.5132 -0.9384 -3.0878
17142TIP3    H272918   1.220   1.410  11.436 -0.3202  0.8439  0.6719
17143TIP3   OH272919   0.776   3.162  11.415  0.0696 -0.0422  0.4912
17143TIP3    H172920   0.821   3.101  11.357 -0.0122 -0.5056  0.9112
17143TIP3    H272921   0.844   3.222  11.445  0.5211 -1.0332  1.5081
17144TIP3   OH272922   3.224   3.116  15.394  0.2027 -0.3485 -0.0585
17144TIP3    H172923   3.145   3.064  15.378  1.1098 -1.7543 -0.1398
17144TIP3    H272924   3.293   3.068  15.347  1.0563  0.9989 -0.2124
17145TIP3   OH272925   1.972   3.480  15.387  0.0088 -0.1337 -0.0561
17145TIP3    H172926   1.971   3.571  15.359 -0.7991  0.5503  2.0117
17145TIP3    H272927   1.987   3.484  15.482  1.6241 -2.2301 -0.1483
17146TIP3   OH272928   2.152   5.095   2.668 -0.0838 -0.3985  0.2730
17146TIP3    H172929   2.065   5.118   2.701 -0.5362 -0.8992 -0.5395
17146TIP3    H272930   2.202   5.177   2.673 -1.8619  1.1369 -3.2513
17147TIP3   OH272931   1.037   3.235  11.047  0.3794 -0.1683  0.5387
17147TIP3    H172932   1.124   3.227  11.008 -0.0715  0.0303 -0.5349
17147TIP3    H272933   0.976   3.214  10.976 -0.4745  0.5158  1.0459
17148TIP3   OH272934   5.203   0.076   5.291  0.5238 -0.1261  0.0217
17148TIP3    H172935   5.208   0.024   5.371 -0.4744  0.5387  0.5399
17148TIP3    H272936   5.193   0.011   5.221 -1.3236 -0.6565  0.7247
17149TIP3   OH272937   5.564   5.600  10.556  0.3021 -0.2907  0.1554
17149TIP3    H172938   5.536   5.659  10.626  0.7559 -1.0931  1.0401
17149TIP3    H272939   5.642   5.641  10.520 -1.4063  1.5357 -1.7685
17150TIP3   OH272940   5.651   6.718   5.043  0.1577 -0.3665 -0.3951
17150TIP3    H172941   5.705   6.690   5.117 -2.0432 -0.9855  1.0536
17150TIP3    H272942   5.705   6.699   4.966  2.4072  0.0497  0.9880
17151TIP3   OH272943   5.204   4.635  10.777 -0.3899  0.6374 -0.0255
17151TIP3    H172944   5.160   4.551  10.793  1.8327 -0.1094  3.5509
17151TIP3    H272945   5.134   4.699  10.775 -1.9724 -0.9447  0.9884
17152TIP3   OH272946   1.852   3.349  16.006 -0.5169  0.1135  0.0374
17152TIP3    H172947   1.785   3.319  15.944 -1.0393  1.7277 -0.2318
17152TIP3    H272948   1.812   3.336  16.092 -0.2765 -0.9715  0.0056
17153TIP3   OH272949   3.314   3.891  15.829 -0.6978  0.5057  0.1186
17153TIP3    H172950   3.237   3.835  15.825 -0.3798  0.0453  0.3646
17153TIP3    H272951   3.314   3.937  15.745  0.7015 -2.0825 -1.4189
17154TIP3   OH272952   6.689   4.811   6.228  0.3327 -0.7359  0.5699
17154TIP3    H172953   6.688   4.739   6.290  1.2443 -2.3160 -1.1632
17154TIP3    H272954   6.727   4.774   6.148 -0.1204  1.3885 -0.7142
17155TIP3   OH272955   0.085   4.832  11.724  0.2883  0.2080  0.2749
17155TIP3    H172956   0.131   4.749  11.714  0.9255  0.7185 -1.5579
17155TIP3    H272957   0.153   4.894  11.751 -0.2701  0.0822  2.0889
17156TIP3   OH272958   6.016   4.064  15.366 -0.7006 -0.8316 -0.2117
17156TIP3    H172959   6.004   3.998  15.298 -1.5639 -0.3587 -0.5271
17156TIP3    H272960   6.024   4.147  15.318  1.7731 -0.8223  0.0862
17157TIP3   OH272961   6.005   5.240   0.766 -0.3254 -0.3927 -0.2933
17157TIP3    H172962   6.028   5.214   0.855 -1.5448 -1.5779 -0.2912
17157TIP3    H272963   6.061   5.187   0.710  0.1249  0.0259 -0.2437
17158TIP3   OH272964   4.585   0.725  12.614 -0.0191  0.7051  0.3294
17158TIP3    H172965   4.661   0.694  12.662 -1.5364  0.0682  2.4245
17158TIP3    H272966   4.575   0.817  12.641 -0.9918  0.2895  1.4280
17159TIP3   OH272967   5.222   5.159  16.846 -0.3931  0.2148 -0.5812
17159TIP3    H172968   5.244   5.121  16.761  1.9158  1.1848 -0.4913
17159TIP3    H272969   5.168   5.235  16.825 -0.4723  0.0149 -1.1299
17160TIP3   OH272970   1.838   1.545  16.926 -0.0856  0.7025 -0.1312
17160TIP3    H172971   1.781   1.506  16.992  0.5075  0.1558  0.0667
17160TIP3    H272972   1.911   1.582  16.976 -0.1498  1.2020 -0.4006
17161TIP3   OH272973   0.458   5.999   3.503  0.1361  0.0520  0.0682
17161TIP3    H172974   0.390   6.000   3.436  0.6244 -0.6147 -0.4499
17161TIP3    H272975   0.467   6.091   3.530 -0.5732  0.2206 -0.2517
17162TIP3   OH272976   0.279   2.507  16.634  0.0669  0.6453 -0.4320
17162TIP3    H172977   0.192   2.546  16.633 -0.8487 -1.0545  2.2380
17162TIP3    H272978   0.306   2.511  16.726  1.8560 -0.8685 -0.8243
17163TIP3   OH272979   2.471   0.536   4.664  0.2520  0.1779 -0.1567
17163TIP3    H172980   2.529   0.592   4.715 -0.4444  0.9176 -0.1524
17163TIP3    H272981   2.495   0.553   4.572 -0.2834  0.8748 -0.1796
17164TIP3   OH272982   4.166   2.750  15.215 -0.3544  0.2340 -0.2862
17164TIP3    H172983   4.227   2.798  15.271 -1.5269  0.2522  1.0251
17164TIP3    H272984   4.184   2.784  15.127 -0.0210  1.9095  0.3752
17165TIP3   OH272985   6.389   0.876   5.804  0.1194 -0.7157 -0.0920
17165TIP3    H172986   6.402   0.965   5.839 -0.6482 -1.0291  1.0325
17165TIP3    H272987   6.476   0.837   5.807  0.0907 -0.7239  1.4990
17166TIP3   OH272988   3.009   1.752  13.155  0.4130 -0.5005  0.2624
17166TIP3    H172989   3.022   1.659  13.139 -0.2366 -0.9690  2.1350
17166TIP3    H272990   3.033   1.764  13.247 -1.4840  0.7474  0.6611
17167TIP3   OH272991   1.184   2.075   6.439  0.1800 -0.0200  0.2515
17167TIP3    H172992   1.184   2.114   6.526  0.6076 -0.4236  0.4356
17167TIP3    H272993   1.226   1.989   6.451 -1.4410 -0.8885  0.0137
17168TIP3   OH272994   1.450   3.098  14.169 -0.3294 -0.4184  0.1214
17168TIP3    H172995   1.503   3.072  14.245 -1.4226  0.9129  1.4198
17168TIP3    H272996   1.439   3.192  14.180 -1.6985 -0.4347 -0.9208
17169TIP3   OH272997   2.941   6.089  12.710  1.0644 -0.6051  0.3458
17169TIP3    H172998   2.928   6.122  12.621  1.0864  0.7028  0.8094
17169TIP3    H272999   3.007   6.021  12.701 -0.8701 -2.4447 -1.0384
17170TIP3   OH273000   0.383   4.214  12.495 -0.2547  0.1497 -0.2939
17170TIP3    H173001   0.296   4.244  12.522 -0.4572  0.1143 -0.8907
17170TIP3    H273002   0.435   4.216  12.575 -0.4112  1.5633 -0.2169
17171TIP3   OH273003   3.993   1.067   2.675 -0.0787 -0.5497  0.1332
17171TIP3    H173004   3.982   0.993   2.734  1.5874  0.1322  1.3824
17171TIP3    H273005   4.027   1.028   2.594  2.0788 -1.0611  1.2277
17172TIP3   OH273006   1.943   5.140   3.133  0.1261 -0.6867  0.1522
17172TIP3    H173007   1.869   5.137   3.193 -0.0392 -1.0773 -0.0684
17172TIP3    H273008   1.992   5.060   3.150  0.2493 -0.6488 -0.0184
17173TIP3   OH273009   1.538   4.048  14.728 -0.2871 -0.4771  0.2192
17173TIP3    H173010   1.496   4.088  14.804 -0.9627 -0.8352  0.0428
17173TIP3    H273011   1.510   4.101  14.654  2.1737  1.2806  0.4124
17174TIP3   OH273012   0.873   0.800  17.029  0.0594 -0.2129 -0.3795
17174TIP3    H173013   0.792   0.750  17.023  0.0280 -0.1950 -0.1081
17174TIP3    H273014   0.912   0.793  16.942 -1.5368  1.9647 -1.3796
17175TIP3   OH273015   1.678   5.907   4.711  0.5951  0.0707  0.0549
17175TIP3    H173016   1.677   5.811   4.720 -0.7928 -0.0425 -1.0356
17175TIP3    H273017   1.621   5.938   4.782 -0.5557 -0.0579 -0.7887
17176TIP3   OH273018   0.079   4.202   5.747 -0.3305 -0.5182 -0.2011
17176TIP3    H173019   0.011   4.144   5.713 -0.4934 -0.1767 -0.4576
17176TIP3    H273020   0.032   4.275   5.787 -0.1642 -1.2325  1.3712
17177TIP3   OH273021   1.764   4.129  12.300  0.3520 -0.1483  0.2099
17177TIP3    H173022   1.693   4.079  12.341 -1.2989  2.1752  0.3911
17177TIP3    H273023   1.729   4.157  12.216  1.7689 -0.4535 -0.5148
17178TIP3   OH273024   0.372   0.872   5.212 -0.0443 -0.0373 -0.2330
17178TIP3    H173025   0.293   0.831   5.246  0.6168 -0.0888  1.3129
17178TIP3    H273026   0.409   0.919   5.287  1.8517 -0.7259 -0.6860
17179TIP3   OH273027   2.466   4.080  15.104  0.4353  0.4735 -0.8161
17179TIP3    H173028   2.474   4.151  15.168 -2.4415 -0.3531  0.6804
17179TIP3    H273029   2.480   4.000  15.156  4.0812 -0.1879 -2.5507
17180TIP3   OH273030   6.593   4.586  11.235  0.1114 -0.1777 -0.2171
17180TIP3    H173031   6.592   4.585  11.140  3.1539 -0.7793 -0.3431
17180TIP3    H273032   6.624   4.499  11.260 -0.3355  0.0665  1.3351
17181TIP3   OH273033   0.608   6.038   2.597  0.2284  0.0846 -0.1222
17181TIP3    H173034   0.674   5.982   2.558  1.6466  0.1134  2.0399
17181TIP3    H273035   0.532   6.031   2.539  1.9769 -0.2423 -2.4861
17182TIP3   OH273036   5.866   5.708  17.126 -0.9699  0.1793 -0.2253
17182TIP3    H173037   5.845   5.618  17.148 -1.5621  0.9029  2.4793
17182TIP3    H273038   5.962   5.712  17.127 -0.9338  0.0560  2.1514
17183TIP3   OH273039   1.215   4.486   6.425  0.2350 -0.2036 -0.4055
17183TIP3    H173040   1.216   4.409   6.481 -0.9665 -1.0759 -1.5322
17183TIP3    H273041   1.124   4.516   6.426  0.8295  1.7743  0.7125
17184TIP3   OH273042   3.455   4.982   1.395 -0.1696 -0.4626  0.2619
17184TIP3    H173043   3.495   5.035   1.326  2.0378 -0.7622  1.2192
17184TIP3    H273044   3.403   5.044   1.446  1.1454  0.5178  0.4625
17185TIP3   OH273045   3.672   0.550  15.835  0.1732  0.1812 -0.0776
17185TIP3    H173046   3.680   0.548  15.740 -0.7115 -0.4392 -0.1536
17185TIP3    H273047   3.652   0.642  15.855  0.5339  0.3489 -0.4692
17186TIP3   OH273048   4.625   4.393   2.858 -0.0756  0.2410  0.3105
17186TIP3    H173049   4.686   4.320   2.860 -2.2278 -1.7403 -0.6986
17186TIP3    H273050   4.679   4.471   2.872  2.6015 -1.3718 -0.3635
17187TIP3   OH273051   6.723   2.092  14.379 -0.3000 -0.2450  0.0476
17187TIP3    H173052   6.648   2.107  14.321 -0.5396 -1.5665  0.0003
17187TIP3    H273053   6.750   2.180  14.405 -1.6682  0.2659 -0.1784
17188TIP3   OH273054   6.795   6.568   4.964 -0.3217 -0.8075 -0.5805
17188TIP3    H173055   6.801   6.562   5.060 -2.5044 -1.4092 -0.4337
17188TIP3    H273056   6.758   6.655   4.948  0.2888 -0.6020 -0.9157
17189TIP3   OH273057   0.778   6.813  16.927 -0.1144 -0.1522  0.0024
17189TIP3    H173058   0.689   6.788  16.904  0.2241 -0.5867 -0.8819
17189TIP3    H273059   0.771   6.847  17.017 -1.4061  1.1854 -0.5514
17190TIP3   OH273060   5.372   4.146  15.720 -0.6820 -0.6574 -0.0460
17190TIP3    H173061   5.438   4.079  15.738  2.7965  2.5703  0.6871
17190TIP3    H273062   5.406   4.191  15.642 -3.7853 -0.6950 -1.5497
17191TIP3   OH273063   5.786   0.093   0.428 -1.0462  0.1172 -0.4422
17191TIP3    H173064   5.804   0.068   0.519 -1.1424 -0.0794 -0.4771
17191TIP3    H273065   5.721   0.030   0.398 -2.0826  1.0438 -0.2016
17192TIP3   OH273066   5.005   2.138   1.427 -0.5411  0.2338 -0.4488
17192TIP3    H173067   5.054   2.139   1.345  1.4283 -2.2687  0.5657
17192TIP3    H273068   5.062   2.183   1.490 -0.3767 -0.9479  0.2916
17193TIP3   OH273069   1.828   3.102   0.592 -0.0317  0.0937 -0.2842
17193TIP3    H173070   1.739   3.126   0.566 -0.8295 -3.1788 -1.0546
17193TIP3    H273071   1.878   3.100   0.511 -0.3337 -1.8680 -0.4712
17194TIP3   OH273072   5.676   2.629   0.518  0.0655  0.3811  0.2897
17194TIP3    H173073   5.729   2.555   0.545  0.1964 -0.0443 -1.0666
17194TIP3    H273074   5.632   2.658   0.598 -1.2613 -2.1843  0.5992
17195TIP3   OH273075   3.037   5.156   5.667  0.2429  0.0230 -0.1640
17195TIP3    H173076   2.988   5.166   5.749  1.0150  0.3409  0.2765
17195TIP3    H273077   3.040   5.244   5.630  1.0706  0.1448  0.1714
17196TIP3   OH273078   6.382   1.301  13.136 -0.2558 -0.6367 -0.4585
17196TIP3    H173079   6.353   1.300  13.228  0.5689 -0.4934 -0.1919
17196TIP3    H273080   6.463   1.251  13.136  0.7713  0.9786 -0.7602
17197TIP3   OH273081   0.940   5.332   0.491 -0.2560  1.3952  0.0789
17197TIP3    H173082   0.919   5.343   0.583 -0.4117  0.2786  0.1959
17197TIP3    H273083   1.035   5.317   0.489 -0.4421  0.0135  0.2305
17198TIP3   OH273084   5.848   1.997   5.638  0.1677  0.5300 -0.5462
17198TIP3    H173085   5.910   2.068   5.651  0.4170  0.0777  0.8497
17198TIP3    H273086   5.762   2.038   5.645  0.3123  0.7815 -0.2470
17199TIP3   OH273087   0.696   1.093   1.996 -0.3407 -0.2003 -0.7187
17199TIP3    H173088   0.683   1.188   1.998 -1.8130 -0.3705 -1.0948
17199TIP3    H273089   0.761   1.076   2.064  1.5167  1.2960 -2.0128
17200TIP3   OH273090   1.723   5.491  14.560  0.4405  0.2410  0.2567
17200TIP3    H173091   1.748   5.583  14.570  1.1803 -0.0097  0.8584
17200TIP3    H273092   1.646   5.493  14.505  0.5195  1.2196  0.1592
17201TIP3   OH273093   2.918   1.598  16.468  0.3273 -0.2364  0.2705
17201TIP3    H173094   2.840   1.548  16.444 -1.4843  1.4791  2.1905
17201TIP3    H273095   2.936   1.652  16.390 -0.3175 -0.7390 -0.2357
17202TIP3   OH273096   0.539   1.119   3.846 -0.0127  0.3236  0.4558
17202TIP3    H173097   0.509   1.203   3.809  2.3974  1.6223  1.2477
17202TIP3    H273098   0.556   1.139   3.938  0.0214 -1.2179  0.7949
17203TIP3   OH273099   3.210   6.573  15.450  0.2082  0.2737  0.1132
17203TIP3    H173100   3.192   6.544  15.361  2.6762 -0.7051 -0.1538
17203TIP3    H273101   3.251   6.659  15.438 -0.6488  0.7258  0.4066
17204TIP3   OH273102   0.979   2.455   1.784  0.3518 -0.2002 -0.5956
17204TIP3    H173103   0.969   2.375   1.733 -2.3565 -0.2507 -0.1598
17204TIP3    H273104   0.934   2.437   1.867 -0.9281  1.9467 -0.7474
17205TIP3   OH273105   0.269   5.931   3.838  0.2970  0.4978 -0.2805
17205TIP3    H173106   0.301   6.014   3.873  1.7905 -0.3250  0.4053
17205TIP3    H273107   0.184   5.919   3.880  1.8711 -0.3292  3.0873
17206TIP3   OH273108   3.837   3.461  12.490  0.4559  0.0484  0.1575
17206TIP3    H173109   3.854   3.522  12.562 -1.3854  0.5664  0.2008
17206TIP3    H273110   3.897   3.388  12.507 -0.9338 -0.5854  3.1531
17207TIP3   OH273111   3.424   0.316   4.491  0.8064 -0.0005  0.1350
17207TIP3    H173112   3.430   0.406   4.459 -1.3148  0.1275 -0.0738
17207TIP3    H273113   3.470   0.317   4.574  0.2782  1.4711  0.4449
17208TIP3   OH273114   0.434   2.892  16.559 -0.3135 -0.0417  0.1324
17208TIP3    H173115   0.431   2.925  16.649  2.0605 -0.2761  0.3589
17208TIP3    H273116   0.474   2.806  16.566  1.1580  0.4816 -1.2500
17209TIP3   OH273117   0.287   2.570  15.146 -0.2571  0.8010 -0.5608
17209TIP3    H173118   0.274   2.663  15.162  1.6778  1.6657 -3.2158
17209TIP3    H273119   0.358   2.545  15.206  0.5317  1.5582 -1.1571
17210TIP3   OH273120   6.464   0.061  10.689 -0.4574 -0.6191 -0.5927
17210TIP3    H173121   6.499   0.148  10.670  0.6895 -1.2658 -1.6154
17210TIP3    H273122   6.393   0.049  10.626  2.0579 -1.9771 -3.4228
17211TIP3   OH273123   1.167   2.463  13.307 -0.2656 -0.1438 -0.2548
17211TIP3    H173124   1.163   2.398  13.237 -0.7765 -0.0206 -0.3457
17211TIP3    H273125   1.136   2.544  13.265 -0.7715 -0.1182  0.1679
17212TIP3   OH273126   5.648   0.692  15.452  0.1750  0.0623 -0.1098
17212TIP3    H173127   5.643   0.787  15.451 -1.1669  0.0071 -1.0184
17212TIP3    H273128   5.735   0.673  15.487  0.0245  1.5898  1.2073
17213TIP3   OH273129   1.392   4.416   4.985 -0.3413  0.1280 -0.3897
17213TIP3    H173130   1.436   4.459   4.911 -1.1442 -1.1167 -1.6337
17213TIP3    H273131   1.428   4.459   5.062  2.6001 -0.3500 -1.3502
17214TIP3   OH273132   5.317   4.335   3.467 -0.2677 -0.7201 -0.0131
17214TIP3    H173133   5.283   4.262   3.519 -0.9296 -0.1799  0.3279
17214TIP3    H273134   5.292   4.314   3.377  1.2256 -1.8586 -0.2006
17215TIP3   OH273135   6.096   0.290   3.844 -0.1109 -0.2413 -0.0623
17215TIP3    H173136   6.136   0.223   3.899  0.2454  1.6812  2.2237
17215TIP3    H273137   6.163   0.308   3.777  0.6947 -0.6733  0.5993
17216TIP3   OH273138   3.649   3.241  11.151 -0.1021 -0.6625  0.5322
17216TIP3    H173139   3.739   3.250  11.119 -0.3072  2.2904  0.5372
17216TIP3    H273140   3.633   3.147  11.151  1.7542 -1.1338 -2.9409
17217TIP3   OH273141   1.875   1.119  15.979  0.4425  0.1484  0.0345
17217TIP3    H173142   1.902   1.034  15.942 -0.1010  0.6677 -1.6392
17217TIP3    H273143   1.781   1.109  15.995  0.3540  0.4753 -0.2865
17218TIP3   OH273144   6.172   1.101  11.561  0.5779  0.2718  0.1858
17218TIP3    H173145   6.103   1.148  11.514  2.1658  1.1378 -1.4199
17218TIP3    H273146   6.246   1.162  11.561  1.0583 -0.2042  2.7839
17219TIP3   OH273147   6.597   0.971   3.166 -0.5628  0.0703 -0.3709
17219TIP3    H173148   6.639   0.892   3.201 -1.3103 -0.4191 -0.5501
17219TIP3    H273149   6.657   1.003   3.098 -0.2373 -0.3174 -0.2688
17220TIP3   OH273150   4.977   2.268   6.021 -0.3950  0.1284 -0.7630
17220TIP3    H173151   4.908   2.330   6.000  1.4760  2.2805 -1.0344
17220TIP3    H273152   5.045   2.321   6.063  0.9913 -1.9074 -0.2302
17221TIP3   OH273153   0.835   4.942   5.244  0.1630  0.3338 -0.1607
17221TIP3    H173154   0.926   4.925   5.221  0.1211 -0.4819  0.2563
17221TIP3    H273155   0.841   4.999   5.321  0.4256 -2.6741  2.2190
17222TIP3   OH273156   3.776   6.214   5.108 -0.0598  0.5443  0.4638
17222TIP3    H173157   3.789   6.305   5.136 -1.2113  0.1881  2.3817
17222TIP3    H273158   3.683   6.197   5.127 -0.5422 -0.2978 -2.2099
17223TIP3   OH273159   3.859   5.392  16.828  0.1621  0.2072 -0.2088
17223TIP3    H173160   3.941   5.432  16.799  0.2412 -1.0149 -1.8463
17223TIP3    H273161   3.868   5.384  16.923  2.4581 -0.9739 -0.4601
17224TIP3   OH273162   4.261   5.369  11.346 -0.2424 -0.1577  0.2718
17224TIP3    H173163   4.316   5.345  11.420 -0.4762  1.3002  0.9609
17224TIP3    H273164   4.225   5.455  11.369 -1.2866 -0.2100 -0.9999
17225TIP3   OH273165   3.474   0.982   3.578 -0.8147  0.5125  0.0864
17225TIP3    H173166   3.450   0.901   3.622 -1.1116  0.2217 -0.5974
17225TIP3    H273167   3.462   1.050   3.644  0.3170 -0.0870  0.9552
17226TIP3   OH273168   1.168   6.724  14.041  0.3737  0.4914 -0.6839
17226TIP3    H173169   1.183   6.800  13.986  2.0769  0.8272  0.1816
17226TIP3    H273170   1.112   6.667  13.988  1.5285  1.0117 -2.5705
17227TIP3   OH273171   3.363   2.418  13.436 -0.1665 -0.5586  0.2082
17227TIP3    H173172   3.442   2.407  13.488 -0.3887  1.2847  1.0029
17227TIP3    H273173   3.393   2.446  13.350  0.0589 -0.1789  0.4110
17228TIP3   OH273174   4.154   3.598   0.073  0.1106 -0.3270 -0.7556
17228TIP3    H173175   4.176   3.545  -0.004 -2.4843  0.0378 -1.8734
17228TIP3    H273176   4.190   3.685   0.053 -1.1701 -0.0380 -1.9772
17229TIP3   OH273177   4.641   1.900   3.934  0.3584 -0.4168 -0.1179
17229TIP3    H173178   4.562   1.920   3.884 -0.4411 -0.8901  0.9132
17229TIP3    H273179   4.633   1.953   4.013 -0.8302 -3.1836  1.7524
17230TIP3   OH273180   6.756   2.565  13.124  0.0750  0.8668  0.1118
17230TIP3    H173181   6.789   2.484  13.162 -1.2010 -0.1650 -0.8983
17230TIP3    H273182   6.716   2.611  13.198 -0.1194  0.0871  0.5063
17231TIP3   OH273183   4.119   4.539  15.410  0.1034 -0.3643  0.0636
17231TIP3    H173184   4.083   4.616  15.365  1.0417 -0.0179 -0.1316
17231TIP3    H273185   4.050   4.512  15.470 -0.1414  0.8311  0.3587
17232TIP3   OH273186   4.670   0.410   5.099  0.4306  0.4190  0.6451
17232TIP3    H173187   4.576   0.426   5.106  0.2765 -0.9077  4.3725
17232TIP3    H273188   4.709   0.496   5.086 -1.2390  0.9051 -1.8054
17233TIP3   OH273189   0.502   3.560   3.187 -0.1860 -0.4274 -0.6895
17233TIP3    H173190   0.506   3.615   3.265 -1.8982 -0.1620 -0.7407
17233TIP3    H273191   0.514   3.471   3.220  1.2421 -0.1640 -0.4356
17234TIP3   OH273192   1.283   6.265   3.218  0.1431 -0.7039 -0.5196
17234TIP3    H173193   1.215   6.204   3.189 -3.0730  2.2306  0.2306
17234TIP3    H273194   1.340   6.211   3.273 -0.8732 -3.5834 -2.0432
17235TIP3   OH273195   1.825   1.317   3.690  0.0939 -0.4561  0.1797
17235TIP3    H173196   1.874   1.380   3.637 -1.5679  1.5183  0.8365
17235TIP3    H273197   1.742   1.305   3.643 -1.3396  1.2051  2.0691
17236TIP3   OH273198   1.401   3.142  16.505  0.6659  0.7183 -0.0536
17236TIP3    H173199   1.446   3.197  16.570 -1.6570  1.3163  1.1848
17236TIP3    H273200   1.313   3.179  16.500 -1.0231 -2.7738  0.7422
17237TIP3   OH273201   3.898   4.127   4.282 -0.4251 -0.6019  0.8935
17237TIP3    H173202   3.813   4.084   4.273 -0.9952  0.7070 -0.4158
17237TIP3    H273203   3.962   4.059   4.258 -1.3343 -0.5893 -1.8961
17238TIP3   OH273204   2.575   0.895  12.105  0.4016  0.0081 -0.7464
17238TIP3    H173205   2.605   0.856  12.188  1.7799  1.3960 -0.5205
17238TIP3    H273206   2.655   0.931  12.067 -0.6253  1.6874 -1.3938
17239TIP3   OH273207   3.580   2.688  10.984 -0.1467 -0.0423 -0.1588
17239TIP3    H173208   3.508   2.714  10.926  0.6756 -0.5478 -1.4578
17239TIP3    H273209   3.543   2.694  11.072 -0.9651  2.2988 -0.6001
17240TIP3   OH273210   5.314   5.472   0.166  0.1698 -0.0569  0.2713
17240TIP3    H173211   5.250   5.528   0.210  0.3163  0.5749 -0.3031
17240TIP3    H273212   5.313   5.391   0.216 -0.6228  0.1725  0.6460
17241TIP3   OH273213   6.151   1.823   0.696 -0.3527 -0.0988 -0.0328
17241TIP3    H173214   6.071   1.806   0.647 -0.9235 -0.0663  0.8768
17241TIP3    H273215   6.136   1.907   0.738  0.5052  0.3216 -0.5332
17242TIP3   OH273216   4.174   0.970  16.815  0.1192  0.2128 -0.6948
17242TIP3    H173217   4.203   1.043  16.870  1.0833  0.0520 -0.9601
17242TIP3    H273218   4.239   0.901  16.832 -0.7225 -0.5558 -0.5159
17243TIP3   OH273219   3.201   4.233   5.789  0.7319 -0.0472 -0.2469
17243TIP3    H173220   3.223   4.208   5.878  1.3235 -1.4768 -0.7505
17243TIP3    H273221   3.115   4.274   5.795  0.1075 -1.4308  0.8173
17244TIP3   OH273222   5.673   6.669  16.992 -0.3162  0.2999  0.1796
17244TIP3    H173223   5.674   6.693  16.900  1.1098 -1.5692 -0.3622
17244TIP3    H273224   5.586   6.631  17.007 -1.3137  2.4270  0.1975
17245TIP3   OH273225   2.909   1.755  10.887  0.4269  0.4680 -0.3471
17245TIP3    H173226   2.858   1.678  10.862  1.2005  0.6911 -2.8937
17245TIP3    H273227   2.990   1.720  10.923  1.6402 -0.0903 -3.2922
17246TIP3   OH273228   2.617   6.257  17.051 -0.2328  0.2035  0.3012
17246TIP3    H173229   2.558   6.331  17.037 -0.1212  0.0926 -0.9056
17246TIP3    H273230   2.669   6.281  17.127 -0.2873  1.3183  0.0068
17247TIP3   OH273231   6.377   3.537   0.310  0.2929 -0.3026 -0.3257
17247TIP3    H173232   6.398   3.616   0.259 -1.8146  0.9771  0.6433
17247TIP3    H273233   6.329   3.481   0.249  0.2513 -0.0366 -0.5404
17248TIP3   OH273234   5.029   4.285   2.405  0.0074 -0.4501 -0.7205
17248TIP3    H173235   4.972   4.341   2.458 -2.5690 -2.2916 -1.3484
17248TIP3    H273236   5.070   4.226   2.468 -0.2778 -0.3552 -0.4440
17249TIP3   OH273237   0.194   1.291   5.956 -0.7177  0.0989 -0.5837
17249TIP3    H173238   0.121   1.229   5.963  0.0269 -0.7458 -0.0305
17249TIP3    H273239   0.191   1.341   6.037 -0.4732 -0.1833 -0.3977
17250TIP3   OH273240   6.537   1.444   1.653 -0.2280  0.2414  0.1898
17250TIP3    H173241   6.492   1.360   1.662 -1.5222  0.9704  0.8610
17250TIP3    H273242   6.586   1.436   1.572  0.1276 -1.3624  0.5184
17251TIP3   OH273243   6.260   5.335   1.117  0.4278  0.3290  0.0681
17251TIP3    H173244   6.270   5.428   1.098  0.2968  0.7218  1.7562
17251TIP3    H273245   6.343   5.296   1.089  0.0789  0.7310 -1.6698
17252TIP3   OH273246   5.857   3.738  11.156  0.0242  0.4805 -0.7427
17252TIP3    H173247   5.852   3.670  11.089  1.0358 -0.6035  0.2300
17252TIP3    H273248   5.913   3.701  11.224  1.0430  2.4792 -0.3921
17253TIP3   OH273249   4.223   2.774  12.701  0.1052 -0.4338  0.3111
17253TIP3    H173250   4.173   2.853  12.683  0.5030 -0.1542  0.4054
17253TIP3    H273251   4.159   2.712  12.737  0.1671  0.5941  2.3327
17254TIP3   OH273252   0.858   4.284  15.581  0.3441 -0.1843 -0.3728
17254TIP3    H173253   0.893   4.347  15.643  1.9161 -1.0309 -0.3652
17254TIP3    H273254   0.841   4.335  15.502 -0.6956  0.6971  0.3868
17255TIP3   OH273255   2.879   3.650  15.474  0.2716 -0.6128 -0.0640
17255TIP3    H173256   2.963   3.656  15.427 -0.3346 -5.0441 -2.2276
17255TIP3    H273257   2.816   3.622  15.407 -2.8452  1.5387  1.7066
17256TIP3   OH273258   2.030   5.224  16.931  0.1904 -0.0343 -0.2313
17256TIP3    H173259   1.943   5.265  16.925 -0.1075 -0.8195 -1.8850
17256TIP3    H273260   2.014   5.141  16.976  0.2482  0.2481  0.3111
17257TIP3   OH273261   4.774   6.211  15.567 -0.0588 -0.6671 -0.1148
17257TIP3    H173262   4.837   6.257  15.512  0.0108 -1.3239 -0.6004
17257TIP3    H273263   4.829   6.168  15.634 -0.0444 -0.7299 -0.1664
17258TIP3   OH273264   1.303   4.837  11.879  0.5253  0.4707  0.5433
17258TIP3    H173265   1.235   4.863  11.941 -0.8730 -0.8930 -0.3681
17258TIP3    H273266   1.293   4.743  11.870  0.5229  0.6573 -1.9299
17259TIP3   OH273267   6.818   5.228   3.917  0.4414  0.0260 -0.0687
17259TIP3    H173268   6.855   5.314   3.936  0.4109  0.2207 -0.8682
17259TIP3    H273269   6.730   5.231   3.956  1.0801 -0.2884  1.4557
17260TIP3   OH273270   0.089   3.706   4.402 -0.1836 -0.0836 -0.0301
17260TIP3    H173271   0.029   3.635   4.380 -0.4067 -0.0397  0.4209
17260TIP3    H273272   0.131   3.677   4.483  1.6669 -0.8895 -1.2056
17261TIP3   OH273273   2.379   0.315   1.471 -0.4679 -0.1942  0.2594
17261TIP3    H173274   2.403   0.407   1.488  1.9283 -0.2214 -2.1895
17261TIP3    H273275   2.422   0.266   1.541  1.4661  0.3332 -0.4848
17262TIP3   OH273276   0.977   3.061   2.493 -0.2809  0.0266 -0.2849
17262TIP3    H173277   0.978   3.007   2.413  0.6775  0.3665 -0.5175
17262TIP3    H273278   0.903   3.120   2.481 -1.3193 -1.1977 -0.0477
17263TIP3   OH273279   5.800   5.330   2.623 -0.6147  0.1743  0.5324
17263TIP3    H173280   5.705   5.334   2.633 -0.3609  0.9787  3.8579
17263TIP3    H273281   5.818   5.238   2.606 -1.9630  0.0263 -0.2719
17264TIP3   OH273282   1.177   1.377  14.436 -0.0758 -0.1113 -0.3314
17264TIP3    H173283   1.272   1.376  14.443 -0.0854 -2.0281  0.1668
17264TIP3    H273284   1.146   1.377  14.526 -0.4663 -2.4634 -0.4031
17265TIP3   OH273285   3.544   2.845   0.324  0.4853  0.4876 -0.0283
17265TIP3    H173286   3.587   2.821   0.406 -3.7713 -3.8072  1.4116
17265TIP3    H273287   3.478   2.910   0.350 -1.2810 -1.3227  0.2932
17266TIP3   OH273288   5.057   0.887  15.962  0.4773  0.1689 -0.2955
17266TIP3    H173289   5.063   0.982  15.953  0.7060  0.1505 -0.3335
17266TIP3    H273290   4.964   0.871  15.976  0.6250  0.5489  1.3343
17267TIP3   OH273291   2.658   6.234   4.527 -0.0255 -0.2880  0.2290
17267TIP3    H173292   2.671   6.156   4.581  3.5376  0.5260  0.8073
17267TIP3    H273293   2.620   6.298   4.587 -1.8546 -1.1445  0.0561
17268TIP3   OH273294   4.143   5.128   4.597 -0.2236 -0.2924  0.2885
17268TIP3    H173295   4.047   5.128   4.592 -0.3042 -1.2250  1.4366
17268TIP3    H273296   4.168   5.036   4.594  0.7466 -0.0018 -1.3123
17269TIP3   OH273297   2.237   6.738  15.599  0.1388 -0.0933  0.8443
17269TIP3    H173298   2.153   6.778  15.574  0.2692  0.0413  0.6199
17269TIP3    H273299   2.297   6.812  15.608  0.8233 -0.3350 -1.2536
17270TIP3   OH273300   2.784   0.179   3.456 -0.1313  0.2858  0.0879
17270TIP3    H173301   2.761   0.258   3.505 -2.7643 -0.9783  1.1112
17270TIP3    H273302   2.739   0.188   3.372 -0.5665 -0.1583  0.2655
17271TIP3   OH273303   2.177   5.572  10.677  0.6028 -0.5723 -0.2627
17271TIP3    H173304   2.271   5.560  10.691  0.4879  0.1506  1.3397
17271TIP3    H273305   2.146   5.485  10.652  1.3428 -1.4199  1.5506
17272TIP3   OH273306   2.386   3.800   3.924 -0.6968  0.0194  0.0565
17272TIP3    H173307   2.337   3.798   4.006 -0.1610  1.8702  0.4814
17272TIP3    H273308   2.456   3.864   3.940  1.8560 -2.4160 -0.5403
17273TIP3   OH273309   0.470   5.021   5.191  0.4400 -0.7890 -0.0287
17273TIP3    H173310   0.455   5.023   5.096 -1.9008  0.0084  0.2800
17273TIP3    H273311   0.434   4.936   5.218 -0.6890 -0.2081  0.3503
17274TIP3   OH273312   3.537   0.415  12.462  0.1934 -0.0087 -0.3023
17274TIP3    H173313   3.590   0.343  12.497 -1.1318 -1.2114 -0.7041
17274TIP3    H273314   3.579   0.494  12.496  1.6498 -0.9565  0.2040
17275TIP3   OH273315   4.265   0.535   3.565  0.4406  0.2076  0.2334
17275TIP3    H173316   4.335   0.582   3.612 -0.0980  0.8737  0.3850
17275TIP3    H273317   4.312   0.485   3.498  1.0432  0.9355  0.0912
17276TIP3   OH273318   3.386   4.072  14.919 -0.6096 -0.1623 -0.7924
17276TIP3    H173319   3.408   4.160  14.889 -0.0612  1.0905  2.7403
17276TIP3    H273320   3.339   4.032  14.846 -1.6656  3.3687 -2.2585
17277TIP3   OH273321   3.995   4.142   0.726 -0.2395  0.7374 -0.2592
17277TIP3    H173322   4.085   4.128   0.697  0.1843 -1.8318  1.9170
17277TIP3    H273323   3.996   4.228   0.768  1.8138 -0.0884  1.5690
17278TIP3   OH273324   3.271   4.217  13.897 -0.4351 -0.8115  0.0919
17278TIP3    H173325   3.307   4.171  13.972 -1.4742 -1.2196  0.3564
17278TIP3    H273326   3.191   4.259  13.930 -0.3665 -0.1496 -0.5368
17279TIP3   OH273327   0.154   5.702   4.886  0.1059  0.0376  0.2302
17279TIP3    H173328   0.216   5.764   4.849  1.0062 -0.2343  1.2176
17279TIP3    H273329   0.150   5.631   4.822 -1.0409  1.1303 -0.9707
17280TIP3   OH273330   5.233   4.723   3.897 -0.1216  0.7893  0.2149
17280TIP3    H173331   5.315   4.745   3.942  0.2974 -0.0456 -0.1193
17280TIP3    H273332   5.252   4.640   3.853 -0.7809  1.1905 -0.8360
17281TIP3   OH273333   0.597   4.366   1.292 -0.2932  0.0747 -0.3757
17281TIP3    H173334   0.576   4.275   1.311 -1.3132 -0.5726 -3.8528
17281TIP3    H273335   0.632   4.401   1.374 -2.0849 -2.7422  1.7421
17282TIP3   OH273336   2.955   3.658  15.092 -0.7619 -0.2814  0.1384
17282TIP3    H173337   3.049   3.665  15.109 -0.5287  0.5116 -1.3126
17282TIP3    H273338   2.949   3.610  15.009 -1.8543 -4.5686  2.4044
17283TIP3   OH273339   3.781   5.054   3.414 -0.2229 -0.1133  0.1431
17283TIP3    H173340   3.773   5.123   3.348  1.0731  1.2576  1.3322
17283TIP3    H273341   3.773   4.973   3.365 -0.7059  0.8703 -1.4817
17284TIP3   OH273342   6.744   5.610  11.703 -0.2182  0.5364  0.4088
17284TIP3    H173343   6.808   5.599  11.773 -0.3346 -1.2505  0.2878
17284TIP3    H273344   6.663   5.636  11.747 -0.1610 -0.0833  0.8921
17285TIP3   OH273345   6.756   4.899  13.715 -0.0935  0.3070  0.4820
17285TIP3    H173346   6.740   4.805  13.708  1.0280  0.1316 -0.0136
17285TIP3    H273347   6.743   4.919  13.807 -0.4195 -0.3111  0.5767
17286TIP3   OH273348   2.234   2.644  12.914 -0.0615  1.1259 -0.4301
17286TIP3    H173349   2.166   2.617  12.852  0.8088  1.7707 -1.7097
17286TIP3    H273350   2.187   2.696  12.979 -1.4047 -1.5138  0.8851
17287TIP3   OH273351   0.460   1.260  15.885 -0.4528  0.2134 -0.2108
17287TIP3    H173352   0.411   1.312  15.950 -0.6944 -0.4951  0.1801
17287TIP3    H273353   0.538   1.230  15.932  0.0035  0.7352 -0.6224
17288TIP3   OH273354   5.088   3.630   2.702 -0.2252 -0.2733  0.0046
17288TIP3    H173355   5.102   3.535   2.698 -2.5548 -0.6932  0.2042
17288TIP3    H273356   5.163   3.664   2.751  0.6216 -2.0142 -0.0235
17289TIP3   OH273357   4.684   1.817  12.999  0.2910  0.1385 -0.1901
17289TIP3    H173358   4.603   1.775  13.027  0.0921  0.7365  0.1606
17289TIP3    H273359   4.733   1.748  12.955 -0.0215 -0.4603  0.3730
17290TIP3   OH273360   5.877   0.010  13.680 -0.2465 -0.7136 -0.2508
17290TIP3    H173361   5.903  -0.081  13.689  2.1275  0.1037  2.4691
17290TIP3    H273362   5.942   0.049  13.622  0.3573 -0.2229  0.7240
17291TIP3   OH273363   2.865   3.124  13.339 -0.4763 -0.1600  0.3387
17291TIP3    H173364   2.909   3.113  13.423  0.4910 -0.5131 -0.2008
17291TIP3    H273365   2.842   3.035  13.313 -0.9587 -0.0328  0.3163
17292TIP3   OH273366   2.267   2.738  14.785 -0.4412  0.3606 -0.2930
17292TIP3    H173367   2.248   2.703  14.698 -2.9262  0.1270  0.2718
17292TIP3    H273368   2.283   2.831  14.771 -0.0165  0.1807 -1.0721
17293TIP3   OH273369   3.228   1.729   1.768 -0.5181  0.4867 -0.2842
17293TIP3    H173370   3.293   1.720   1.698 -0.0621  0.9108  0.0822
17293TIP3    H273371   3.191   1.816   1.756 -2.1814 -0.3135 -1.4638
17294TIP3   OH273372   5.443   5.349   4.433 -0.0868  0.0454 -0.5686
17294TIP3    H173373   5.479   5.431   4.399 -1.0128  1.4525  1.6457
17294TIP3    H273374   5.369   5.330   4.375  1.2182 -0.2507 -2.1990
17295TIP3   OH273375   0.167   2.876   1.346  0.3809 -0.2256 -0.4945
17295TIP3    H173376   0.121   2.826   1.279  0.1535 -0.0159 -0.4981
17295TIP3    H273377   0.098   2.908   1.403  0.4280  0.8105 -0.9830
17296TIP3   OH273378   1.189   6.508   6.088 -0.6184  0.2750  0.1110
17296TIP3    H173379   1.111   6.549   6.050 -1.0985 -0.8240 -0.1235
17296TIP3    H273380   1.255   6.578   6.088 -2.1908  1.8590  2.3131
17297TIP3   OH273381   3.001   5.946  14.822 -0.2709  0.2049  0.3559
17297TIP3    H173382   3.056   6.024  14.812  2.0793 -1.2650  1.0874
17297TIP3    H273383   2.961   5.955  14.909 -1.6895  1.5084 -0.3682
17298TIP3   OH273384   1.927   1.582   4.691 -0.5440  0.2803  0.2800
17298TIP3    H173385   1.841   1.540   4.683 -0.3857 -0.0657  0.3545
17298TIP3    H273386   1.920   1.635   4.770 -0.9109  0.7971 -0.0933
17299TIP3   OH273387   2.510   2.840  13.001  0.0110 -0.0038 -0.1900
17299TIP3    H173388   2.454   2.887  12.939 -2.6644 -1.9118  0.6147
17299TIP3    H273389   2.566   2.786  12.945  2.3802  3.0851 -1.0782
17300TIP3   OH273390   5.543   6.667   1.780 -0.5840  0.3571 -0.0946
17300TIP3    H173391   5.604   6.707   1.842 -0.3535 -0.1163 -0.0100
17300TIP3    H273392   5.508   6.592   1.827  0.3296 -0.5884 -0.8662
17301TIP3   OH273393   0.797   5.796   4.506  0.1500  0.1993 -0.3696
17301TIP3    H173394   0.750   5.720   4.471 -0.6851  0.5817 -0.1262
17301TIP3    H273395   0.860   5.819   4.439 -0.6026  0.1932 -1.0976
17302TIP3   OH273396   0.232   2.093  14.639 -0.3788  0.4172 -0.6325
17302TIP3    H173397   0.166   2.097  14.708 -0.5317 -0.3814 -0.7149
17302TIP3    H273398   0.292   2.024  14.668  1.7003  2.5838  0.5269
17303TIP3   OH273399   6.651   5.543   3.637  0.8339 -0.3904 -0.1711
17303TIP3    H173400   6.654   5.556   3.732  1.7545  0.2748 -0.2726
17303TIP3    H273401   6.666   5.630   3.600 -0.7678 -0.4030 -0.9537
17304TIP3   OH273402   0.281   0.616   4.687  0.3098  0.7789 -0.1417
17304TIP3    H173403   0.202   0.653   4.648  0.2494 -0.5549 -1.3843
17304TIP3    H273404   0.277   0.523   4.665  1.4125  0.3899  1.1964
17305TIP3   OH273405   2.811   1.006  14.869 -0.0772 -0.7503  0.2031
17305TIP3    H173406   2.779   1.088  14.907  1.1389  0.2672 -0.8526
17305TIP3    H273407   2.772   0.937  14.923 -0.4065  0.5475  1.6896
17306TIP3   OH273408   1.221   0.675  16.175 -0.2296 -0.4869 -0.0340
17306TIP3    H173409   1.191   0.588  16.150  1.8000 -1.3515  0.3628
17306TIP3    H273410   1.144   0.717  16.214 -1.5484 -1.6458 -1.2838
17307TIP3   OH273411   5.626   6.491   5.667 -0.1577 -0.1088 -0.2257
17307TIP3    H173412   5.663   6.567   5.712 -0.1457 -0.0663 -0.3071
17307TIP3    H273413   5.552   6.526   5.618 -1.9287 -0.5816  1.9362
17308TIP3   OH273414   1.922   6.740  13.234  0.3176 -0.9538  0.0480
17308TIP3    H173415   1.866   6.802  13.281  1.1657  0.6350 -0.9340
17308TIP3    H273416   1.866   6.702  13.167  0.2852  0.3843 -0.7229
17309TIP3   OH273417   2.328   0.630  15.460  0.5299 -0.5680 -0.0227
17309TIP3    H173418   2.343   0.686  15.537  0.0288  0.1565 -0.4311
17309TIP3    H273419   2.370   0.676  15.388 -0.6289 -0.2490 -0.5281
17310TIP3   OH273420   1.946   5.950   1.462 -0.5079 -0.3617 -0.5157
17310TIP3    H173421   1.993   5.995   1.534 -1.9102  0.3583 -0.0161
17310TIP3    H273422   1.854   5.954   1.488 -0.8185 -2.2084 -1.2315
17311TIP3   OH273423   1.309   3.947   2.684  0.6399  0.9128  0.5256
17311TIP3    H173424   1.342   3.907   2.604 -0.5780  1.4128 -0.2703
17311TIP3    H273425   1.297   4.039   2.662 -1.7613  0.6705  0.5385
17312TIP3   OH273426   2.086   2.073   4.437  0.1085  0.3451 -0.0151
17312TIP3    H173427   1.997   2.056   4.465  0.0143  0.1109 -0.4490
17312TIP3    H273428   2.132   2.101   4.516  0.0956 -1.2438  0.5939
17313TIP3   OH273429   2.984   5.728   4.517 -0.6271 -0.1122  0.0422
17313TIP3    H173430   3.033   5.795   4.470 -0.3635  0.3529  0.9539
17313TIP3    H273431   2.935   5.682   4.449 -0.6245  0.8464 -0.6313
17314TIP3   OH273432   4.584   4.870  16.353 -0.3770  0.1145  0.4282
17314TIP3    H173433   4.520   4.799  16.344  0.9073 -0.7705 -2.9281
17314TIP3    H273434   4.661   4.827  16.390 -0.0784  0.0444 -0.2618
17315TIP3   OH273435   0.296   1.086   5.805 -0.0558 -0.2871  0.3653
17315TIP3    H173436   0.272   1.163   5.857 -0.3652 -0.6791  0.8070
17315TIP3    H273437   0.366   1.044   5.855  0.4987  0.0028 -0.1518
17316TIP3   OH273438   3.284   0.031  16.493  0.2955 -0.9296 -0.5754
17316TIP3    H173439   3.293  -0.064  16.487  1.5434 -0.8776  0.2129
17316TIP3    H273440   3.190   0.045  16.503  0.2739 -2.2874  2.2324
17317TIP3   OH273441   4.088   4.714  15.201 -0.1245 -0.1610  0.1534
17317TIP3    H173442   4.182   4.697  15.200 -0.3332 -1.4101 -1.2982
17317TIP3    H273443   4.081   4.808  15.218  1.1990 -0.6473  4.7209
17318TIP3   OH273444   0.533   2.394  17.180  0.1264  0.7580  0.3283
17318TIP3    H173445   0.540   2.317  17.236  1.5409  1.1122  0.6630
17318TIP3    H273446   0.450   2.382  17.133  0.6674 -1.3360 -0.1766
17319TIP3   OH273447   1.439   5.204  14.888  0.4544  0.4560  0.2290
17319TIP3    H173448   1.392   5.188  14.807  0.3529 -2.7238  0.7949
17319TIP3    H273449   1.378   5.179  14.957  1.3673  0.7444  1.1686
17320TIP3   OH273450   5.603   6.609   4.378 -0.2736 -0.2000  0.0994
17320TIP3    H173451   5.594   6.629   4.284  0.1799 -0.8026 -0.0839
17320TIP3    H273452   5.576   6.689   4.422  0.7276  0.5432 -0.5816
17321TIP3   OH273453   2.647   3.851   3.691 -0.4127 -0.4078 -0.6363
17321TIP3    H173454   2.555   3.835   3.670 -0.1316 -0.0397 -2.2515
17321TIP3    H273455   2.647   3.933   3.740 -1.0784 -1.2502  0.8410
17322TIP3   OH273456   1.833   2.823  17.245  0.0596 -0.0131  0.5912
17322TIP3    H173457   1.909   2.779  17.284 -1.5412 -2.6563  1.0210
17322TIP3    H273458   1.846   2.812  17.150 -0.5962 -2.1785  0.6835
17323TIP3   OH273459   0.002   4.449   5.592 -0.4187  0.1458  0.6379
17323TIP3    H173460   0.005   4.497   5.509  0.0609  1.1848  1.2383
17323TIP3    H273461  -0.012   4.358   5.566 -0.4246  0.4696 -0.5746
17324TIP3   OH273462   0.727   3.761  14.378 -0.0891 -0.0211  0.3718
17324TIP3    H173463   0.649   3.796  14.420  1.1505  0.0494  2.7466
17324TIP3    H273464   0.733   3.670  14.408 -0.2024 -0.6151 -1.2567
17325TIP3   OH273465   6.498   3.863   1.067 -0.2742 -0.0487  0.0710
17325TIP3    H173466   6.445   3.863   1.147  0.0841  0.8070  0.3278
17325TIP3    H273467   6.582   3.827   1.095 -0.0268  0.5892  0.1850
17326TIP3   OH273468   4.099   6.635   1.222  0.6840 -0.6696  0.1434
17326TIP3    H173469   4.148   6.609   1.144 -0.0325 -0.0979 -0.4997
17326TIP3    H273470   4.037   6.564   1.236 -1.6252  0.8111 -1.9128
17327TIP3   OH273471   1.434   2.112  15.503 -0.0825  0.2826  0.0020
17327TIP3    H173472   1.497   2.046  15.531 -0.2056 -0.2842 -1.0134
17327TIP3    H273473   1.349   2.067  15.506  0.0992 -0.4131 -3.0120
17328TIP3   OH273474   1.816   3.606  15.770  0.0051 -0.0980  0.2459
17328TIP3    H173475   1.851   3.523  15.738 -1.5091 -1.2072  1.2961
17328TIP3    H273476   1.746   3.628  15.709 -0.6198 -0.4335  0.8207
17329TIP3   OH273477   2.601   4.737  10.529 -0.2860 -0.3252 -0.0549
17329TIP3    H173478   2.613   4.692  10.446 -2.0132 -3.3166  1.1393
17329TIP3    H273479   2.633   4.675  10.595 -1.1938  0.9073  1.6328
17330TIP3   OH273480   0.249   1.292  12.708 -0.3999 -0.4230  0.1861
17330TIP3    H173481   0.175   1.344  12.676 -0.1560 -1.4155 -2.1723
17330TIP3    H273482   0.294   1.263  12.629  2.8114  0.4590  1.5404
17331TIP3   OH273483   5.667   4.312  13.316 -0.3125  0.1724 -0.1497
17331TIP3    H173484   5.577   4.286  13.338 -1.1525  2.3266 -0.7388
17331TIP3    H273485   5.656   4.391  13.264  1.8567 -1.2189 -2.9225
17332TIP3   OH273486   4.025   0.328  14.754 -0.1573 -0.2818 -0.3489
17332TIP3    H173487   4.016   0.285  14.839  1.1716  1.7163  0.9020
17332TIP3    H273488   4.062   0.414  14.775  0.7541  0.0612 -3.0104
17333TIP3   OH273489   5.459   1.384   5.341  0.6238 -0.3677 -0.0311
17333TIP3    H173490   5.442   1.291   5.356 -0.3578 -0.2943 -0.5929
17333TIP3    H273491   5.517   1.385   5.265  4.8253 -0.6959  2.8906
17334TIP3   OH273492   2.463   5.787   6.347 -0.5455  0.3279 -1.1741
17334TIP3    H173493   2.397   5.717   6.352  0.8415 -1.0356 -0.8821
17334TIP3    H273494   2.463   5.825   6.435 -1.6767  1.0738 -1.4806
17335TIP3   OH273495   2.752   1.572   5.208 -0.5242 -0.0019  0.0228
17335TIP3    H173496   2.753   1.509   5.136 -1.2304 -0.0183  0.0208
17335TIP3    H273497   2.836   1.559   5.251  0.4334  0.8469 -1.5004
17336TIP3   OH273498   0.427   0.465   3.844 -0.0092 -0.8089  0.0934
17336TIP3    H173499   0.391   0.478   3.756 -0.6603 -3.5995 -0.1232
17336TIP3    H273500   0.520   0.487   3.835 -0.5011  1.1925 -0.6694
17337TIP3   OH273501   2.348   6.693  12.863 -1.2344 -0.2678  0.3229
17337TIP3    H173502   2.324   6.697  12.770 -1.1966 -0.0677  0.3213
17337TIP3    H273503   2.284   6.633  12.902 -1.1301 -0.5078  0.1300
17338TIP3   OH273504   1.493   5.847   2.800  0.5168  0.2245  0.2470
17338TIP3    H173505   1.462   5.903   2.871  1.2160  0.2879  0.5110
17338TIP3    H273506   1.427   5.857   2.731 -0.9503 -0.9910  1.4262
17339TIP3   OH273507   2.564   2.233   1.703 -0.2400 -0.3491  0.0636
17339TIP3    H173508   2.581   2.313   1.653 -0.6605 -0.9398 -1.0859
17339TIP3    H273509   2.539   2.169   1.636  0.5750 -1.5797  0.9085
17340TIP3   OH273510   1.030   5.278   1.395 -0.1224 -0.1802 -0.2827
17340TIP3    H173511   1.068   5.339   1.331 -1.7891 -1.2752 -2.4400
17340TIP3    H273512   0.936   5.286   1.382 -0.6798  0.6121  3.1391
17341TIP3   OH273513   1.439   5.038   4.931 -0.3043 -0.7694  0.5878
17341TIP3    H173514   1.525   5.037   4.888 -0.5631 -0.1660  0.0331
17341TIP3    H273515   1.446   5.107   4.996 -0.6041 -0.1967  0.0227
17342TIP3   OH273516   5.075   4.705   2.376 -0.0545  0.1864 -0.0716
17342TIP3    H173517   5.164   4.700   2.411  0.5639 -0.4563 -1.6271
17342TIP3    H273518   5.074   4.786   2.325  0.5861 -1.1356 -2.3405
17343TIP3   OH273519   2.396   3.382  16.613  0.2147 -0.4042  0.2597
17343TIP3    H173520   2.353   3.463  16.640  0.7159  0.0715 -0.3540
17343TIP3    H273521   2.340   3.313  16.648  0.4841  0.1861  1.9420
17344TIP3   OH273522   4.113   3.067   4.800  0.1979  0.2608  0.1144
17344TIP3    H173523   4.147   3.029   4.880  0.8695 -1.4723 -0.9461
17344TIP3    H273524   4.018   3.071   4.813  0.3178  0.1855  1.0533
17345TIP3   OH273525   5.072   1.201  12.034  0.2014 -0.3150  0.6473
17345TIP3    H173526   5.065   1.142  11.959 -1.2165 -1.8332  1.8953
17345TIP3    H273527   4.991   1.189  12.082 -1.2114  4.3126 -0.0923
17346TIP3   OH273528   1.531   4.793  14.759  0.2026  0.2606 -0.2752
17346TIP3    H173529   1.491   4.851  14.694 -1.4258 -0.0281  0.4398
17346TIP3    H273530   1.530   4.707  14.717 -1.9972 -0.1684  0.5511
17347TIP3   OH273531   1.559   6.758   1.065 -0.1243  0.4971 -0.5286
17347TIP3    H173532   1.635   6.817   1.068  0.4923 -0.3115  0.0738
17347TIP3    H273533   1.484   6.817   1.060  0.3803  1.4407  1.6578
17348TIP3   OH273534   4.573   3.812  13.390 -0.0781 -0.0751 -0.2319
17348TIP3    H173535   4.506   3.753  13.354 -0.8445  0.1490  0.7942
17348TIP3    H273536   4.581   3.881  13.324 -1.4868  0.3468  0.0058
17349TIP3   OH273537   4.930   0.454   4.175  0.2995 -0.3927 -0.0553
17349TIP3    H173538   4.920   0.510   4.252 -1.9798  0.8851 -1.1777
17349TIP3    H273539   4.915   0.365   4.208  0.9045 -0.0569  1.2147
17350TIP3   OH273540   2.628   5.618   3.593  0.0323  0.0886 -0.1991
17350TIP3    H173541   2.717   5.591   3.570  0.0528 -0.3169  0.3497
17350TIP3    H273542   2.574   5.583   3.522  0.4607  1.5513 -1.2976
17351TIP3   OH273543   0.792   3.895  13.635 -0.3780  0.3999 -0.8677
17351TIP3    H173544   0.852   3.834  13.678 -1.5557 -0.4318 -0.3583
17351TIP3    H273545   0.791   3.971  13.693  1.1433  0.9632 -1.5357
17352TIP3   OH273546   0.919   6.066  13.141  0.0750  0.8694 -0.1409
17352TIP3    H173547   0.849   6.012  13.177  0.3337  0.6265  0.0073
17352TIP3    H273548   0.888   6.091  13.054  0.0347  0.3084 -0.2944
17353TIP3   OH273549   4.305   1.736   4.916  0.3197 -0.0256  0.5121
17353TIP3    H173550   4.219   1.746   4.959 -0.5545 -2.0350 -0.6200
17353TIP3    H273551   4.327   1.644   4.929  0.2257 -0.6382 -2.8268
17354TIP3   OH273552   1.531   0.277   5.251  0.3101 -0.2294  0.7831
17354TIP3    H173553   1.516   0.368   5.227 -1.7343  0.0647  2.8608
17354TIP3    H273554   1.627   0.268   5.253  0.5731  1.1736 -1.6843
17355TIP3   OH273555   2.126   6.286  13.435 -0.6081 -0.0783 -0.2105
17355TIP3    H173556   2.089   6.234  13.364 -1.5444 -0.9579  0.8858
17355TIP3    H273557   2.131   6.226  13.509  2.0775  0.2894  0.0084
17356TIP3   OH273558   5.566   0.531  16.001 -0.5086 -0.2624 -0.1688
17356TIP3    H173559   5.479   0.530  16.042 -1.2008 -1.0313 -1.5640
17356TIP3    H273560   5.577   0.443  15.965  2.4971 -1.4633  3.1203
17357TIP3   OH273561   3.321   6.620   1.191 -0.1815  0.1568  0.1795
17357TIP3    H173562   3.356   6.534   1.214 -1.7272 -0.2242  1.3119
17357TIP3    H273563   3.373   6.682   1.243  0.4843 -0.1366 -0.1218
17358TIP3   OH273564   6.418   1.358  14.240 -0.9232 -0.4993  0.3164
17358TIP3    H173565   6.449   1.396  14.157 -0.8611  0.2052  0.6534
17358TIP3    H273566   6.488   1.377  14.302 -2.2581  1.6993  1.2538
17359TIP3   OH273567   0.852   2.876   0.001  0.0205  0.2150 -0.0743
17359TIP3    H173568   0.921   2.910  -0.056  0.3386 -1.8418 -1.0073
17359TIP3    H273569   0.815   2.802  -0.047 -1.8582  0.3345  1.0605
17360TIP3   OH273570   3.677   1.265   0.461  0.5694  0.0727  0.3977
17360TIP3    H173571   3.708   1.303   0.543 -1.4683  0.7998  0.8805
17360TIP3    H273572   3.685   1.337   0.398 -3.0821  1.4550  1.2642
17361TIP3   OH273573   2.758   4.189  14.638  0.2862  0.1615 -0.5594
17361TIP3    H173574   2.704   4.183  14.718  0.5274 -0.1273 -0.4153
17361TIP3    H273575   2.741   4.277  14.605  0.0573  0.2286 -0.2777
17362TIP3   OH273576   2.825   2.730  15.691  0.7972  0.0129 -0.1972
17362TIP3    H173577   2.845   2.814  15.648  0.4154 -0.8161 -2.0929
17362TIP3    H273578   2.758   2.752  15.755  2.0673  1.4672  0.6920
17363TIP3   OH273579   5.203   3.435   0.235 -0.3793 -0.1703  0.5139
17363TIP3    H173580   5.287   3.481   0.248  0.3514 -0.4920 -2.3045
17363TIP3    H273581   5.205   3.363   0.298  2.8110 -1.8214 -1.2362
17364TIP3   OH273582   6.158   1.084   6.002 -0.0830  0.1000  0.4391
17364TIP3    H173583   6.076   1.073   6.049  1.0263 -0.9428  2.2991
17364TIP3    H273584   6.213   1.012   6.034  1.2644  0.2556 -1.3843
17365TIP3   OH273585   1.900   3.078   4.906 -0.4554 -0.3547  0.0499
17365TIP3    H173586   1.866   3.069   4.816 -0.0122  1.4004 -0.3113
17365TIP3    H273587   1.829   3.044   4.961 -1.3829  0.0235 -0.8792
17366TIP3   OH273588   0.250   6.012  16.832 -0.0607 -0.4082  0.1308
17366TIP3    H173589   0.209   6.067  16.899  0.4432  0.4214 -0.2230
17366TIP3    H273590   0.315   5.960  16.879  0.0523 -0.0769  0.3409
17367TIP3   OH273591   0.579   3.926  15.741 -0.0193 -0.3164 -0.5893
17367TIP3    H173592   0.546   4.014  15.721 -0.4438 -0.6578 -1.4348
17367TIP3    H273593   0.658   3.942  15.792  0.4299  0.5791 -1.5296
17368TIP3   OH273594   1.272   5.724   4.754  0.5500 -0.0561  0.8727
17368TIP3    H173595   1.365   5.724   4.732  0.0143  0.8550 -1.6694
17368TIP3    H273596   1.248   5.817   4.753 -0.5830 -0.3487  0.5921
17369TIP3   OH273597   0.072   4.121   0.437 -0.4276 -0.4651  0.3543
17369TIP3    H173598   0.145   4.115   0.376  0.6159 -2.0647  1.6869
17369TIP3    H273599   0.049   4.030   0.456 -1.9630  0.0095  0.9178
17370TIP3   OH273600   2.693   1.612   1.808  0.1873 -0.2536 -0.3542
17370TIP3    H173601   2.764   1.675   1.794  0.9841 -0.3041  2.7976
17370TIP3    H273602   2.621   1.665   1.842  0.7518 -0.9178  1.9987
17371TIP3   OH273603   5.954   5.462   2.398 -0.8360  0.4734 -0.0742
17371TIP3    H173604   5.897   5.490   2.326 -1.8557 -0.9229  0.1554
17371TIP3    H273605   5.894   5.436   2.467  0.1142  0.2009  0.6685
17372TIP3   OH273606   0.243   5.724   6.572 -0.0725 -0.1499 -0.2253
17372TIP3    H173607   0.217   5.796   6.630  0.9015 -0.0529  0.1100
17372TIP3    H273608   0.301   5.670   6.626  1.4901  0.3586 -1.3178
17373TIP3   OH273609   3.182   5.083   0.854 -0.2509 -0.1304  0.2925
17373TIP3    H173610   3.209   5.021   0.787  1.2514  0.2956  0.4518
17373TIP3    H273611   3.137   5.153   0.806  0.4658 -0.0203 -0.2454
17374TIP3   OH273612   3.498   3.695  16.854 -0.2655 -0.5325 -0.2217
17374TIP3    H173613   3.405   3.718  16.859  0.2226  2.2149 -1.9900
17374TIP3    H273614   3.539   3.741  16.927 -0.0279 -0.2810 -0.5145
17375TIP3   OH273615   6.244   0.377  16.029  0.1267  0.3100  0.1220
17375TIP3    H173616   6.308   0.444  16.006 -1.0578  1.5237  0.2300
17375TIP3    H273617   6.267   0.352  16.119  0.8891  0.1740 -0.1019
17376TIP3   OH273618   6.002   1.162   6.237  0.3374  0.6249  0.0910
17376TIP3    H173619   5.991   1.069   6.259  0.7487  0.2588 -1.1588
17376TIP3    H273620   6.060   1.196   6.304  0.1218 -0.0100  0.6103
17377TIP3   OH273621   6.163   0.367   0.212 -0.4450 -0.4447 -0.3071
17377TIP3    H173622   6.206   0.404   0.135  1.1045 -0.4792  0.4998
17377TIP3    H273623   6.231   0.316   0.256 -1.4167 -0.8114  0.8359
17378TIP3   OH273624   4.255   5.198   3.147  0.3040 -0.1103  0.2656
17378TIP3    H173625   4.281   5.195   3.239  0.7678 -0.4522  0.1236
17378TIP3    H273626   4.317   5.259   3.106 -1.0029  1.4641  0.5246
17379TIP3   OH273627   6.302   2.940  16.507  0.5712 -0.5448  0.2367
17379TIP3    H173628   6.344   2.856  16.491  0.0689 -1.1068  1.7500
17379TIP3    H273629   6.258   2.961  16.425  2.7626 -0.5160 -0.9997
17380TIP3   OH273630   5.826   2.920   5.202  0.2737 -0.5764 -0.3526
17380TIP3    H173631   5.755   2.977   5.230  1.0816 -0.0559  0.7458
17380TIP3    H273632   5.827   2.849   5.265 -0.0216 -1.2317 -1.0696
17381TIP3   OH273633   3.929   6.311  11.514  0.1645 -0.1743  0.3766
17381TIP3    H173634   3.938   6.335  11.606  2.0368 -2.0390  0.7421
17381TIP3    H273635   3.987   6.372  11.468 -1.0089  0.9649  0.3332
17382TIP3   OH273636   2.942   0.472  14.365  0.5561 -0.5363  0.2540
17382TIP3    H173637   2.887   0.412  14.315 -1.0144  0.5832  0.5546
17382TIP3    H273638   2.903   0.473  14.453  0.7830  0.5967  0.3616
17383TIP3   OH273639   5.432   5.457  11.058  0.1309 -0.2871  0.5816
17383TIP3    H173640   5.367   5.443  11.127 -1.2121  0.5707 -0.4577
17383TIP3    H273641   5.383   5.445  10.977  1.6947 -1.3637 -0.2504
17384TIP3   OH273642   3.569   1.207  15.360  0.3391  0.3739  0.0127
17384TIP3    H173643   3.477   1.184  15.377  0.2208  0.4920 -0.4752
17384TIP3    H273644   3.593   1.156  15.283  0.7211  0.2546  0.2085
17385TIP3   OH273645   6.139   1.624   2.035  0.3081  0.7400 -0.5961
17385TIP3    H173646   6.126   1.575   2.117  0.4493 -1.1468 -1.6402
17385TIP3    H273647   6.195   1.698   2.060  0.6032  0.0392  0.9581
17386TIP3   OH273648   0.612   1.217   0.452 -0.5395 -0.7710 -0.3392
17386TIP3    H173649   0.565   1.244   0.531 -0.4471 -1.3466 -0.0781
17386TIP3    H273650   0.636   1.126   0.469 -1.8851 -1.4114 -1.6770
17387TIP3   OH273651   2.735   3.596  15.245 -0.4530 -0.1104 -0.1940
17387TIP3    H173652   2.682   3.560  15.174 -2.9114  2.7927 -0.0226
17387TIP3    H273653   2.820   3.615  15.203 -0.1012 -2.9895 -0.9907
17388TIP3   OH273654   0.023   6.663   0.614 -0.1696  0.3633  0.0636
17388TIP3    H173655  -0.025   6.592   0.658  0.5178 -0.5482 -0.6178
17388TIP3    H273656   0.068   6.709   0.685 -0.0860 -0.3006  0.4554
17389TIP3   OH273657   1.437   2.292   2.634 -0.1763 -0.4855 -0.6220
17389TIP3    H173658   1.526   2.302   2.603 -0.2601  1.1749 -0.4033
17389TIP3    H273659   1.383   2.340   2.570 -0.5196  1.5129  1.0784
17390TIP3   OH273660   5.436   0.041  11.383 -0.5989  0.1035 -0.0115
17390TIP3    H173661   5.387  -0.039  11.364 -0.4400  0.1405 -0.5881
17390TIP3    H273662   5.436   0.089  11.301  1.0013 -0.2225 -0.2357
17391TIP3   OH273663   1.726   0.842  14.932 -0.0446 -0.1446  0.0774
17391TIP3    H173664   1.727   0.763  14.986  1.7853  0.2494  0.6989
17391TIP3    H273665   1.816   0.874  14.935 -0.8519  2.3356  0.3873
17392TIP3   OH273666   5.666   5.667  14.856  0.3341  0.2917  0.2937
17392TIP3    H173667   5.676   5.599  14.922 -0.1990 -0.2971 -0.2132
17392TIP3    H273668   5.728   5.735  14.881  0.1026  0.1005  1.4227
17393TIP3   OH273669   4.120   3.155  12.068  0.4577  0.0084  0.4470
17393TIP3    H173670   4.104   3.088  12.002 -1.1849 -0.2764  1.0902
17393TIP3    H273671   4.072   3.126  12.145  0.0959  1.6707  0.9008
17394TIP3   OH273672   1.653   2.324   3.089  0.4620 -0.0215  0.8090
17394TIP3    H173673   1.692   2.248   3.047 -0.8132 -1.2112  1.7029
17394TIP3    H273674   1.637   2.386   3.018 -0.4698 -1.4583 -0.2791
17395TIP3   OH273675   3.838   3.976  14.184  0.4839 -0.0173 -0.1921
17395TIP3    H173676   3.855   3.889  14.149  2.3888 -0.3638  1.4304
17395TIP3    H273677   3.924   4.016  14.193 -0.2965  1.7874 -0.2172
17396TIP3   OH273678   1.694   2.483  16.775 -1.0638 -0.3971 -0.0959
17396TIP3    H173679   1.604   2.471  16.803 -1.4633  1.8127 -0.2160
17396TIP3    H273680   1.694   2.567  16.729  0.9751 -0.5524 -0.5079
17397TIP3   OH273681   5.423   6.642   5.542 -0.4168 -0.1153 -0.8728
17397TIP3    H173682   5.362   6.711   5.568  0.1339  0.2021 -0.4045
17397TIP3    H273683   5.419   6.643   5.446  1.1306  2.0370 -1.0052
17398TIP3   OH273684   0.485   1.035  13.408 -0.1947  0.6678  0.1434
17398TIP3    H173685   0.551   1.097  13.439  0.2883  0.6624 -0.8263
17398TIP3    H273686   0.527   0.990  13.334 -0.5353 -0.8255  0.8182
17399TIP3   OH273687   0.944   5.514   5.706  0.3974  0.1966  0.0194
17399TIP3    H173688   1.038   5.528   5.719  0.3181  0.6053  0.1481
17399TIP3    H273689   0.939   5.433   5.654  0.8098  0.0221  0.2445
17400TIP3   OH273690   2.819   6.265   0.694 -0.0526  0.2127 -0.2663
17400TIP3    H173691   2.898   6.259   0.748 -0.3061 -0.5777  0.0224
17400TIP3    H273692   2.851   6.254   0.604  0.3291  1.2322 -0.2766
17401TIP3   OH273693   5.479   0.431   5.279 -0.0946  0.2169  0.0142
17401TIP3    H173694   5.538   0.418   5.353  0.6082  0.0452 -0.5638
17401TIP3    H273695   5.397   0.388   5.305  0.2390 -0.0877  0.5636
17402TIP3   OH273696   4.906   6.072  12.534  0.9179 -0.0970 -0.3193
17402TIP3    H173697   4.881   6.163  12.546  1.9645  0.1293  0.2665
17402TIP3    H273698   4.823   6.026  12.523  0.1358  0.5051  2.3385
17403TIP3   OH273699   2.279   3.611  17.040 -0.1629 -0.0027  0.2938
17403TIP3    H173700   2.295   3.581  17.129 -2.3631  0.9420  1.0727
17403TIP3    H273701   2.305   3.703  17.041  0.3309 -0.1261 -0.2294
17404TIP3   OH273702   4.590   5.084   3.947  0.0697 -0.0176 -0.1399
17404TIP3    H173703   4.598   5.162   4.001 -1.9643  0.7319 -0.8472
17404TIP3    H273704   4.587   5.117   3.857 -0.9193 -0.8881 -0.4471
17405TIP3   OH273705   2.612   2.682   3.231 -0.0615  0.1139  0.3129
17405TIP3    H173706   2.616   2.613   3.164 -0.1665  0.7690 -0.3817
17405TIP3    H273707   2.529   2.726   3.215  0.8048  1.5652 -0.4371
17406TIP3   OH273708   2.937   5.501  12.413  0.4413 -0.1582  0.1698
17406TIP3    H173709   3.002   5.523  12.345  0.1826 -0.4424 -0.1707
17406TIP3    H273710   2.988   5.457  12.481  0.8866  1.0465  0.6459
17407TIP3   OH273711   3.234   6.303   0.281  0.2404  0.1039  0.0121
17407TIP3    H173712   3.193   6.284   0.197  1.4561  0.8278 -0.7665
17407TIP3    H273713   3.218   6.225   0.334 -0.4815 -0.3867 -0.9041
17408TIP3   OH273714   1.555   3.090   5.974 -0.2422 -0.0340 -0.4829
17408TIP3    H173715   1.536   3.094   5.881 -1.6283  1.3595 -0.1764
17408TIP3    H273716   1.473   3.112   6.017  0.3991 -0.5196  1.0838
17409TIP3   OH273717   3.503   3.515  16.647  0.3151  0.3256 -0.1198
17409TIP3    H173718   3.498   3.582  16.714 -1.4347 -0.8625  1.0302
17409TIP3    H273719   3.502   3.563  16.564 -1.3268  1.7184  0.6501
17410TIP3   OH273720   2.849   2.226   4.924 -0.0950 -0.3082  0.4559
17410TIP3    H173721   2.839   2.318   4.950  0.8115  0.1659 -0.7791
17410TIP3    H273722   2.928   2.225   4.871 -0.2566 -1.7698  0.2152
17411TIP3   OH273723   4.887   2.510  14.582 -0.0934  0.2583 -0.0523
17411TIP3    H173724   4.905   2.429  14.629 -1.7802  0.2857  0.7331
17411TIP3    H273725   4.917   2.493  14.492 -0.7247 -1.3789  0.0068
17412TIP3   OH273726   3.292   1.143  15.266  0.4218  0.2534 -0.7607
17412TIP3    H173727   3.238   1.201  15.319 -1.7791 -1.7921 -0.5582
17412TIP3    H273728   3.242   1.061  15.262  2.7637 -1.2402 -2.0243
17413TIP3   OH273729   0.427   5.761  11.980 -0.1398  0.3089  0.7924
17413TIP3    H173730   0.380   5.677  11.983 -0.1014  0.2972  1.1997
17413TIP3    H273731   0.357   5.827  11.986 -0.3262  0.3569 -1.3729
17414TIP3   OH273732   6.812   2.953  12.987  0.5655 -0.4161  0.1189
17414TIP3    H173733   6.817   3.008  12.908  1.1650  1.0433  1.1320
17414TIP3    H273734   6.794   2.865  12.954 -0.0623  0.3124 -1.5910
17415TIP3   OH273735   1.423   2.108  10.954  0.5257  0.2852  0.0936
17415TIP3    H173736   1.377   2.058  10.887 -0.0635  1.0136 -0.0562
17415TIP3    H273737   1.462   2.042  11.011  0.9647 -0.3484 -0.9103
17416TIP3   OH273738   0.114   6.141   2.998  0.2711  0.2692 -0.6348
17416TIP3    H173739   0.209   6.127   3.007  0.3369 -1.0826 -2.6530
17416TIP3    H273740   0.098   6.136   2.904 -1.8638  0.1190 -0.3170
17417TIP3   OH273741   3.977   5.697  14.053 -0.3173  0.3165  0.0690
17417TIP3    H173742   3.930   5.665  13.976 -1.5426  1.0193  0.5014
17417TIP3    H273743   3.992   5.790  14.036  0.2528  0.2660  0.2683
17418TIP3   OH273744   3.915   0.269   5.450  0.1756  0.2124 -0.6698
17418TIP3    H173745   3.886   0.360   5.451 -0.3330  0.0608 -1.3827
17418TIP3    H273746   3.901   0.238   5.540 -1.4059  0.2897 -0.8729
17419TIP3   OH273747   5.767   4.836  14.998  0.1562 -0.2224  0.5895
17419TIP3    H173748   5.809   4.771  14.941  0.1422  0.9526 -0.8237
17419TIP3    H273749   5.840   4.886  15.035  0.1065  0.3868 -0.1108
17420TIP3   OH273750   5.330   3.459  14.632 -0.0256  0.0725  0.1325
17420TIP3    H173751   5.368   3.502  14.709  2.2717  0.2922 -1.0282
17420TIP3    H273752   5.374   3.375  14.627  0.9263  0.6257 -1.6793
17421TIP3   OH273753   5.690   3.921   3.632  0.1065 -0.2636 -0.9534
17421TIP3    H173754   5.627   3.984   3.668 -0.4562 -0.7225 -1.1245
17421TIP3    H273755   5.670   3.917   3.539  1.5085  0.8571 -1.3398
17422TIP3   OH273756   1.235   4.047   2.287 -0.1530 -0.3096  0.1999
17422TIP3    H173757   1.328   4.068   2.289  0.0535 -1.2121  0.3249
17422TIP3    H273758   1.192   4.124   2.326  0.7164 -0.8865  2.4086
17423TIP3   OH273759   1.021   6.643  13.335  0.5262  0.8377 -0.5228
17423TIP3    H173760   1.116   6.656  13.337  0.7396 -0.4457 -0.8692
17423TIP3    H273761   1.010   6.560  13.288 -0.6237 -0.3771  1.7475
17424TIP3   OH273762   5.753   6.697   2.947 -0.0566  0.6047  0.4505
17424TIP3    H173763   5.747   6.762   3.017 -1.2611 -0.4949  1.4355
17424TIP3    H273764   5.829   6.644   2.971 -0.5184  0.1763  1.0097
17425TIP3   OH273765   6.248   3.229  10.850 -0.1030 -0.0999 -0.5634
17425TIP3    H173766   6.237   3.192  10.762  0.2671 -0.9406 -0.2678
17425TIP3    H273767   6.327   3.281  10.844 -0.5821  0.5990 -0.9636
17426TIP3   OH273768   1.560   5.088  10.811 -0.2280 -0.2253  0.2291
17426TIP3    H173769   1.598   5.086  10.723 -2.7346 -1.9030 -0.9301
17426TIP3    H273770   1.514   5.172  10.815  1.0442  0.4824  0.5245
17427TIP3   OH273771   4.681   4.823  11.968 -0.1851 -0.0722 -0.2618
17427TIP3    H173772   4.685   4.858  12.057  0.5509 -1.4184  0.2618
17427TIP3    H273773   4.592   4.787  11.961 -0.5303  0.7671 -0.3835
17428TIP3   OH273774   3.747   0.186   2.276  0.6185  0.1101  0.0507
17428TIP3    H173775   3.683   0.118   2.300 -0.7975  0.4536 -2.3697
17428TIP3    H273776   3.739   0.252   2.345 -3.9119  1.5181 -1.4228
17429TIP3   OH273777   3.567   6.431  14.174 -0.3580 -0.3934  0.3364
17429TIP3    H173778   3.597   6.351  14.218  1.3471 -1.1645 -2.0095
17429TIP3    H273779   3.620   6.435  14.095 -1.8022  2.0418 -0.5953
17430TIP3   OH273780   0.597   2.150   0.283  0.5597  0.3187 -0.0188
17430TIP3    H173781   0.593   2.164   0.188 -1.2056 -0.1595 -0.0632
17430TIP3    H273782   0.577   2.057   0.294  1.8857  0.1101  0.7799
17431TIP3   OH273783   0.422   1.412   4.171  0.2592  0.1621  0.1277
17431TIP3    H173784   0.446   1.320   4.161  0.7848  0.1295  1.4270
17431TIP3    H273785   0.425   1.426   4.266  1.7756  1.9415 -0.1391
17432TIP3   OH273786   0.479   0.409   1.046 -0.4045 -0.6702 -0.5733
17432TIP3    H173787   0.404   0.468   1.037 -0.8194 -1.1074 -0.1134
17432TIP3    H273788   0.475   0.353   0.969 -0.9038 -1.0737 -0.2603
17433TIP3   OH273789   5.593   2.724  14.621 -0.9284 -0.0836  0.0496
17433TIP3    H173790   5.514   2.761  14.661 -1.0733  1.1382 -1.2617
17433TIP3    H273791   5.560   2.684  14.540 -0.3903 -0.8742  0.2122
17434TIP3   OH273792   3.141   0.303   4.507  0.0242 -0.7931  0.2929
17434TIP3    H173793   3.125   0.298   4.412 -0.3617  0.3869  0.2831
17434TIP3    H273794   3.236   0.309   4.514 -0.0344  1.5533 -0.1841
17435TIP3   OH273795   2.555   0.691   3.634 -0.1216 -0.3324  0.7174
17435TIP3    H173796   2.563   0.751   3.708  0.2848  0.2565  0.2022
17435TIP3    H273797   2.529   0.608   3.674  0.1360 -0.0345  1.5271
17436TIP3   OH273798   5.025   4.386   5.186 -0.3964 -0.2744  0.1964
17436TIP3    H173799   5.035   4.389   5.281 -1.4254  0.6302  0.2833
17436TIP3    H273800   5.083   4.454   5.153  1.9392 -2.2194 -0.0465
17437TIP3   OH273801   4.084   5.051   0.771 -0.3248 -0.2985  0.1674
17437TIP3    H173802   4.090   4.991   0.845  2.4072 -0.6926 -0.2651
17437TIP3    H273803   3.996   5.039   0.738 -1.6508 -0.1309  3.2827
17438TIP3   OH273804   4.832   5.545  11.043 -0.6008  0.3062 -0.0456
17438TIP3    H173805   4.921   5.569  11.068 -0.6353 -0.5292  0.9457
17438TIP3    H273806   4.793   5.626  11.009 -0.6239  1.6225  2.8347
17439TIP3   OH273807   3.228   1.739  14.706 -0.8465 -0.1867  0.1541
17439TIP3    H173808   3.297   1.805  14.703 -0.6383 -0.3312  1.3164
17439TIP3    H273809   3.270   1.659  14.672 -1.1112  0.2562 -1.2868
17440TIP3   OH273810   1.752   0.718   4.420 -0.0411  0.0616  0.2681
17440TIP3    H173811   1.755   0.641   4.364 -0.1166  0.7211 -0.6777
17440TIP3    H273812   1.681   0.700   4.482 -0.6623 -0.2493 -0.5203
17441TIP3   OH273813   0.258   0.499  15.169 -0.5793 -0.6275  0.5465
17441TIP3    H173814   0.289   0.439  15.101 -0.0436 -1.0887  1.1825
17441TIP3    H273815   0.292   0.462  15.250 -1.2630 -0.1157  1.0742
17442TIP3   OH273816   4.854   4.570  14.936  0.8517 -0.0080 -0.2456
17442TIP3    H173817   4.853   4.513  15.013 -1.9549 -0.1166 -0.2363
17442TIP3    H273818   4.918   4.638  14.958  0.5470 -0.3421  1.9799
17443TIP3   OH273819   2.567   4.530  15.978  0.5952  0.3537  0.3803
17443TIP3    H173820   2.472   4.524  15.989  0.2383  1.8547 -1.4073
17443TIP3    H273821   2.603   4.485  16.055 -1.5409 -0.3585  1.0331
17444TIP3   OH273822   1.578   0.535   1.921  0.4671 -0.3652  0.3912
17444TIP3    H173823   1.614   0.535   2.009  0.4950 -0.7427  0.3854
17444TIP3    H273824   1.494   0.579   1.929 -1.1741 -3.3456  1.3393
17445TIP3   OH273825   6.148   5.753  16.356 -0.5874  0.0766  0.2791
17445TIP3    H173826   6.148   5.660  16.377  0.9007  0.1476  0.6605
17445TIP3    H273827   6.117   5.796  16.436  0.6273  0.0278  0.7941
17446TIP3   OH273828   5.655   5.159   2.355  0.2278 -0.2652  0.0561
17446TIP3    H173829   5.580   5.161   2.415 -0.4777  1.5854 -0.8075
17446TIP3    H273830   5.695   5.073   2.369 -2.0539 -1.3118  0.5570
17447TIP3   OH273831   5.371   6.086   2.069  0.6375 -0.0171 -0.4658
17447TIP3    H173832   5.356   6.152   2.001  1.0195  1.2077  0.5965
17447TIP3    H273833   5.344   6.003   2.029 -1.0796  0.9445 -1.4013
17448TIP3   OH273834   3.840   2.872  14.048 -0.3993 -0.7731  0.1238
17448TIP3    H173835   3.842   2.867  13.952  0.2200  1.2010 -0.0130
17448TIP3    H273836   3.906   2.809  14.076  1.1836  0.3160 -0.9057
17449TIP3   OH273837   1.216   0.921  15.235  0.2055 -0.3018  0.2823
17449TIP3    H173838   1.134   0.891  15.275 -0.0096  0.2829  0.2777
17449TIP3    H273839   1.238   0.852  15.172  0.1980 -0.9089  0.9180
17450TIP3   OH273840   3.041   4.130  12.432  0.5539 -0.8048 -0.3002
17450TIP3    H173841   3.136   4.145  12.440  0.3556  0.1083  0.5594
17450TIP3    H273842   3.022   4.146  12.339  1.1781 -0.5975 -0.3978
17451TIP3   OH273843   3.963   4.165  11.470  0.5596 -0.7997  0.3443
17451TIP3    H173844   3.914   4.084  11.455 -2.3437  1.2029 -2.0484
17451TIP3    H273845   3.932   4.197  11.554 -2.0977  0.1765 -0.9079
17452TIP3   OH273846   6.804   1.371  12.315 -0.1850  0.0086 -0.3918
17452TIP3    H173847   6.731   1.429  12.297  0.2687  0.5330 -0.5639
17452TIP3    H273848   6.770   1.283  12.295 -1.6719 -0.1129  2.2682
17453TIP3   OH273849   2.235   5.502   3.834 -0.0840  0.7559  0.2865
17453TIP3    H173850   2.142   5.521   3.845 -0.5251 -1.3716  0.7692
17453TIP3    H273851   2.279   5.566   3.889 -1.1922  2.1497 -0.3631
17454TIP3   OH273852   1.469   4.534   0.012 -0.0813 -0.3048 -0.0948
17454TIP3    H173853   1.482   4.599   0.081  1.0815  0.5708 -1.1053
17454TIP3    H273854   1.381   4.501   0.027  0.0316  0.0870  1.6204
17455TIP3   OH273855   2.586   3.064   3.860  0.2187  0.0760 -0.4621
17455TIP3    H173856   2.557   3.092   3.773  0.6106  1.5229 -0.1627
17455TIP3    H273857   2.529   2.990   3.882 -0.5760  0.3508 -1.5114
17456TIP3   OH273858   1.805   2.294  12.469  0.7934 -0.0036 -0.1882
17456TIP3    H173859   1.750   2.256  12.537 -0.9829  1.6859 -0.5823
17456TIP3    H273860   1.758   2.276  12.387  0.3214  2.1423 -0.4564
17457TIP3   OH273861   4.822   5.087  15.197 -0.5537  0.0911 -0.1716
17457TIP3    H173862   4.897   5.146  15.205 -0.9538  0.4751  0.9172
17457TIP3    H273863   4.839   5.018  15.260 -0.9093 -0.0546 -0.2350
17458TIP3   OH273864   4.548   5.218   2.276 -0.4756  0.6284  0.2106
17458TIP3    H173865   4.570   5.161   2.350  1.1105  1.1178  0.1496
17458TIP3    H273866   4.564   5.306   2.308  0.6246  0.8283 -0.8077
17459TIP3   OH273867   5.225   4.198  13.219 -0.5645 -0.1593  0.2417
17459TIP3    H173868   5.291   4.134  13.243 -1.3650 -1.1648 -0.1878
17459TIP3    H273869   5.141   4.156  13.239 -1.0928  1.3549  1.4611
17460TIP3   OH273870   1.263   1.347   0.271  0.0265  0.3305  0.1205
17460TIP3    H173871   1.224   1.266   0.239  0.1341 -0.5303  2.0368
17460TIP3    H273872   1.195   1.388   0.324  0.0861  1.3386 -0.5579
17461TIP3   OH273873   0.239   4.504  11.304 -0.2592  0.1599 -0.5389
17461TIP3    H173874   0.199   4.526  11.220  1.0333 -1.2925 -1.6040
17461TIP3    H273875   0.278   4.586  11.334 -1.3429  0.8602 -0.9989
17462TIP3   OH273876   2.496   2.212   0.932 -0.3578 -0.4543 -0.5731
17462TIP3    H173877   2.554   2.230   1.006 -0.7553 -0.4111 -0.2706
17462TIP3    H273878   2.420   2.268   0.946  0.4600  1.1233 -2.1267
17463TIP3   OH273879   0.841   2.788   3.983 -0.3342 -0.4460 -0.4093
17463TIP3    H173880   0.890   2.821   4.058  0.8742 -1.9291 -0.4860
17463TIP3    H273881   0.859   2.851   3.913 -0.7107  0.4458  0.2830
17464TIP3   OH273882   2.235   3.381   5.538  0.2315  0.0092 -0.3066
17464TIP3    H173883   2.214   3.398   5.446  1.4151  1.6225 -0.3137
17464TIP3    H273884   2.279   3.460   5.568  0.1880 -0.6289  1.5682
17465TIP3   OH273885   4.863   2.111  12.643 -0.5568  0.2181  0.8226
17465TIP3    H173886   4.777   2.071  12.651 -0.9956  1.0749  0.5233
17465TIP3    H273887   4.888   2.134  12.732 -0.1395 -1.0215  1.0421
17466TIP3   OH273888   6.032   3.664   1.824 -0.1472  0.1909  0.3572
17466TIP3    H173889   6.037   3.578   1.865  0.6902  0.2362  0.3580
17466TIP3    H273890   5.942   3.669   1.790 -0.3218 -0.5189  0.7014
17467TIP3   OH273891   4.285   4.788  14.624 -0.5758 -0.3584  0.3943
17467TIP3    H173892   4.202   4.781  14.578 -0.0202  2.9550 -1.4013
17467TIP3    H273893   4.285   4.876  14.661  1.9339 -0.4489  0.7809
17468TIP3   OH273894   4.303   5.038  14.757 -0.3808 -0.4271  0.2475
17468TIP3    H173895   4.264   5.065  14.840 -0.0144  0.5195  0.1302
17468TIP3    H273896   4.387   5.085  14.754 -0.9257  0.5124 -1.2066
17469TIP3   OH273897   3.690   5.431   0.777  0.9374 -0.0754 -0.0020
17469TIP3    H173898   3.730   5.441   0.691  1.0692 -0.2227  0.0412
17469TIP3    H273899   3.685   5.519   0.812 -2.3992  0.5436 -1.6157
17470TIP3   OH273900   4.112   0.999  11.478 -0.3141  0.0919  0.6202
17470TIP3    H173901   4.132   0.915  11.518  2.4155  0.3898  0.1088
17470TIP3    H273902   4.093   0.978  11.387  2.5399  0.0711 -0.0829
17471TIP3   OH273903   1.287   2.484  16.061 -0.2388  0.3884  0.5202
17471TIP3    H173904   1.204   2.447  16.030  0.6634  1.0563 -3.0953
17471TIP3    H273905   1.263   2.572  16.093 -1.0583  0.2046  0.4468
17472TIP3   OH273906   2.289   3.757  12.398 -0.1887  0.2701  0.3837
17472TIP3    H173907   2.264   3.674  12.439  0.1472  0.5347  1.1597
17472TIP3    H273908   2.294   3.819  12.471  0.0536  0.8537 -0.1177
17473TIP3   OH273909   3.658   5.157  13.208  0.1764 -0.1977  0.0694
17473TIP3    H173910   3.571   5.121  13.192  0.7412 -1.0966 -1.1081
17473TIP3    H273911   3.686   5.118  13.291 -1.2934  1.6163  1.5024
17474TIP3   OH273912   5.466   6.556   3.566 -0.0226  0.2452 -0.1085
17474TIP3    H173913   5.388   6.571   3.512 -0.3194 -1.4247 -0.1895
17474TIP3    H273914   5.538   6.593   3.515 -0.1442 -2.1229 -2.1648
17475TIP3   OH273915   5.738   3.199  14.125  0.1721  0.3987 -0.0574
17475TIP3    H173916   5.822   3.188  14.169  0.3118 -0.2489 -0.4699
17475TIP3    H273917   5.704   3.110  14.115 -1.1403  0.7224  1.1707
17476TIP3   OH273918   6.749   2.289   0.228  0.5056 -0.7816 -0.6845
17476TIP3    H173919   6.781   2.316   0.314 -1.3564  0.8084 -0.4071
17476TIP3    H273920   6.661   2.255   0.246 -0.6090  1.1929 -2.1090
17477TIP3   OH273921   0.951   0.756  11.994 -0.1504  0.1721  0.1372
17477TIP3    H173922   0.889   0.797  12.055 -0.5844  1.6707 -1.2395
17477TIP3    H273923   0.909   0.673  11.971 -1.8455  1.2472 -0.9335
17478TIP3   OH273924   3.762   2.494  16.010 -0.6755  0.3316 -0.1187
17478TIP3    H173925   3.828   2.563  16.006 -0.5744  0.1763 -3.6188
17478TIP3    H273926   3.689   2.533  16.059  0.3434  2.0311  0.1027
17479TIP3   OH273927   4.217   5.863   1.661 -0.4643  0.0816 -0.2904
17479TIP3    H173928   4.213   5.924   1.734  0.3952 -1.4131  1.0567
17479TIP3    H273929   4.159   5.791   1.687 -0.4161 -0.3151 -1.2367
17480TIP3   OH273930   4.425   1.833  17.082 -0.0251  0.3211  0.2103
17480TIP3    H173931   4.407   1.795  16.996  2.6400 -4.0044  1.2263
17480TIP3    H273932   4.515   1.865  17.076  0.0250  0.4090  1.2527
17481TIP3   OH273933   6.169   0.836  15.012  0.2146 -0.3736  0.4599
17481TIP3    H173934   6.221   0.913  14.990 -1.1787  1.0222  1.7877
17481TIP3    H273935   6.162   0.787  14.930  0.1789  1.5140 -0.7128
17482TIP3   OH273936   2.918   1.162  15.551 -0.1534  0.5619  0.5981
17482TIP3    H173937   2.949   1.072  15.548  0.7611  0.8816 -0.2265
17482TIP3    H273938   2.987   1.213  15.508 -1.2734  1.4772 -0.1934
17483TIP3   OH273939   5.552   3.856   4.074 -0.1775 -0.7179 -0.2069
17483TIP3    H173940   5.538   3.949   4.056 -2.2737 -0.6639  1.3367
17483TIP3    H273941   5.595   3.823   3.995 -1.8966  0.9932 -1.9780
17484TIP3   OH273942   3.337   0.417   5.848  0.3391  0.4223 -0.3963
17484TIP3    H173943   3.295   0.331   5.854  0.5901  0.3258  0.0618
17484TIP3    H273944   3.323   0.456   5.934  2.4712 -0.2335  0.3178
17485TIP3   OH273945   4.304   2.137  13.979 -0.3684  0.2739  0.4153
17485TIP3    H173946   4.383   2.089  13.954  0.7175  1.1714  1.9150
17485TIP3    H273947   4.236   2.104  13.920  1.3158  0.1859 -1.5930
17486TIP3   OH273948   1.080   2.789   3.609  0.0955  0.3892  0.3428
17486TIP3    H173949   0.988   2.812   3.623  0.2226  0.6017  0.8398
17486TIP3    H273950   1.104   2.838   3.530 -0.5218 -0.5436 -0.4512
17487TIP3   OH273951   1.140   0.018  15.620  0.5650  0.1560 -0.1952
17487TIP3    H173952   1.129   0.047  15.530 -1.8199  1.1232  0.3517
17487TIP3    H273953   1.109  -0.073  15.620  0.4255  0.2031 -0.3164
17488TIP3   OH273954   5.169   3.104  16.724  0.2380  0.0787 -0.2074
17488TIP3    H173955   5.255   3.139  16.747  1.3133 -0.3892 -3.0618
17488TIP3    H273956   5.155   3.132  16.633 -2.6262  0.0991  0.1473
17489TIP3   OH273957   0.599   1.414  17.215  0.5708  0.0731  0.2324
17489TIP3    H173958   0.594   1.328  17.257  2.4120 -0.4711 -0.5290
17489TIP3    H273959   0.688   1.445  17.235  0.3018  1.3174 -0.4052
17490TIP3   OH273960   3.785   5.203  16.148  0.2690  0.2574 -0.5428
17490TIP3    H173961   3.728   5.129  16.166  1.0401 -0.5153 -1.1961
17490TIP3    H273962   3.726   5.279  16.145 -1.0140 -0.7371 -2.8694
17491TIP3   OH273963   0.448   4.477  14.207 -0.1909  0.0889  0.0679
17491TIP3    H173964   0.374   4.418  14.193  0.1165 -0.3180  0.1453
17491TIP3    H273965   0.509   4.427  14.261  0.8168 -0.1472 -1.2397
17492TIP3   OH273966   6.390   0.308  13.971  0.1842 -0.0007 -0.7432
17492TIP3    H173967   6.478   0.323  13.934  0.2029  2.5718  0.1569
17492TIP3    H273968   6.385   0.213  13.983  4.2437 -0.0532  2.4509
17493TIP3   OH273969   5.391   6.715   2.083 -0.4875 -0.0479  0.2604
17493TIP3    H173970   5.422   6.790   2.034  0.7493 -0.1783  0.8225
17493TIP3    H273971   5.296   6.716   2.071 -0.2875  0.3158 -1.5428
17494TIP3   OH273972   4.490   1.762  11.750  0.3904 -0.2017 -0.1691
17494TIP3    H173973   4.435   1.733  11.823  1.5306 -1.6732  0.1451
17494TIP3    H273974   4.452   1.718  11.674  0.0014  0.2940 -0.2702
17495TIP3   OH273975   1.935   3.508   1.375  0.5624 -0.0228  0.0932
17495TIP3    H173976   2.008   3.446   1.385  0.6081  0.0919  0.4622
17495TIP3    H273977   1.882   3.496   1.453 -1.3960 -2.1485 -1.4308
17496TIP3   OH273978   6.157   4.013   2.493 -0.1455 -0.8051  0.2608
17496TIP3    H173979   6.230   4.027   2.433  0.7420 -3.6791  0.5128
17496TIP3    H273980   6.197   4.003   2.579 -1.0509 -0.3874  0.7531
17497TIP3   OH273981   4.944   1.981  11.436 -0.5036  0.2146 -0.4587
17497TIP3    H173982   4.955   1.986  11.341 -0.0542  0.5468 -0.3941
17497TIP3    H273983   4.875   1.917  11.449 -1.4984  1.1208 -1.0636
17498TIP3   OH273984   3.746   2.307  13.146 -0.2403  0.1932 -0.2945
17498TIP3    H173985   3.769   2.399  13.132 -2.7676  1.0062  0.2281
17498TIP3    H273986   3.729   2.273  13.058  2.4131 -0.3731 -0.6696
17499TIP3   OH273987   3.110   3.882  13.480 -0.1009 -0.3991 -0.3335
17499TIP3    H173988   3.128   3.944  13.551  0.9844 -0.6789 -0.3488
17499TIP3    H273989   3.189   3.883  13.426 -0.6419 -0.7131 -1.1563
17500TIP3   OH273990   4.691   1.544   4.694 -0.2840  0.1189 -0.7922
17500TIP3    H173991   4.741   1.624   4.686  0.4197 -0.0860  1.0026
17500TIP3    H273992   4.741   1.478   4.646  0.5144  0.2063 -0.1042
17501TIP3   OH273993   3.029   3.305  12.715  0.4027 -0.2173  0.1042
17501TIP3    H173994   3.118   3.297  12.750  0.3920 -1.1413 -0.0425
17501TIP3    H273995   3.016   3.399  12.701  1.9783 -0.1845 -1.4849
17502TIP3   OH273996   6.435   1.237  13.936  0.7056 -0.4250 -0.0951
17502TIP3    H173997   6.400   1.280  13.858  1.0165 -0.8061 -0.4500
17502TIP3    H273998   6.358   1.200  13.980  0.3012  1.3274  0.7614
17503TIP3   OH273999   4.660   6.751   5.119  0.1517 -0.4823  0.1412
17503TIP3    H174000   4.698   6.826   5.071 -0.8709 -0.5957 -0.8856
17503TIP3    H274001   4.668   6.775   5.211  1.6873 -0.0134 -0.0902
17504TIP3   OH274002   0.305   1.678   5.644 -0.4572 -0.1913 -0.7292
17504TIP3    H174003   0.321   1.618   5.717 -0.8552 -0.2115 -0.6605
17504TIP3    H274004   0.391   1.717   5.627  0.0010 -1.4228 -1.3546
17505TIP3   OH274005   0.209   6.059  11.613  0.3281  0.0824 -0.2876
17505TIP3    H174006   0.232   6.145  11.650 -0.6276  0.2667 -0.1057
17505TIP3    H274007   0.128   6.075  11.564 -0.2397 -0.8604  0.3243
17506TIP3   OH274008   6.098   6.470   5.183 -0.1438 -0.0400  0.0969
17506TIP3    H174009   6.031   6.461   5.250 -0.1062  0.1938  0.1676
17506TIP3    H274010   6.121   6.563   5.184 -0.3616  0.0205 -0.4496
17507TIP3   OH274011   2.070   3.597   2.771 -0.0252  0.1901  0.0077
17507TIP3    H174012   2.146   3.548   2.741 -0.4459  0.2415 -1.1798
17507TIP3    H274013   2.099   3.638   2.852  1.8218  1.7008 -1.3236
17508TIP3   OH274014   4.297   6.022  16.149 -0.5642 -0.2393  0.0276
17508TIP3    H174015   4.332   5.963  16.216 -1.7098  0.6302  1.4544
17508TIP3    H274016   4.254   5.963  16.086  2.1184 -1.2055 -1.0376
17509TIP3   OH274017   1.652   2.020   3.750 -0.3578 -0.0239  0.3698
17509TIP3    H174018   1.655   2.094   3.810  0.9998 -0.3907  0.7793
17509TIP3    H274019   1.596   1.956   3.793 -2.3854  1.0904 -0.4324
17510TIP3   OH274020   4.328   1.748   5.680  0.0708  0.0321  0.7264
17510TIP3    H174021   4.317   1.840   5.706 -0.0558  0.8638 -1.9304
17510TIP3    H274022   4.279   1.741   5.598  0.1958 -2.3982  0.8012
17511TIP3   OH274023   2.672   2.775   2.327 -0.2816  0.0880  0.0856
17511TIP3    H174024   2.641   2.707   2.268 -1.7046 -0.8575  1.8197
17511TIP3    H274025   2.616   2.850   2.309  1.2062  0.8206 -1.7417
17512TIP3   OH274026   3.319   3.966  11.197  0.0479 -0.3255 -0.2733
17512TIP3    H174027   3.275   3.920  11.268  0.3008 -1.5943 -0.9237
17512TIP3    H274028   3.343   4.051  11.235 -3.2271  0.6257  0.0462
17513TIP3   OH274029   5.845   5.995   5.512 -0.1928  0.0945 -0.1828
17513TIP3    H174030   5.787   5.965   5.442 -0.9374  1.1455 -0.0361
17513TIP3    H274031   5.822   5.942   5.588  0.3420 -0.7724 -0.6143
17514TIP3   OH274032   4.895   0.041  13.090  0.2835 -0.0201 -0.0097
17514TIP3    H174033   4.942   0.075  13.014 -1.2321 -1.0722 -1.4727
17514TIP3    H274034   4.863  -0.045  13.062  1.7680 -1.6117  2.6555
17515TIP3   OH274035   2.861   1.815   5.081  0.9284  0.2757 -0.2934
17515TIP3    H174036   2.822   1.744   5.132  0.1234 -0.7746 -2.2508
17515TIP3    H274037   2.839   1.895   5.129 -0.4259 -0.6019  0.5935
17516TIP3   OH274038   5.352   2.797   0.996  0.5169 -0.4207 -0.1263
17516TIP3    H174039   5.347   2.809   1.091  0.0339 -0.8202 -0.0977
17516TIP3    H274040   5.445   2.810   0.976  0.6382 -0.4033  0.4122
17517TIP3   OH274041   0.929   6.747  13.571  0.4700 -0.4388 -0.4309
17517TIP3    H174042   0.858   6.812  13.571  1.2001  0.3796 -0.3095
17517TIP3    H274043   0.941   6.724  13.479 -0.8516 -1.6166 -0.3418
17518TIP3   OH274044   4.694   6.098  11.707  0.2577  0.8370 -0.0696
17518TIP3    H174045   4.680   6.074  11.798  1.9886  1.0075  0.2613
17518TIP3    H274046   4.782   6.135  11.704  0.8663 -0.5678 -2.0634
17519TIP3   OH274047   2.516   0.303  11.221  0.3136  0.5867  0.1890
17519TIP3    H174048   2.539   0.363  11.292 -1.1562  0.6867  0.6131
17519TIP3    H274049   2.500   0.219  11.265  0.9397  0.2411 -0.2264
17520TIP3   OH274050   4.217   6.544   0.372 -0.1652 -0.2025  0.1344
17520TIP3    H174051   4.200   6.573   0.283 -1.4825  0.2170  0.4926
17520TIP3    H274052   4.309   6.565   0.387 -0.6451  2.4604 -0.1592
17521TIP3   OH274053   2.274   6.512   2.427  0.2125  0.3729  0.3051
17521TIP3    H174054   2.230   6.475   2.503 -2.0949 -2.4283 -2.1341
17521TIP3    H274055   2.365   6.524   2.455 -0.6053 -0.0851  3.5498
17522TIP3   OH274056   0.026   6.091  12.281  0.2658 -0.1170  0.1033
17522TIP3    H174057   0.079   6.115  12.205  0.3746  1.1864  0.5639
17522TIP3    H274058  -0.064   6.095  12.249  0.3721 -0.8848 -0.2997
17523TIP3   OH274059   3.716   2.868   4.049 -0.3934  0.2349  0.1530
17523TIP3    H174060   3.750   2.941   4.101  0.5965 -0.2185  0.1701
17523TIP3    H274061   3.691   2.908   3.965 -0.7695  0.7499  0.5047
17524TIP3   OH274062   1.378   5.843   3.177 -0.1236 -0.2485 -0.4383
17524TIP3    H174063   1.359   5.917   3.120  0.1168  0.0011 -0.2011
17524TIP3    H274064   1.293   5.802   3.193 -0.0146 -1.2095 -2.1617
17525TIP3   OH274065   2.079   1.979  16.920 -0.2269  0.5123  0.4030
17525TIP3    H174066   2.101   1.979  17.014  0.7940 -0.4003  0.1892
17525TIP3    H274067   2.141   2.041  16.882  1.0146 -0.8865  0.0243
17526TIP3   OH274068   3.700   0.693   4.720 -0.0563 -0.0811 -0.0385
17526TIP3    H174069   3.609   0.665   4.722  0.5809 -2.3134 -0.0249
17526TIP3    H274070   3.735   0.665   4.805  0.9943 -0.5427 -0.6139
17527TIP3   OH274071   4.314   4.896   4.113 -0.1711  0.1581 -0.5712
17527TIP3    H174072   4.329   4.904   4.019 -1.3210 -1.3781 -0.9358
17527TIP3    H274073   4.328   4.984   4.148  0.6475  0.6674 -2.1172
17528TIP3   OH274074   6.617   3.131  16.760 -0.3020 -0.5537  0.5528
17528TIP3    H174075   6.710   3.107  16.757 -1.0791 -4.0162  0.1377
17528TIP3    H274076   6.587   3.122  16.670 -1.2902 -0.5791  0.8732
17529TIP3   OH274077   6.076   0.651   3.517 -0.4280 -0.1918 -0.0659
17529TIP3    H174078   6.009   0.690   3.461  0.2440 -1.7500 -2.0430
17529TIP3    H274079   6.158   0.670   3.473  0.0226 -2.5637 -0.3884
17530TIP3   OH274080   4.416   0.812  12.370  0.4732  0.1090 -0.3085
17530TIP3    H174081   4.401   0.902  12.401 -1.1527 -0.4852  0.7752
17530TIP3    H274082   4.509   0.797  12.387  0.5873  1.3134  0.2766
17531TIP3   OH274083   0.241   5.799   0.263  0.1365 -0.8919  0.5940
17531TIP3    H174084   0.284   5.714   0.253  0.5624 -0.5823 -0.3476
17531TIP3    H274085   0.179   5.803   0.190  0.6142 -0.1221  0.2053
17532TIP3   OH274086   0.918   1.673  10.279  0.0017 -0.0157  0.1373
17532TIP3    H174087   0.904   1.654  10.371 -0.3351  1.1336  0.3379
17532TIP3    H274088   0.838   1.717  10.251 -0.6925 -2.0073 -1.2025
17533TIP3   OH274089   3.240   3.194  11.078  0.2920  0.1568  1.0246
17533TIP3    H174090   3.210   3.103  11.075 -0.8430  0.5257  0.3923
17533TIP3    H274091   3.282   3.209  10.993  1.1821  0.0097  1.4284
17534TIP3   OH274092   4.961   1.590  11.601 -0.4321  0.5536  0.4925
17534TIP3    H174093   5.025   1.659  11.619  1.4543 -0.6650 -1.1570
17534TIP3    H274094   4.941   1.600  11.508  0.8916 -1.8420 -0.1209
17535TIP3   OH274095   4.116   2.203  14.748 -0.1885  0.0853 -0.2027
17535TIP3    H174096   4.080   2.176  14.833  0.3719  0.1127  0.0497
17535TIP3    H274097   4.040   2.224  14.695 -0.6162 -1.1636 -0.1311
17536TIP3   OH274098   3.890   6.391  11.781 -0.2469  0.3950  0.5936
17536TIP3    H174099   3.970   6.406  11.831  0.8516  0.7235 -1.1424
17536TIP3    H274100   3.871   6.475  11.740 -0.8357  0.0281  0.0898
17537TIP3   OH274101   2.720   5.344   1.603 -0.0749 -0.5396  0.2009
17537TIP3    H174102   2.809   5.334   1.637  0.2377 -2.4934 -1.0004
17537TIP3    H274103   2.726   5.314   1.512 -1.8991 -0.4108  0.0071
17538TIP3   OH274104   6.097   3.343  12.082 -0.2414  0.1667  0.2735
17538TIP3    H174105   6.151   3.332  12.160 -0.4238  0.2657  0.4115
17538TIP3    H274106   6.007   3.342  12.114 -0.3057  0.5931  0.1104
17539TIP3   OH274107   4.064   3.785  13.077 -0.5335 -0.1238 -0.2602
17539TIP3    H174108   4.042   3.817  13.165 -0.3290 -2.0451  0.5454
17539TIP3    H274109   3.984   3.742  13.047 -0.5468  0.3696 -0.9799
17540TIP3   OH274110   4.993   2.777   1.866  0.4758 -0.0449  0.4558
17540TIP3    H174111   4.976   2.856   1.917  1.1312  0.6002 -0.2941
17540TIP3    H274112   5.018   2.711   1.931 -0.9134  0.0926  1.1746
17541TIP3   OH274113   5.459   1.773   0.995  0.5164 -0.2711  0.3697
17541TIP3    H174114   5.370   1.805   1.006  0.4315 -0.8450  1.5459
17541TIP3    H274115   5.453   1.706   0.927 -0.2132 -1.2382  1.3511
17542TIP3   OH274116   1.475   4.505  12.746 -0.0475 -0.2816  0.4402
17542TIP3    H174117   1.506   4.524  12.657 -1.1651 -1.3750 -0.2111
17542TIP3    H274118   1.459   4.591  12.784 -1.8257  0.2311 -1.2773
17543TIP3   OH274119   1.597   0.399  16.902  0.1015  0.5110  0.3970
17543TIP3    H174120   1.600   0.313  16.944 -0.3811  1.2734  2.0693
17543TIP3    H274121   1.568   0.459  16.971 -2.0470  1.6336 -1.3199
17544TIP3   OH274122   2.636   1.730  13.063 -0.7140  0.1662  0.3386
17544TIP3    H174123   2.648   1.635  13.064  0.9949  0.3073  2.9434
17544TIP3    H274124   2.721   1.765  13.036 -1.4993  1.0325 -1.2165
17545TIP3   OH274125   3.284   2.514  12.774 -0.9846 -0.0395 -0.0852
17545TIP3    H174126   3.288   2.577  12.701 -0.4859  1.2918  1.0547
17545TIP3    H274127   3.219   2.551  12.833 -3.0127 -2.2203 -0.8058
17546TIP3   OH274128   0.493   1.164   1.040  0.1979  0.3679 -0.0754
17546TIP3    H174129   0.446   1.242   1.067 -0.1744 -0.0398  0.4675
17546TIP3    H274130   0.453   1.138   0.957 -0.7369 -0.1352  0.5181
17547TIP3   OH274131   0.007   0.273   4.888 -0.2888  0.1506 -0.2078
17547TIP3    H174132  -0.007   0.288   4.982 -2.4093 -1.9638 -0.0853
17547TIP3    H274133  -0.061   0.325   4.845 -0.3372 -0.1189 -0.4614
17548TIP3   OH274134   1.636   4.066  15.169 -0.2053  0.1472  0.5052
17548TIP3    H174135   1.712   4.008  15.174  1.3364  1.5913 -3.0918
17548TIP3    H274136   1.669   4.152  15.191 -0.7187  0.7799 -1.0225
17549TIP3   OH274137   0.028   1.550   0.896  0.3687  0.1562  0.2682
17549TIP3    H174138  -0.047   1.591   0.939 -1.1167 -0.7647 -1.3139
17549TIP3    H274139   0.003   1.547   0.803  2.0133 -0.9475 -0.1696
17550TIP3   OH274140   0.812   1.782   3.419 -0.9143 -0.1252 -0.0076
17550TIP3    H174141   0.837   1.744   3.504 -0.7047  0.2475  0.0981
17550TIP3    H274142   0.751   1.718   3.382 -1.3502 -0.0812  0.6139
17551TIP3   OH274143   0.218   0.315   1.713  0.6060 -0.2044  0.4309
17551TIP3    H174144   0.212   0.268   1.630 -0.3647  1.2063 -0.3301
17551TIP3    H274145   0.303   0.289   1.749  0.9791 -0.9444 -0.9199
17552TIP3   OH274146   2.369   5.313  15.466 -0.0040  0.4120  0.0069
17552TIP3    H174147   2.424   5.235  15.454 -4.2131 -3.0920  0.7949
17552TIP3    H274148   2.391   5.343  15.554  1.3643 -0.1949 -0.0935
17553TIP3   OH274149   6.143   3.478   3.454 -0.2302  0.2419  0.2676
17553TIP3    H174150   6.221   3.497   3.403  0.7609  2.4522  2.3958
17553TIP3    H274151   6.084   3.551   3.437 -0.2417  0.5583  1.5173
17554TIP3   OH274152   0.012   4.274  15.465 -0.2228 -0.0197 -0.4004
17554TIP3    H174153  -0.064   4.222  15.437  0.0757 -1.1106  0.7148
17554TIP3    H274154  -0.020   4.329  15.536 -0.0529 -0.2480 -0.1435
17555TIP3   OH274155   1.968   2.843  11.002 -0.4538  0.5398 -0.5491
17555TIP3    H174156   1.929   2.755  11.004  1.8645 -0.5309  0.4070
17555TIP3    H274157   1.904   2.895  10.953 -2.2857 -1.4624 -0.4745
17556TIP3   OH274158   2.658   3.638  12.248  0.1707 -0.1285  0.6283
17556TIP3    H174159   2.621   3.554  12.224 -2.2892  1.3974 -1.3798
17556TIP3    H274160   2.634   3.649  12.340  1.2856 -1.9215  1.1851
17557TIP3   OH274161   3.314   3.830  16.515 -0.1358 -0.6347  0.1663
17557TIP3    H174162   3.372   3.876  16.575 -0.5886 -1.7101  1.4852
17557TIP3    H274163   3.343   3.857  16.428 -0.3473  2.0702  0.8411
17558TIP3   OH274164   3.741   1.426  15.409 -0.6315  0.1658 -0.3114
17558TIP3    H174165   3.677   1.356  15.393 -0.6923 -0.0098  0.5911
17558TIP3    H274166   3.693   1.507  15.389 -1.6716  0.1356  1.7327
17559TIP3   OH274167   4.938   4.331  11.185 -0.1509  0.4565  0.4149
17559TIP3    H174168   4.897   4.386  11.119 -1.8866 -1.3403 -0.0977
17559TIP3    H274169   5.013   4.291  11.140 -0.2065  0.6907  0.1134
17560TIP3   OH274170   1.618   2.377  15.369  0.5712 -0.2704  0.0147
17560TIP3    H174171   1.554   2.420  15.425 -0.4351  0.3248 -1.5259
17560TIP3    H274172   1.669   2.321  15.428 -1.4298 -0.8447  1.2746
17561TIP3   OH274173   5.850   5.022  11.848  0.6392 -0.4107  0.3614
17561TIP3    H174174   5.833   5.116  11.852 -0.6300 -0.4924 -1.6026
17561TIP3    H274175   5.893   5.008  11.764 -0.7518 -1.7377 -0.2024
17562TIP3   OH274176   6.157   0.417   2.267  0.4099  1.0364 -0.3867
17562TIP3    H174177   6.200   0.503   2.264 -1.2880  2.0576  1.6325
17562TIP3    H274178   6.066   0.437   2.290  0.1437 -1.3555  0.9844
17563TIP3   OH274179   5.715   1.021  14.841  0.8713  0.6090 -0.6292
17563TIP3    H174180   5.787   0.984  14.893  0.0142  0.5317  0.5598
17563TIP3    H274181   5.717   0.971  14.759  1.5107 -0.1160 -0.1937
17564TIP3   OH274182   4.122   5.609   1.641 -0.3909 -0.3471  0.6206
17564TIP3    H174183   4.179   5.543   1.682 -0.9580 -0.8028  0.6913
17564TIP3    H274184   4.160   5.624   1.555  1.0252  0.8784  1.4110
17565TIP3   OH274185   4.357   3.627  13.847  0.3816 -0.5308 -0.3734
17565TIP3    H174186   4.296   3.699  13.831  0.3422 -0.4265  0.2312
17565TIP3    H274187   4.330   3.590  13.931  2.0326  0.4383  0.6292
17566TIP3   OH274188   4.515   5.227  13.426  0.1403  0.6482  0.0920
17566TIP3    H174189   4.470   5.310  13.443  1.7624  2.0765 -2.0050
17566TIP3    H274190   4.567   5.244  13.347 -1.0990 -2.9947 -1.7566
17567TIP3   OH274191   3.418   6.393  14.626  0.8646 -0.3099 -0.4112
17567TIP3    H174192   3.463   6.472  14.596  0.8025  0.2143  0.8315
17567TIP3    H274193   3.360   6.424  14.695  0.7128 -1.4218 -0.0306
17568TIP3   OH274194   5.278   2.520  10.871 -0.0644  0.9178  0.3760
17568TIP3    H174195   5.317   2.513  10.783  0.4921 -0.5293  0.7018
17568TIP3    H274196   5.319   2.598  10.909 -0.3917  1.6251 -0.6737
17569TIP3   OH274197   0.742   1.483  15.939 -0.2166  0.3177 -0.5676
17569TIP3    H174198   0.707   1.499  16.026  0.9235  0.7849 -0.1834
17569TIP3    H274199   0.744   1.569  15.897  4.1904  1.1756  0.8606
17570TIP3   OH274200   3.128   2.879  11.438 -0.1546 -0.0133  0.4779
17570TIP3    H174201   3.193   2.886  11.508 -0.2827  1.4259  0.4784
17570TIP3    H274202   3.044   2.880  11.484 -0.2344 -2.7205  0.5471
17571TIP3   OH274203   5.796   2.015  16.328  0.2847  0.3524  0.8433
17571TIP3    H174204   5.864   2.007  16.261  1.8115 -0.3980  2.4062
17571TIP3    H274205   5.717   2.039  16.279  1.7926  1.9307 -0.9631
17572TIP3   OH274206   6.035   3.116   0.071 -0.5390  0.4875  0.1702
17572TIP3    H174207   5.940   3.103   0.067 -0.4287 -0.2848 -0.2022
17572TIP3    H274208   6.059   3.090   0.160 -0.6540  0.5370  0.2165
17573TIP3   OH274209   2.468   5.175  17.170  0.3229  0.0673  0.2643
17573TIP3    H174210   2.395   5.229  17.201  0.5227  0.8143 -0.5015
17573TIP3    H274211   2.427   5.094  17.140 -0.1457  0.3175  0.2167
17574TIP3   OH274212   5.036   2.636  16.368  0.2792 -0.1133 -0.1557
17574TIP3    H174213   5.126   2.654  16.339  1.4553  0.7903  3.4292
17574TIP3    H274214   5.032   2.541  16.375  1.9116 -0.1025  1.9457
17575TIP3   OH274215   6.006   0.309   4.986  0.5322  0.5511 -0.3549
17575TIP3    H174216   5.915   0.281   4.995  0.2421  0.9790 -1.8016
17575TIP3    H274217   6.056   0.227   4.982  0.0945  0.2960 -0.6432
17576TIP3   OH274218   5.098   2.391  15.459  0.4011  0.1110  0.4866
17576TIP3    H174219   5.182   2.371  15.500  2.2782 -0.2919 -3.1672
17576TIP3    H274220   5.052   2.306  15.457  0.6656 -0.0448  0.9298
17577TIP3   OH274221   6.083   6.706   4.535  0.0132  0.5906 -0.0264
17577TIP3    H174222   6.065   6.800   4.537  0.5414  0.6914  0.2436
17577TIP3    H274223   5.999   6.666   4.512 -0.0921  1.1602 -0.6686
17578TIP3   OH274224   2.914   5.550   6.241 -0.6717  0.1687 -0.5500
17578TIP3    H174225   2.828   5.572   6.278  0.3211  1.9346  0.8794
17578TIP3    H274226   2.941   5.471   6.288 -1.8991 -1.0308 -1.7525
17579TIP3   OH274227   5.221   0.005   5.581 -0.0225  0.5146  0.0942
17579TIP3    H174228   5.156  -0.062   5.599  0.5641  0.2538  1.3782
17579TIP3    H274229   5.225   0.057   5.662  1.8389  0.0998  0.3232
17580TIP3   OH274230   4.275   5.912   2.743 -0.0085  0.2041 -0.0080
17580TIP3    H174231   4.232   5.914   2.828 -1.2345 -0.1955 -0.5908
17580TIP3    H274232   4.218   5.856   2.689  1.7020 -1.0735 -0.5737
17581TIP3   OH274233   5.854   1.171  14.324  0.7568 -0.0974 -0.5990
17581TIP3    H174234   5.939   1.191  14.362  0.3344 -0.2061  0.4518
17581TIP3    H274235   5.791   1.216  14.381  0.0591 -0.8348 -0.7604
17582TIP3   OH274236   0.787   3.965  15.913 -0.1866  0.4261 -0.5024
17582TIP3    H174237   0.847   4.036  15.936  1.0759 -0.4554 -1.0076
17582TIP3    H274238   0.750   3.937  15.997  0.3215  0.7869 -0.1524
17583TIP3   OH274239   5.290   6.594  12.688  0.2083 -0.3986  0.4414
17583TIP3    H174240   5.221   6.634  12.635  0.9481 -1.4341 -1.4189
17583TIP3    H274241   5.328   6.667  12.737 -1.0222  0.4854  0.1287
17584TIP3   OH274242   5.945   4.928   5.297 -0.1496  0.0122 -0.2440
17584TIP3    H174243   5.877   4.922   5.365  0.3360  0.4602  0.2950
17584TIP3    H274244   6.011   4.865   5.324 -0.1727 -0.1459 -0.5584
17585TIP3   OH274245   3.738   2.402   6.163  0.3437  0.5497 -0.3747
17585TIP3    H174246   3.756   2.496   6.163 -0.5870  0.8859 -3.8807
17585TIP3    H274247   3.644   2.396   6.181  0.7201  0.0739  1.6651
17586TIP3   OH274248   4.187   3.729   6.013 -0.2360 -0.6794  0.6678
17586TIP3    H174249   4.245   3.654   6.001 -0.9915 -0.9190 -2.0931
17586TIP3    H274250   4.212   3.791   5.945 -0.5417  1.0391  2.0167
17587TIP3   OH274251   0.149   3.785  16.694  0.4326  0.3235 -0.2533
17587TIP3    H174252   0.161   3.715  16.630  0.0126  0.6472 -0.6867
17587TIP3    H274253   0.153   3.740  16.779 -1.7263 -0.5592 -0.5483
17588TIP3   OH274254   2.908   2.605   2.921  0.1424 -0.1549  0.3810
17588TIP3    H174255   2.819   2.633   2.898 -0.3457  1.7463  3.8771
17588TIP3    H274256   2.921   2.523   2.873 -2.2942  1.0190 -2.5891
17589TIP3   OH274257   2.363   5.131  14.445  1.2503 -0.2648 -0.2991
17589TIP3    H174258   2.441   5.177  14.476  1.9595 -0.3800 -1.8363
17589TIP3    H274259   2.295   5.199  14.441  1.7877  0.2549 -0.7654
17590TIP3   OH274260   3.114   1.483   4.285 -0.0213  0.2243 -0.0726
17590TIP3    H174261   3.164   1.562   4.261  0.1865 -0.3414 -1.6216
17590TIP3    H274262   3.083   1.448   4.202 -0.3182 -1.2140  0.6095
17591TIP3   OH274263   5.249   0.933   5.496 -0.4660 -0.0316 -0.2461
17591TIP3    H174264   5.168   0.886   5.478 -1.5489  1.6343 -0.0006
17591TIP3    H274265   5.299   0.874   5.553 -1.6497 -0.9631 -0.1256
17592TIP3   OH274266   6.128   1.898   2.765 -0.0881  0.3105 -0.0255
17592TIP3    H174267   6.062   1.943   2.817  1.1656  3.9818 -1.3321
17592TIP3    H274268   6.211   1.919   2.807  0.5973 -0.4344 -0.9572
17593TIP3   OH274269   5.691   5.660  11.676  0.0226  0.1175 -0.1737
17593TIP3    H174270   5.692   5.736  11.617  0.7359  0.5240  0.3544
17593TIP3    H274271   5.603   5.622  11.664  0.7861 -0.9992 -2.9654
17594TIP3   OH274272   0.551   6.042  15.340  0.2657 -0.1948  0.1693
17594TIP3    H174273   0.459   6.017  15.354  0.3374 -0.8003 -0.4063
17594TIP3    H274274   0.547   6.118  15.282  0.1594 -0.9893 -0.8940
17595TIP3   OH274275   6.622   4.044  17.286  0.3799  0.4583 -0.7790
17595TIP3    H174276   6.634   4.052  17.192 -2.6539 -0.9771 -1.3955
17595TIP3    H274277   6.536   4.081  17.303  0.5973  0.1228  1.3453
17596TIP3   OH274278   0.394   5.138   4.940 -0.0339 -0.3787 -0.0216
17596TIP3    H174279   0.460   5.202   4.913  0.7618 -1.4482 -0.7173
17596TIP3    H274280   0.352   5.111   4.858 -0.8099 -0.2777  0.3366
17597TIP3   OH274281   3.803   6.455   0.249  0.7470  0.2476 -0.4954
17597TIP3    H174282   3.763   6.372   0.223 -0.4125  0.7932 -0.5192
17597TIP3    H274283   3.853   6.434   0.328 -1.1766 -0.1024  0.7002
17598TIP3   OH274284   5.792   3.147   4.359 -0.2743 -0.6318  0.2569
17598TIP3    H174285   5.832   3.228   4.390  0.7980 -1.5999  1.5378
17598TIP3    H274286   5.866   3.090   4.338 -1.0008 -1.1894 -0.9042
17599TIP3   OH274287   6.479   5.578  14.773  0.1374  0.4975  0.2217
17599TIP3    H174288   6.558   5.631  14.776 -0.1390  0.8568  2.1718
17599TIP3    H274289   6.505   5.493  14.810 -0.0600  0.1301 -0.4523
17600TIP3   OH274290   4.847   5.158   2.938 -0.4957  0.4657 -0.4818
17600TIP3    H174291   4.799   5.237   2.963  0.3505  0.6968  0.4906
17600TIP3    H274292   4.804   5.087   2.986  0.1084  0.6726  0.3885
17601TIP3   OH274293   4.815   2.359   5.579 -0.0909  0.4079  0.4672
17601TIP3    H174294   4.872   2.431   5.606 -0.2032  0.4956  0.4670
17601TIP3    H274295   4.853   2.282   5.622 -1.6464  0.8946  2.8503
17602TIP3   OH274296   3.906   4.239   4.990  0.0272 -0.5204 -0.0283
17602TIP3    H174297   3.964   4.225   5.065  0.9659  0.7095 -0.4846
17602TIP3    H274298   3.850   4.312   5.017 -1.9513 -2.2360  0.7381
17603TIP3   OH274299   0.555   4.441  13.612 -0.4698  0.4464  1.1101
17603TIP3    H174300   0.542   4.361  13.663  0.7784 -1.4232 -1.2932
17603TIP3    H274301   0.650   4.446  13.599 -0.7235  0.7188 -1.0743
17604TIP3   OH274302   4.602   0.157   4.695 -0.2647 -0.3462 -0.2028
17604TIP3    H174303   4.540   0.208   4.643 -0.2073 -0.3056 -0.2308
17604TIP3    H274304   4.681   0.154   4.642  0.7072  1.9380  0.9837
17605TIP3   OH274305   6.130   2.691  12.190 -0.6379 -0.9238  0.4416
17605TIP3    H174306   6.125   2.786  12.179 -0.4159 -0.8645  0.8357
17605TIP3    H274307   6.204   2.663  12.136 -0.2889 -0.7871  0.8462
17606TIP3   OH274308   0.696   1.060   0.817  0.5178  0.3660 -0.0229
17606TIP3    H174309   0.613   1.017   0.834 -0.0659  1.1665 -0.7476
17606TIP3    H274310   0.672   1.149   0.790  1.6457  0.8906  0.6253
17607TIP3   OH274311   1.448   3.669   3.292  0.6194  0.0081 -0.1498
17607TIP3    H174312   1.483   3.651   3.380 -1.6778 -1.0018  0.6457
17607TIP3    H274313   1.482   3.599   3.238 -1.1090 -1.7602  0.9170
17608TIP3   OH274314   0.685   4.979  10.931  0.0067 -0.4233 -0.5842
17608TIP3    H174315   0.706   4.903  10.877 -0.6202  0.5748 -2.3397
17608TIP3    H274316   0.592   4.996  10.912  0.2739  1.0807 -0.6472
17609TIP3   OH274317   2.038   6.620  16.740  0.2353 -0.0714  0.2470
17609TIP3    H174318   1.947   6.637  16.765  0.0663  2.1767 -1.5715
17609TIP3    H274319   2.033   6.592  16.648  1.3735  0.1782  0.0907
17610TIP3   OH274320   0.763   3.698   5.364 -0.7748 -0.0448 -0.4329
17610TIP3    H174321   0.673   3.720   5.384 -0.9263  0.2030 -1.3374
17610TIP3    H274322   0.806   3.782   5.348  0.1924  0.0331  2.1564
17611TIP3   OH274323   5.201   0.268  16.866 -0.4351  0.4340  0.6669
17611TIP3    H174324   5.126   0.300  16.816  0.8255  0.5572 -1.2416
17611TIP3    H274325   5.185   0.174  16.877 -1.9084  0.8252  2.2585
17612TIP3   OH274326   4.015   6.357   0.426 -0.5263  0.5277 -1.0724
17612TIP3    H174327   3.994   6.366   0.519 -1.8391  3.6646 -1.5309
17612TIP3    H274328   4.101   6.397   0.417  0.2431 -1.0584 -1.0500
17613TIP3   OH274329   2.089   4.778   5.487  0.3307  0.8634 -0.2436
17613TIP3    H174330   2.149   4.752   5.416  0.8913  0.4871  0.3553
17613TIP3    H274331   2.146   4.792   5.562 -0.3369  0.4770  0.3460
17614TIP3   OH274332   2.663   2.068   5.844  0.2960 -1.1690 -0.0915
17614TIP3    H174333   2.742   2.118   5.864 -0.1946  1.0272 -2.9783
17614TIP3    H274334   2.659   2.001   5.913  3.5709 -0.1796  1.2674
17615TIP3   OH274335   2.744   4.352   2.567  0.4141  0.2953 -0.1770
17615TIP3    H174336   2.754   4.395   2.652  0.6742  0.9562 -0.5365
17615TIP3    H274337   2.718   4.422   2.507  1.7275  0.1472 -0.9651
17616TIP3   OH274338   0.396   0.398   6.109 -0.0280 -0.2197  0.2062
17616TIP3    H174339   0.457   0.404   6.182  0.4447 -1.6692 -0.0401
17616TIP3    H274340   0.328   0.463   6.129  0.0945 -0.5892  1.9266
17617TIP3   OH274341   2.808   5.143   0.555 -0.1911  0.2615  0.6067
17617TIP3    H174342   2.902   5.134   0.566  0.1348  1.1830 -1.0313
17617TIP3    H274343   2.796   5.153   0.460 -1.8194  1.2059  0.8695
17618TIP3   OH274344   1.770   5.569   1.062 -0.3585  0.1596  0.0424
17618TIP3    H174345   1.749   5.657   1.031  2.9976  0.3255 -2.2958
17618TIP3    H274346   1.756   5.513   0.986  0.3151 -0.8380  0.6382
17619TIP3   OH274347   4.225   5.725  16.525 -0.1984  0.1214 -0.1257
17619TIP3    H174348   4.193   5.782  16.455  1.6570 -0.8970 -1.9239
17619TIP3    H274349   4.257   5.786  16.592 -0.0268  1.1908 -1.1350
17620TIP3   OH274350   4.476   6.637  14.010 -0.1817  0.5647  0.4757
17620TIP3    H174351   4.567   6.653  14.037  0.6828 -1.9206 -0.6399
17620TIP3    H274352   4.454   6.711  13.954  0.9433  1.4867  1.2031
17621TIP3   OH274353   6.503   6.025  15.888 -0.5291  0.6566  0.4236
17621TIP3    H174354   6.544   5.950  15.844  1.2704  0.7068  1.8891
17621TIP3    H274355   6.409   6.014  15.871 -0.0989 -0.3840 -1.6978
17622TIP3   OH274356   6.325   5.005   4.172  0.0144  0.3064 -0.1195
17622TIP3    H174357   6.310   4.912   4.156 -0.3803  0.2148  0.7606
17622TIP3    H274358   6.313   5.016   4.266 -0.0005  1.2606 -0.2223
17623TIP3   OH274359   0.091   2.708  12.114  0.0392 -0.0740 -0.2428
17623TIP3    H174360   0.185   2.699  12.128  0.1549  1.8951  0.5833
17623TIP3    H274361   0.051   2.646  12.174  0.8015 -1.9588 -1.6080
17624TIP3   OH274362   6.624   0.563   6.908 -0.6811 -0.0214  0.1549
17624TIP3    H174363   6.608   0.559   7.002  2.2880 -1.2067  0.7313
17624TIP3    H274364   6.696   0.625   6.898 -1.7243  0.9938 -1.5123
17625TIP3   OH274365   4.568   6.031   4.263  0.1398  0.4501 -0.1838
17625TIP3    H174366   4.605   6.119   4.269  1.4402 -0.1175  0.6613
17625TIP3    H274367   4.546   6.020   4.171 -0.6820  1.8942 -0.1812
17626TIP3   OH274368   6.457   0.469  14.180 -0.8640  0.3245  0.2367
17626TIP3    H174369   6.492   0.409  14.114  2.6604  2.7370 -0.3611
17626TIP3    H274370   6.383   0.513  14.136  0.9096  1.3189 -1.9461
17627TIP3   OH274371   4.209   4.847   4.663 -0.1289 -0.1860 -0.1684
17627TIP3    H174372   4.259   4.794   4.726 -0.2296 -0.6380 -0.4665
17627TIP3    H274373   4.194   4.788   4.589 -0.9862 -0.0144 -0.1442
17628TIP3   OH274374   4.759   6.713  10.351 -0.2794 -0.1346  0.0912
17628TIP3    H174375   4.664   6.703  10.356 -0.3940  0.1833 -1.2430
17628TIP3    H274376   4.789   6.637  10.303  0.1987 -0.4061  0.7984
17629TIP3   OH274377   3.393   1.287  12.256 -0.1741 -0.2572  1.3405
17629TIP3    H174378   3.418   1.194  12.253 -0.2945 -0.3093  1.8314
17629TIP3    H274379   3.475   1.334  12.241 -0.1668 -0.4432  0.7737
17630TIP3   OH274380   4.602   6.303   4.023 -0.0484  0.2156 -0.8519
17630TIP3    H174381   4.509   6.281   4.026 -0.3385  1.4323 -0.6452
17630TIP3    H274382   4.605   6.398   4.030  1.2368  0.1595 -0.4055
17631TIP3   OH274383   5.169   0.531  14.324 -0.1209 -0.2269  0.3979
17631TIP3    H174384   5.152   0.456  14.382 -1.6399  0.4071  0.8181
17631TIP3    H274385   5.125   0.509  14.242  0.3737 -0.2651  0.1378
17632TIP3   OH274386   0.446   3.454  12.918 -0.4063  0.0419  0.3521
17632TIP3    H174387   0.371   3.453  12.978 -3.0352  2.2573 -2.6012
17632TIP3    H274388   0.434   3.377  12.863 -0.2221  0.1345  0.1819
17633TIP3   OH274389   4.878   0.117   5.873 -0.2646 -0.3060  0.4073
17633TIP3    H174390   4.827   0.183   5.921  2.4236  3.9767 -2.0012
17633TIP3    H274391   4.949   0.095   5.933  0.6595  1.7162  0.1670
17634TIP3   OH274392   0.661   3.333  11.132  0.1221  0.2947 -0.1291
17634TIP3    H174393   0.619   3.391  11.068 -0.7074  0.4449  0.5411
17634TIP3    H274394   0.728   3.388  11.173 -0.3967  0.6700  0.2269
17635TIP3   OH274395   6.529   2.510  11.595 -0.1278  0.0936  0.7311
17635TIP3    H174396   6.567   2.423  11.584 -0.2896  0.1377 -0.2892
17635TIP3    H274397   6.502   2.513  11.687 -1.2437 -1.3923  0.4907
17636TIP3   OH274398   4.738   6.534  10.731 -0.4522  0.5327  0.9423
17636TIP3    H174399   4.819   6.496  10.698 -0.1166  1.4511  0.6722
17636TIP3    H274400   4.674   6.463  10.727  0.1416  0.0191  0.4243
17637TIP3   OH274401   5.303   4.731   0.229 -0.1084 -1.1290 -0.2303
17637TIP3    H174402   5.318   4.734   0.135 -0.3521 -0.0871 -0.2502
17637TIP3    H274403   5.335   4.645   0.256  0.3425 -1.2778 -1.1981
17638TIP3   OH274404   3.824   2.100  17.031 -0.3775  0.1363 -0.2182
17638TIP3    H174405   3.856   2.171  17.087  0.3892 -0.4091  0.0548
17638TIP3    H274406   3.881   2.026  17.051  0.4614  0.1456 -2.3220
17639TIP3   OH274407   5.154   2.807   1.639  0.7475 -0.5333 -0.2724
17639TIP3    H174408   5.082   2.844   1.588 -1.1534 -0.8863  1.9714
17639TIP3    H274409   5.111   2.768   1.715  3.2231 -2.0169  0.4732
17640TIP3   OH274410   3.143   4.023  14.709  0.0840 -0.3687  0.0269
17640TIP3    H174411   3.064   4.031  14.655  0.3937 -1.2484 -0.5803
17640TIP3    H274412   3.167   4.113  14.730 -0.7448 -0.0680 -0.2774
17641TIP3   OH274413   1.132   3.862   0.108 -0.3432 -0.1807  0.1138
17641TIP3    H174414   1.155   3.906   0.190 -2.4688  0.9208  0.1923
17641TIP3    H274415   1.191   3.899   0.043  0.2835  0.1281  0.8494
17642TIP3   OH274416   5.423   4.731   1.434  0.5980 -0.0686  0.5526
17642TIP3    H174417   5.384   4.789   1.369 -1.2124  0.3824  1.9810
17642TIP3    H274418   5.368   4.653   1.433  0.9819 -0.3551  1.0399
17643TIP3   OH274419   6.652   5.383  12.846  0.0240  0.0948  0.3135
17643TIP3    H174420   6.629   5.349  12.760 -0.6778  2.5473 -0.5352
17643TIP3    H274421   6.740   5.348  12.863  0.1619 -0.4351 -1.3829
17644TIP3   OH274422   2.660   2.485   1.664  0.4203 -0.7196  0.2457
17644TIP3    H174423   2.642   2.568   1.707 -0.6978 -0.6916 -0.2493
17644TIP3    H274424   2.752   2.466   1.686  0.5279  0.3679  0.7975
17645TIP3   OH274425   0.288   0.808  16.223 -0.0904  0.3760  0.4039
17645TIP3    H174426   0.260   0.829  16.312 -3.3869  2.0327 -0.8410
17645TIP3    H274427   0.357   0.871  16.204 -0.4344  1.0439  1.2916
17646TIP3   OH274428   1.921   2.303  14.306  0.3577 -0.2378 -0.2782
17646TIP3    H174429   1.927   2.212  14.333  2.8218 -0.4821 -1.3435
17646TIP3    H274430   1.861   2.343  14.370 -0.6488 -2.5133  0.3131
17647TIP3   OH274431   5.410   4.972   0.281  0.0181  0.3038  0.3790
17647TIP3    H174432   5.392   4.881   0.256  0.8044  0.0808  0.5806
17647TIP3    H274433   5.353   5.024   0.224  0.9051 -0.2441 -1.0858
17648TIP3   OH274434   0.478   2.330   4.296 -0.2858 -0.1157 -0.2564
17648TIP3    H174435   0.552   2.280   4.262 -0.6872 -1.9342  1.3658
17648TIP3    H274436   0.404   2.303   4.241 -0.3638 -0.8386  0.1857
17649TIP3   OH274437   3.718   0.731   5.979 -0.3630  0.0484  0.4977
17649TIP3    H174438   3.681   0.819   5.981 -2.4625 -0.7646  1.1852
17649TIP3    H274439   3.810   0.743   5.955 -0.6854  2.3668  0.2160
17650TIP3   OH274440   1.216   3.416   4.665  0.1255 -0.5530  0.3411
17650TIP3    H174441   1.132   3.369   4.662 -0.8599  1.1284 -1.9380
17650TIP3    H274442   1.260   3.392   4.584  1.2631 -0.3839  0.8921
17651TIP3   OH274443   2.523   2.991   2.283 -0.1679 -0.1538  0.0572
17651TIP3    H174444   2.428   2.991   2.293 -0.3699 -2.3635 -1.3728
17651TIP3    H274445   2.539   3.046   2.206 -0.3299 -0.2598 -0.0511
17652TIP3   OH274446   2.280   1.805   0.007  0.2617 -0.3322 -0.3182
17652TIP3    H174447   2.210   1.744  -0.016  0.4343 -0.0589 -1.6669
17652TIP3    H274448   2.350   1.785  -0.055  1.8611 -1.3444  1.7015
17653TIP3   OH274449   5.744   6.437  12.216 -0.4899 -0.0010 -0.0865
17653TIP3    H174450   5.698   6.469  12.138 -1.0042 -0.1669  0.1435
17653TIP3    H274451   5.731   6.342  12.214 -2.0177  0.1441  1.1208
17654TIP3   OH274452   2.831   6.675   2.320  0.5105 -0.2944 -0.2791
17654TIP3    H174453   2.877   6.671   2.404 -2.2033  3.7753  1.7620
17654TIP3    H274454   2.893   6.717   2.261  0.8487  1.7463  1.3685
17655TIP3   OH274455   0.288   6.330  13.882  0.2799  0.7160  0.8158
17655TIP3    H174456   0.267   6.267  13.813 -0.0494 -2.0665  3.2453
17655TIP3    H274457   0.202   6.360  13.913  0.2001 -0.9860  2.4231
17656TIP3   OH274458   4.140   2.148  17.082 -0.3800 -0.2801 -0.3671
17656TIP3    H174459   4.119   2.062  17.044 -0.2415 -0.4202 -0.1269
17656TIP3    H274460   4.235   2.145  17.095  0.0989  0.9461 -2.9731
17657TIP3   OH274461   5.354   3.654   5.759  0.4745  0.1995  0.0830
17657TIP3    H174462   5.322   3.645   5.848 -0.1710  2.5357  0.1461
17657TIP3    H274463   5.283   3.620   5.704  1.1386 -1.8777  0.3963
17658TIP3   OH274464   6.442   2.290   2.913 -0.3911  0.0417 -0.3564
17658TIP3    H174465   6.462   2.207   2.869 -0.5053 -0.6712  0.8826
17658TIP3    H274466   6.392   2.340   2.848 -0.4208 -0.9007 -1.0880
17659TIP3   OH274467   4.954   2.529   0.796 -0.2119 -0.2249  0.2583
17659TIP3    H174468   5.010   2.525   0.874 -2.0461  2.6284  1.9066
17659TIP3    H274469   4.913   2.615   0.801 -2.0467 -0.8008 -2.7703
17660TIP3   OH274470   2.916   6.764  10.806  0.5734 -0.2567 -0.0695
17660TIP3    H174471   2.936   6.718  10.887 -0.5990 -1.2047 -0.2829
17660TIP3    H274472   2.927   6.698  10.737  0.7866  0.3179 -0.5990
17661TIP3   OH274473   1.233   1.070   3.754  0.1388  0.4955 -0.1827
17661TIP3    H174474   1.289   1.116   3.816 -0.1393  0.1674  0.3187
17661TIP3    H274475   1.229   0.980   3.788  0.1625  0.2597 -0.7963
17662TIP3   OH274476   4.589   2.326  14.713  0.3992  0.4510 -0.6310
17662TIP3    H174477   4.626   2.384  14.779  0.9410  0.7018 -1.1581
17662TIP3    H274478   4.652   2.326  14.641 -0.9313  1.4793 -1.8717
17663TIP3   OH274479   3.102   3.474   1.750 -0.2093 -0.0880  0.1066
17663TIP3    H174480   3.125   3.528   1.674  0.4372  1.5596  1.4114
17663TIP3    H274481   3.059   3.535   1.810  0.3160 -1.0921  1.5415
17664TIP3   OH274482   6.357   5.932   0.218 -0.1822 -0.0148  0.1687
17664TIP3    H174483   6.383   6.006   0.162  0.3273 -0.2900  0.0395
17664TIP3    H274484   6.346   5.859   0.157  3.2389 -1.1152  0.6619
17665TIP3   OH274485   4.249   6.188   2.047  0.6199 -0.0113 -0.1655
17665TIP3    H174486   4.278   6.197   2.138 -1.2961  0.6059  0.4181
17665TIP3    H274487   4.203   6.269   2.028 -1.3711 -1.2106 -0.7726
17666TIP3   OH274488   4.766   0.661  10.767 -0.7135 -0.1415 -0.5036
17666TIP3    H174489   4.743   0.659  10.674 -1.4503 -2.6045 -0.3339
17666TIP3    H274490   4.805   0.575  10.784  1.6389  1.1147  0.9827
17667TIP3   OH274491   6.577   1.526  11.947 -0.0000 -0.2593 -0.1840
17667TIP3    H174492   6.626   1.578  12.011  0.3933 -1.4165  0.4825
17667TIP3    H274493   6.567   1.441  11.989  1.1213 -1.3766 -2.0443
17668TIP3   OH274494   3.307   1.012  17.235 -0.0730 -0.1814  0.4428
17668TIP3    H174495   3.339   1.075  17.300 -0.1184 -0.1412  0.4264
17668TIP3    H274496   3.222   0.985  17.269 -0.0746 -0.1978  0.4255
17669TIP3   OH274497   1.397   4.862  15.133 -0.1777 -0.5915  0.3880
17669TIP3    H174498   1.418   4.818  15.216  0.8457 -1.1891 -0.1647
17669TIP3    H274499   1.475   4.914  15.113 -0.1253 -1.0081 -0.5497
17670TIP3   OH274500   0.273   2.070  16.168 -0.4130  0.0178 -0.1113
17670TIP3    H174501   0.248   2.029  16.251 -0.8463 -1.9719 -1.1633
17670TIP3    H274502   0.341   2.133  16.193 -1.0464  0.0235  1.8275
17671TIP3   OH274503   0.357   4.353  13.009  0.1611  0.3407 -0.1543
17671TIP3    H174504   0.347   4.290  13.080  1.9577 -0.8956 -0.9237
17671TIP3    H274505   0.409   4.424  13.046  0.3950  0.0884 -0.0000
17672TIP3   OH274506   3.253   0.798  15.710  0.3220 -0.1677  0.0280
17672TIP3    H174507   3.286   0.775  15.797 -1.0376 -0.4418  0.4883
17672TIP3    H274508   3.167   0.837  15.725 -0.1950 -0.7480 -1.2275
17673TIP3   OH274509   1.713   1.456  16.257 -0.1245  0.9399  0.2038
17673TIP3    H174510   1.712   1.508  16.176 -0.0564 -0.1595 -0.5258
17673TIP3    H274511   1.624   1.421  16.264  0.0503  0.4901  0.2331
17674TIP3   OH274512   3.333   3.489  13.039 -0.4361 -0.2598 -0.5260
17674TIP3    H174513   3.359   3.549  12.969  2.4241  0.0941  0.6826
17674TIP3    H274514   3.297   3.413  12.994 -1.5896  1.1898 -2.1976
17675TIP3   OH274515   2.052   5.646  11.482  0.5394 -0.1269 -0.1845
17675TIP3    H174516   2.090   5.704  11.416  0.8200  0.0005  0.0844
17675TIP3    H274517   2.037   5.563  11.436  0.8044 -0.0623 -0.3862
17676TIP3   OH274518   2.312   2.016   0.608  0.2531  0.4635 -0.7625
17676TIP3    H174519   2.299   2.013   0.513 -0.2738  0.9079 -0.7072
17676TIP3    H274520   2.289   1.928   0.638 -0.2146  0.5109 -0.9693
17677TIP3   OH274521   2.479   1.442  12.193  0.3587 -0.5930 -0.4403
17677TIP3    H174522   2.485   1.517  12.134 -0.9882 -1.8388 -2.2840
17677TIP3    H274523   2.548   1.383  12.163  0.7918 -0.5091  0.3809
17678TIP3   OH274524   5.785   5.642  11.957 -0.0428 -0.2160 -0.0870
17678TIP3    H174525   5.735   5.675  11.882 -1.4653  2.1123  1.7349
17678TIP3    H274526   5.868   5.691  11.955 -0.4899  0.5893  0.3512
17679TIP3   OH274527   1.136   3.202   5.090  0.0304  0.0175  0.0919
17679TIP3    H174528   1.190   3.253   5.150  0.2577  0.4404 -0.4700
17679TIP3    H274529   1.081   3.266   5.046 -0.6303 -0.3641  0.3422
17680TIP3   OH274530   4.931   0.257   4.806  0.6385  0.0347 -0.1864
17680TIP3    H174531   4.936   0.179   4.750  0.1931 -0.1871  0.0796
17680TIP3    H274532   4.869   0.233   4.875  1.9154 -0.0544  0.9675
17681TIP3   OH274533   4.419   4.249  15.558 -0.1493  0.0458  0.1710
17681TIP3    H174534   4.475   4.310  15.511  0.3769 -1.1813 -0.8652
17681TIP3    H274535   4.390   4.187  15.491 -0.5570 -0.8982  1.1950
17682TIP3   OH274536   5.594   2.939   3.698 -0.0107  0.2045 -0.1097
17682TIP3    H174537   5.656   3.012   3.692  0.1026  0.4690  2.8165
17682TIP3    H274538   5.614   2.884   3.622  1.6800  1.8418 -0.9484
17683TIP3   OH274539   4.062   3.028   2.698  0.3539 -0.6028  0.3979
17683TIP3    H174540   3.984   3.051   2.749 -0.6103 -0.2432 -1.1702
17683TIP3    H274541   4.028   2.983   2.621  1.7177 -0.6618 -0.1916
17684TIP3   OH274542   3.310   2.479  12.510 -0.6749  0.4692 -0.0509
17684TIP3    H174543   3.236   2.540  12.520 -1.0537  0.2630 -1.4065
17684TIP3    H274544   3.287   2.405  12.567 -0.5885  1.2254  0.9995
17685TIP3   OH274545   4.405   3.749  11.966 -0.0209  0.3398 -0.1966
17685TIP3    H174546   4.323   3.799  11.974  0.2136  0.4827  2.0588
17685TIP3    H274547   4.384   3.664  12.004  1.0640  0.6778  1.2364
17686TIP3   OH274548   4.403   5.602  15.174  0.5095  0.4039  0.1742
17686TIP3    H174549   4.376   5.615  15.265  0.1709  0.0497  0.1272
17686TIP3    H274550   4.465   5.672  15.158  0.4970  0.5310  0.6498
17687TIP3   OH274551   1.130   5.497   4.294 -0.1069 -0.3582  0.0872
17687TIP3    H174552   1.195   5.545   4.345 -0.0356  0.4682 -0.7573
17687TIP3    H274553   1.103   5.558   4.225 -2.3509 -0.3587  0.8585
17688TIP3   OH274554   6.182   6.388  17.196 -0.5538  0.0632  0.1604
17688TIP3    H174555   6.173   6.455  17.264 -0.3202  2.6293 -2.1240
17688TIP3    H274556   6.275   6.368  17.194 -0.5275  0.1578  0.4652
17689TIP3   OH274557   5.342   5.328  12.464  0.0960 -0.1339 -0.1595
17689TIP3    H174558   5.311   5.239  12.476  1.1902 -0.5910 -0.5424
17689TIP3    H274559   5.416   5.320  12.404 -0.0285  1.0798 -0.5151
17690TIP3   OH274560   4.732   1.273  11.203 -0.3213  0.4993  0.2453
17690TIP3    H174561   4.676   1.276  11.125 -0.6400  1.2864  0.4996
17690TIP3    H274562   4.819   1.252  11.169 -0.7934 -0.9780 -0.1350
17691TIP3   OH274563   0.967   0.561   5.092  0.0427 -0.4348 -0.0247
17691TIP3    H174564   1.013   0.481   5.067  0.1214 -0.5963  0.6084
17691TIP3    H274565   0.879   0.532   5.113 -0.1179 -0.2506 -0.4309
17692TIP3   OH274566   1.388   0.876   6.079  0.6563  0.1906 -0.1848
17692TIP3    H174567   1.390   0.854   6.172 -1.0240  1.4409  0.2041
17692TIP3    H274568   1.377   0.793   6.035 -0.2441 -0.2688  0.8600
17693TIP3   OH274569   2.476   4.970   0.156  0.0926 -0.0022  0.3088
17693TIP3    H174570   2.402   5.013   0.113  1.2968  2.0064  0.1147
17693TIP3    H274571   2.460   4.876   0.143 -0.6142  0.4309 -2.8758
17694TIP3   OH274572   3.017   1.697   0.789  0.1265  0.1359  0.0614
17694TIP3    H174573   2.929   1.733   0.783 -0.1675 -0.0854  2.3041
17694TIP3    H274574   3.014   1.617   0.738 -0.1349  1.5255 -2.2239
17695TIP3   OH274575   5.020   1.755  14.566 -0.1997 -0.1676  0.8898
17695TIP3    H174576   4.936   1.789  14.535 -0.9979 -2.1764  0.6969
17695TIP3    H274577   5.061   1.717  14.488  1.6168  2.0587  0.6621
17696TIP3   OH274578   0.569   4.027   3.753  0.4093  0.0209 -0.2069
17696TIP3    H174579   0.610   3.942   3.738 -0.4719 -1.2407  3.4819
17696TIP3    H274580   0.641   4.084   3.780  0.5150 -0.7304  1.1893
17697TIP3   OH274581   1.225   5.831   0.297  0.4099 -0.2788  0.2672
17697TIP3    H174582   1.241   5.925   0.287 -0.8786 -0.0757  0.0141
17697TIP3    H274583   1.134   5.818   0.270  0.8158 -1.7401 -0.5072
17698TIP3   OH274584   2.522   0.947  16.820 -0.3379 -0.1153 -0.0925
17698TIP3    H174585   2.562   0.961  16.734 -2.5677 -0.8491 -1.3044
17698TIP3    H274586   2.465   1.023  16.833  0.1948  0.1384  0.9192
17699TIP3   OH274587   5.645   5.060   0.850 -0.2346 -0.1222  0.7920
17699TIP3    H174588   5.628   5.078   0.758  2.0210  0.9616  0.5254
17699TIP3    H274589   5.740   5.066   0.859 -0.3036 -1.2337  2.9912
17700TIP3   OH274590   1.935   6.268   3.607  0.0832  0.2961  0.2320
17700TIP3    H174591   1.918   6.300   3.518  3.6509 -1.7545 -1.4318
17700TIP3    H274592   1.891   6.183   3.610 -0.5588  0.6398  0.6924
17701TIP3   OH274593   5.979   1.377   4.021 -0.0876 -0.3431  0.3094
17701TIP3    H174594   5.978   1.415   3.933 -1.0028 -1.7199 -0.3142
17701TIP3    H274595   6.051   1.314   4.019 -0.5303 -0.8600  0.3107
17702TIP3   OH274596   2.836   5.982  11.555 -0.1831  0.3817  0.2409
17702TIP3    H174597   2.789   5.899  11.546  1.3315 -0.5473  0.5146
17702TIP3    H274598   2.791   6.027  11.627 -0.2833 -0.7448  0.9067
17703TIP3   OH274599   1.791   4.920   4.567 -0.4960  0.3241 -0.1385
17703TIP3    H174600   1.812   5.004   4.526 -1.3219  1.1249  0.9876
17703TIP3    H274601   1.709   4.893   4.526 -1.3937  1.1909  0.9901
17704TIP3   OH274602   0.762   6.816   4.641 -0.7287 -0.1420 -0.0068
17704TIP3    H174603   0.733   6.726   4.658  1.4510 -0.8292  0.3986
17704TIP3    H274604   0.844   6.806   4.593 -0.3943  1.6277  0.1295
17705TIP3   OH274605   0.410   3.716   1.528 -0.4714  0.0671  0.4307
17705TIP3    H174606   0.330   3.722   1.475 -0.0860 -0.3122 -0.2113
17705TIP3    H274607   0.464   3.652   1.482 -0.1067 -0.2403  1.2711
17706TIP3   OH274608   5.091   1.190   5.398  0.1329  0.2628  0.0015
17706TIP3    H174609   5.184   1.209   5.402  0.2326 -0.3343  1.3221
17706TIP3    H274610   5.050   1.271   5.367  1.0431  0.6804 -0.1183
17707TIP3   OH274611   0.350   1.483   5.829 -0.7879 -0.2448 -0.3173
17707TIP3    H174612   0.431   1.483   5.878 -0.3568 -2.0533 -0.9347
17707TIP3    H274613   0.298   1.412   5.867 -1.3311 -0.2826 -1.0866
17708TIP3   OH274614   3.767   6.634   5.818 -0.3273 -0.3996 -0.4741
17708TIP3    H174615   3.767   6.713   5.764 -1.0660 -0.1791 -0.1707
17708TIP3    H274616   3.813   6.659   5.898 -2.0927  0.3000  0.3855
17709TIP3   OH274617   0.170   2.252  12.542  0.8281 -0.2639 -0.3789
17709TIP3    H174618   0.107   2.307  12.589  2.1347 -0.8446  2.2213
17709TIP3    H274619   0.119   2.176  12.515  0.3581 -0.7551  1.7400
17710TIP3   OH274620   1.888   1.158  14.954  0.3155  0.2855  0.4267
17710TIP3    H174621   1.911   1.240  15.000  1.2826 -1.2132  2.8309
17710TIP3    H274622   1.800   1.138  14.984  0.8179 -0.5174  1.4452
17711TIP3   OH274623   1.789   1.134  15.499  0.4240  0.3689 -0.5286
17711TIP3    H174624   1.715   1.119  15.441  2.2861  1.7310 -3.4691
17711TIP3    H274625   1.751   1.181  15.574 -2.0832 -1.4869 -0.5165
17712TIP3   OH274626   5.835   2.493  15.222 -0.3254 -0.2861 -0.1833
17712TIP3    H174627   5.817   2.455  15.308  0.4846 -0.0764  0.0852
17712TIP3    H274628   5.758   2.470  15.170 -0.6487 -0.7594  0.4796
17713TIP3   OH274629   4.714   2.479  13.819  0.3436  0.0819  0.5982
17713TIP3    H174630   4.639   2.529  13.786 -0.2722 -2.0922 -1.6147
17713TIP3    H274631   4.790   2.519  13.776  0.5800  2.3156  2.8740
17714TIP3   OH274632   6.634   3.996  15.161 -0.2027 -0.0394 -0.2171
17714TIP3    H174633   6.586   3.914  15.152 -1.4772  0.8505 -2.6656
17714TIP3    H274634   6.714   3.982  15.111 -1.0248  0.5720 -1.7635
17715TIP3   OH274635   6.038   5.520  10.633 -0.2425  0.0486  0.0036
17715TIP3    H174636   6.066   5.451  10.572 -2.2983  1.0247 -2.2016
17715TIP3    H274637   5.975   5.476  10.690  1.5014 -0.8105  1.3736
17716TIP3   OH274638   4.365   5.278  11.585  0.2453  0.2643 -0.0547
17716TIP3    H174639   4.332   5.191  11.563 -0.3993  0.5928 -0.4123
17716TIP3    H274640   4.344   5.288  11.678  0.5918 -0.0753  0.0650
17717TIP3   OH274641   2.184   0.078  11.298  0.0176  0.4399  0.3772
17717TIP3    H174642   2.193   0.137  11.372  1.3302  0.7637 -0.0248
17717TIP3    H274643   2.158   0.135  11.225  0.7179  0.4471  0.1259
17718TIP3   OH274644   3.484   3.422  17.142 -0.1101 -0.2306 -0.4755
17718TIP3    H174645   3.474   3.414  17.236 -0.5700  0.8080 -0.4203
17718TIP3    H274646   3.494   3.516  17.127 -2.5500 -0.0818 -1.6709
17719TIP3   OH274647   1.350   4.326  12.906  0.3156 -0.0792  0.8113
17719TIP3    H174648   1.400   4.397  12.865  0.9355 -0.3735  1.0437
17719TIP3    H274649   1.390   4.317  12.993 -1.9159  1.5449  2.1146
17720TIP3   OH274650   0.126   5.431   3.654  0.3237  0.0839  0.2873
17720TIP3    H174651   0.031   5.443   3.660  0.4687  1.1095  0.7248
17720TIP3    H274652   0.160   5.517   3.630  1.0981 -0.4351 -0.5901
17721TIP3   OH274653   6.189   1.750  14.401  0.1309  0.0694 -0.3106
17721TIP3    H174654   6.206   1.809  14.474 -0.1003  0.4451 -0.5578
17721TIP3    H274655   6.145   1.804  14.335  1.9943  0.2044 -1.5215
17722TIP3   OH274656   3.384   5.422   3.444  0.0982  1.0015 -0.5334
17722TIP3    H174657   3.352   5.443   3.532 -1.0116  1.1364 -0.9457
17722TIP3    H274658   3.315   5.454   3.385 -0.1957 -1.0016 -1.3523
17723TIP3   OH274659   3.270   4.891   0.111  0.0893  0.1540 -0.5163
17723TIP3    H174660   3.196   4.869   0.054 -1.2315  0.2356  1.0920
17723TIP3    H274661   3.283   4.813   0.165  0.7125  0.4058 -0.2912
17724TIP3   OH274662   5.447   0.663  16.742 -0.3565 -0.2574  0.4292
17724TIP3    H174663   5.448   0.645  16.836  0.9125 -0.5203  0.3780
17724TIP3    H274664   5.354   0.659  16.718 -0.8090  0.8826  1.8614
17725TIP3   OH274665   0.699   3.031   5.720 -0.3718  0.6441  0.2066
17725TIP3    H174666   0.636   2.960   5.706 -0.7744  1.0415 -0.0529
17725TIP3    H274667   0.770   2.991   5.769 -0.4898  0.0091 -0.1254
17726TIP3   OH274668   2.192   1.305  13.322 -0.2625  0.2025  0.3319
17726TIP3    H174669   2.202   1.369  13.393  0.2422  1.5997 -0.9631
17726TIP3    H274670   2.196   1.356  13.242 -0.4549 -1.3926 -0.7472
17727TIP3   OH274671   1.747   1.177  16.612  0.0761  0.0383 -0.3152
17727TIP3    H174672   1.760   1.265  16.646 -0.9245 -0.0698  0.4220
17727TIP3    H274673   1.805   1.171  16.536  0.6770  1.0799  0.0434
17728TIP3   OH274674   1.616   3.710   0.654  0.1587 -0.2058 -0.4110
17728TIP3    H174675   1.605   3.692   0.748  0.7563  0.2265 -0.2498
17728TIP3    H274676   1.701   3.753   0.648 -0.2540  0.5455 -1.0509
17729TIP3   OH274677   2.952   1.664  15.117 -0.1850  0.2817 -0.4755
17729TIP3    H174678   2.977   1.666  15.209  0.8601 -0.8254 -0.6947
17729TIP3    H274679   2.878   1.724  15.110 -2.0645 -1.5937  1.5998
17730TIP3   OH274680   0.325   4.792   5.348 -0.2080  0.2991 -0.6947
17730TIP3    H174681   0.404   4.808   5.401 -0.4912 -0.9894  0.1721
17730TIP3    H274682   0.258   4.847   5.388 -0.2326 -0.1108 -0.1551
17731TIP3   OH274683   2.076   0.807   5.436 -0.2540  0.3467 -0.3340
17731TIP3    H174684   2.002   0.748   5.449 -0.1836  0.0879 -1.0409
17731TIP3    H274685   2.038   0.894   5.431 -0.4488  0.2733 -0.1059
17732TIP3   OH274686   2.652   1.543  15.862  0.0067 -0.5086 -0.1982
17732TIP3    H174687   2.580   1.579  15.810  0.8088 -0.1895 -1.0890
17732TIP3    H274688   2.709   1.500  15.799  1.2544  0.3067  0.3496
17733TIP3   OH274689   2.562   4.733  12.996 -0.1292 -0.0894 -0.3068
17733TIP3    H174690   2.604   4.692  13.072 -0.3117 -1.5942 -0.9799
17733TIP3    H274691   2.469   4.710  13.005 -0.0567 -0.8387 -1.2969
17734TIP3   OH274692   1.148   4.756  12.706 -0.0643  0.2845 -0.4099
17734TIP3    H174693   1.172   4.664  12.698  2.0650  0.9023 -2.1722
17734TIP3    H274694   1.080   4.768  12.640  0.2030  0.1278 -0.7186
17735TIP3   OH274695   2.930   4.024  14.509  0.1259  0.1607 -0.1065
17735TIP3    H174696   2.915   4.039  14.415 -0.5533  0.0470 -0.0246
17735TIP3    H274697   2.868   4.084  14.552  1.3616  1.1895  0.2920
17736TIP3   OH274698   2.579   0.852   3.192 -0.3195 -0.1998  0.2234
17736TIP3    H174699   2.663   0.811   3.173  0.7019  0.8900  2.0662
17736TIP3    H274700   2.536   0.792   3.254 -1.5741 -1.4436 -1.7592
17737TIP3   OH274701   4.494   3.166   1.494  0.2704 -0.0029  0.2654
17737TIP3    H174702   4.487   3.247   1.545 -1.4090 -0.0706  0.2009
17737TIP3    H274703   4.580   3.131   1.517 -0.7534 -0.5557  3.8927
17738TIP3   OH274704   4.037   5.176   4.138 -0.3403 -0.4317  0.2002
17738TIP3    H174705   4.098   5.202   4.207 -0.1126 -1.7331  0.5191
17738TIP3    H274706   4.023   5.255   4.087  2.1879 -0.2358 -0.3257
17739TIP3   OH274707   4.277   5.876   0.747 -0.3748  0.5985  0.4502
17739TIP3    H174708   4.242   5.902   0.662 -0.0290 -2.9600 -0.9793
17739TIP3    H274709   4.253   5.947   0.806 -2.8934  2.0609 -2.0811
17740TIP3   OH274710   6.596   2.052  12.683  0.2323  0.6142 -1.0726
17740TIP3    H174711   6.582   2.130  12.629  2.3413  1.6536 -0.2490
17740TIP3    H274712   6.680   2.018  12.654  1.1170  0.8300  1.0517
17741TIP3   OH274713   3.809   5.612  17.116  0.0738  0.8612 -0.3638
17741TIP3    H174714   3.820   5.576  17.203  0.8063  1.7668 -0.0629
17741TIP3    H274715   3.736   5.563  17.078 -0.7980  1.0173  1.0593
17742TIP3   OH274716   2.843   3.842  16.701  0.0322  0.2337 -0.7783
17742TIP3    H174717   2.911   3.833  16.768 -0.4708  0.9896 -0.1442
17742TIP3    H274718   2.793   3.919  16.729 -1.4589 -0.6728 -0.8857
17743TIP3   OH274719   4.931   5.364  11.338  0.7054 -0.6740 -0.5061
17743TIP3    H174720   4.928   5.299  11.409 -2.2365 -0.3697 -0.2274
17743TIP3    H274721   4.895   5.318  11.262  1.0925 -0.1294 -1.0292
17744TIP3   OH274722   4.417   0.014   5.948 -0.2391  0.2611 -0.5556
17744TIP3    H174723   4.473   0.049   5.879 -0.5073 -0.2804 -1.0554
17744TIP3    H274724   4.363   0.088   5.975  0.8116  0.8365  0.0493
17745TIP3   OH274725   0.205   4.920  14.448  0.2515 -0.1768 -0.5335
17745TIP3    H174726   0.273   4.984  14.430 -1.5646  2.0268 -0.0882
17745TIP3    H274727   0.209   4.859  14.374  3.1990 -0.6718 -0.0672
17746TIP3   OH274728   0.916   1.951   6.088  0.0823  0.0486 -0.2245
17746TIP3    H174729   0.894   1.915   6.002  1.5492 -0.4490 -0.4232
17746TIP3    H274730   0.863   2.030   6.095  0.0050  0.1603 -1.6473
17747TIP3   OH274731   5.478   3.363   6.182  0.0492  0.3274  0.1027
17747TIP3    H174732   5.566   3.348   6.217 -0.5370  1.4157  2.2049
17747TIP3    H274733   5.423   3.299   6.228 -0.5641  0.9991  0.3205
17748TIP3   OH274734   4.831   4.710  16.308  0.2455  0.0101  0.2028
17748TIP3    H174735   4.830   4.663  16.224  1.3565 -2.1665  1.3420
17748TIP3    H274736   4.923   4.721  16.329  0.0131  2.3960  0.2119
17749TIP3   OH274737   6.144   3.482   1.339  0.2678  0.6846  0.5675
17749TIP3    H174738   6.073   3.461   1.400 -1.7857 -0.1972 -1.9082
17749TIP3    H274739   6.202   3.406   1.343  0.1475  0.6310  1.4204
17750TIP3   OH274740   1.245   3.881   0.876 -0.2693  0.3698 -0.5237
17750TIP3    H174741   1.205   3.805   0.919  0.4710  0.0153 -0.4499
17750TIP3    H274742   1.211   3.956   0.925 -0.6160  0.0640 -0.2821
17751TIP3   OH274743   5.504   4.306  14.323  0.1404 -0.1610 -0.2981
17751TIP3    H174744   5.547   4.260  14.395  0.8100  0.7895 -0.0649
17751TIP3    H274745   5.470   4.237  14.267 -0.3953 -0.9229  0.9277
17752TIP3   OH274746   5.386   2.752   4.448  0.0519 -0.1671  0.0233
17752TIP3    H174747   5.297   2.770   4.476 -0.4668 -0.1937 -1.5097
17752TIP3    H274748   5.439   2.763   4.527 -1.0934  1.4328  0.6240
17753TIP3   OH274749   4.485   5.536  15.773  0.5685  0.2357  0.3147
17753TIP3    H174750   4.432   5.551  15.851 -0.9686  0.3169 -0.6946
17753TIP3    H274751   4.421   5.532  15.701  1.9545  0.5940 -0.9983
17754TIP3   OH274752   3.819   5.626   5.194  0.1702  0.1265  0.0278
17754TIP3    H174753   3.780   5.647   5.279  1.8824 -1.9041  1.4043
17754TIP3    H274754   3.878   5.553   5.212  1.2391  0.1925 -2.7798
17755TIP3   OH274755   1.647   0.661   1.649  0.2461 -0.2337 -0.1128
17755TIP3    H174756   1.618   0.631   1.736  1.6950 -0.0511  0.4486
17755TIP3    H274757   1.710   0.594   1.621 -0.8264 -0.7450 -1.4205
17756TIP3   OH274758   5.663   4.802  11.843 -0.5462 -0.8908  0.5420
17756TIP3    H174759   5.571   4.828  11.850 -0.3468 -0.1174  0.3454
17756TIP3    H274760   5.690   4.831  11.756 -0.1592 -1.2550  0.5382
17757TIP3   OH274761   0.361   5.098  17.250  0.3203  0.7760 -0.2391
17757TIP3    H174762   0.279   5.144  17.265  0.6484  0.8760  1.4132
17757TIP3    H274763   0.335   5.008  17.229 -0.1983  0.5388  1.3232
17758TIP3   OH274764   6.564   4.685  15.735 -0.0433 -1.1816 -0.3629
17758TIP3    H174765   6.630   4.716  15.796  1.7724 -0.3514 -2.6011
17758TIP3    H274766   6.607   4.616  15.684 -0.0498  0.7206 -3.2178
17759TIP3   OH274767   1.147   1.548  16.488  0.7769  0.1044 -0.1278
17759TIP3    H174768   1.240   1.564  16.506  1.2897 -1.9027 -0.7296
17759TIP3    H274769   1.140   1.555  16.393 -0.0708  1.8442  0.0180
17760TIP3   OH274770   0.390   4.502   2.895  0.0825  0.3063 -0.0189
17760TIP3    H174771   0.384   4.573   2.831 -0.2734 -0.9367 -1.4381
17760TIP3    H274772   0.462   4.448   2.863  0.4993  0.1346  1.1699
17761TIP3   OH274773   4.802   6.660   2.337  0.5882  0.5866  0.8318
17761TIP3    H174774   4.865   6.720   2.296  0.6954  0.3466  0.6481
17761TIP3    H274775   4.852   6.619   2.408  0.8291 -0.0660  0.2983
17762TIP3   OH274776   5.420   2.606  13.140  0.1009 -0.3488  0.0060
17762TIP3    H174777   5.334   2.577  13.170 -0.7646 -0.7434 -2.5363
17762TIP3    H274778   5.467   2.524  13.120  1.2087 -0.1483  1.5990
17763TIP3   OH274779   4.095   1.812  14.282 -0.5707 -0.0411 -0.2145
17763TIP3    H174780   4.144   1.731  14.296 -0.4216  0.2022  0.7479
17763TIP3    H274781   4.036   1.792  14.210 -1.3892 -1.4058  0.7831
17764TIP3   OH274782   1.705   2.754  11.589  0.5223  0.1851 -0.5375
17764TIP3    H174783   1.634   2.695  11.616  1.5292 -1.6505 -1.6766
17764TIP3    H274784   1.665   2.841  11.591 -1.1889 -0.5486  0.7175
17765TIP3   OH274785   6.122   6.055   2.873  0.1153 -0.2096 -0.1751
17765TIP3    H174786   6.140   6.040   2.780 -0.9769 -0.6753 -0.3242
17765TIP3    H274787   6.101   5.968   2.908  0.3921 -0.0191  0.4802
17766TIP3   OH274788   4.795   1.658   0.779  0.2378  0.5602  0.6493
17766TIP3    H174789   4.863   1.723   0.763  0.6852  0.2377  1.1851
17766TIP3    H274790   4.816   1.587   0.718 -1.4203  1.7185 -1.3882
17767TIP3   OH274791   5.265   5.604  13.437 -0.1099 -0.0134  0.7225
17767TIP3    H174792   5.267   5.683  13.490  1.2835  0.6114 -0.1799
17767TIP3    H274793   5.356   5.593  13.407 -0.9372  0.1807 -2.1998
17768TIP3   OH274794   4.073   0.415   5.165 -0.4095 -0.1179 -0.3679
17768TIP3    H174795   4.107   0.502   5.146  0.3667  0.2335  2.2794
17768TIP3    H274796   4.005   0.429   5.231 -0.3042 -1.4939  0.0660
17769TIP3   OH274797   4.762   0.598   1.226 -0.1353 -0.2675 -0.1201
17769TIP3    H174798   4.790   0.605   1.135  0.3381  0.1614  0.0512
17769TIP3    H274799   4.780   0.685   1.263  0.2521 -0.6163  0.5321
17770TIP3   OH274800   0.375   0.650   1.267 -0.5266  0.1460 -0.5016
17770TIP3    H174801   0.382   0.713   1.195 -0.5376 -0.1399 -0.7550
17770TIP3    H274802   0.284   0.620   1.263 -1.0711  1.5203  0.8086
17771TIP3   OH274803   0.149   6.386   6.452 -0.0341 -0.0366 -0.7191
17771TIP3    H174804   0.136   6.395   6.546 -0.6383 -0.0891 -0.7922
17771TIP3    H274805   0.215   6.451   6.430  0.9304 -0.7631 -0.0815
17772TIP3   OH274806   2.633   4.046  14.280 -0.5750 -0.5168  0.0136
17772TIP3    H174807   2.540   4.026  14.297 -0.2785 -3.4276 -1.1728
17772TIP3    H274808   2.649   4.014  14.192  1.4897  0.3427  0.0189
17773TIP3   OH274809   6.000   5.500   0.692  0.1268  0.8915 -0.4366
17773TIP3    H174810   5.997   5.408   0.718  0.7018  0.1349 -2.7911
17773TIP3    H274811   6.022   5.547   0.773 -0.0480 -1.0334  0.7936
17774TIP3   OH274812   2.630   3.024  11.674 -0.4322  0.9556  0.3597
17774TIP3    H174813   2.643   3.093  11.610  0.7899  0.8791  0.5098
17774TIP3    H274814   2.574   2.960  11.630 -1.0289  1.7141 -0.0060
17775TIP3   OH274815   1.356   1.049  12.302 -0.6984  0.5393  0.1955
17775TIP3    H174816   1.276   0.999  12.286 -0.3549  0.6013 -2.0196
17775TIP3    H274817   1.346   1.127  12.247  0.8721  0.5271 -0.1341
17776TIP3   OH274818   1.395   2.801   3.063 -0.2282 -0.0435 -0.0739
17776TIP3    H174819   1.389   2.859   2.987 -1.2358  0.7922  0.6170
17776TIP3    H274820   1.398   2.713   3.026 -0.2350  0.3695 -1.0861
17777TIP3   OH274821   5.905   0.376   0.550 -0.3872  0.7829 -0.0325
17777TIP3    H174822   5.920   0.286   0.579 -1.4685  0.3781 -0.6504
17777TIP3    H274823   5.815   0.376   0.517 -1.2948  2.6364  2.1298
17778TIP3   OH274824   4.055   5.123   2.456 -0.1385  0.5241  0.6149
17778TIP3    H174825   4.053   5.157   2.366  0.2074 -1.4340 -0.2033
17778TIP3    H274826   3.978   5.066   2.461 -0.0640  0.4976  1.5087
17779TIP3   OH274827   3.405   1.117   2.244  0.6781 -0.5580  0.1608
17779TIP3    H174828   3.431   1.079   2.328  2.2709  0.6961  0.2794
17779TIP3    H274829   3.471   1.085   2.182  0.7639  0.2305 -0.1647
17780TIP3   OH274830   0.747   5.375  16.390  0.1209 -0.3176  0.3385
17780TIP3    H174831   0.701   5.450  16.428 -0.4655 -0.2015 -0.5761
17780TIP3    H274832   0.716   5.371  16.299 -0.0757 -1.8557  0.4544
17781TIP3   OH274833   4.150   6.072  12.831  0.4808  0.0598 -0.1345
17781TIP3    H174834   4.089   6.143  12.809 -1.3760 -0.8594  1.6110
17781TIP3    H274835   4.111   5.994  12.792  1.9635 -0.1793 -1.1868
17782TIP3   OH274836   3.676   1.024  15.700  0.4242  0.0148  0.1400
17782TIP3    H174837   3.615   1.097  15.705  0.4414  0.3094 -2.3982
17782TIP3    H274838   3.629   0.950  15.738 -0.3868  0.8787  0.8521
17783TIP3   OH274839   1.076   0.013   5.744 -0.5273  0.0179  0.2103
17783TIP3    H174840   1.135  -0.006   5.671  1.2362 -0.7019  1.7373
17783TIP3    H274841   1.098   0.103   5.770 -1.9379  0.6924 -0.7900
17784TIP3   OH274842   6.582   0.570   0.180  0.3273  0.1230  0.5672
17784TIP3    H174843   6.573   0.590   0.273  1.5885  2.1024  0.3218
17784TIP3    H274844   6.675   0.553   0.168 -0.1402 -2.4828  0.0252
17785TIP3   OH274845   3.274   5.851  12.046 -0.1179 -0.3984 -0.3747
17785TIP3    H174846   3.249   5.940  12.071 -0.2121 -0.4044 -0.4465
17785TIP3    H274847   3.191   5.808  12.025 -0.2166 -0.9360  1.0503
17786TIP3   OH274848   4.942   4.964  13.145  0.3415  0.0036  0.0970
17786TIP3    H174849   4.947   5.038  13.205 -1.3522 -0.7805  1.2964
17786TIP3    H274850   4.848   4.950  13.133  0.6479 -0.8373 -1.5399
17787TIP3   OH274851   3.191   2.753   0.588  0.5105 -0.1296  0.3564
17787TIP3    H174852   3.112   2.754   0.535  1.1057 -1.9645 -0.6209
17787TIP3    H274853   3.160   2.770   0.677 -0.8248  0.2850 -0.1568
17788TIP3   OH274854   5.334   3.094  13.171  0.3982 -0.4052 -0.1829
17788TIP3    H174855   5.371   3.080  13.084  2.2637 -0.3346  0.5635
17788TIP3    H274856   5.389   3.041  13.229  0.5996  1.2882  1.2359
17789TIP3   OH274857   3.926   1.841  16.727  0.3589 -0.3159  0.0037
17789TIP3    H174858   3.937   1.914  16.788  1.6421  0.1033 -0.6855
17789TIP3    H274859   3.960   1.765  16.774 -1.7077 -0.6677  1.0228
17790TIP3   OH274860   5.846   2.130   1.934 -0.4060 -0.2951 -0.1622
17790TIP3    H174861   5.778   2.095   1.876  1.6613 -2.8255 -1.2454
17790TIP3    H274862   5.858   2.062   2.000  0.8573  0.2364  0.1808
17791TIP3   OH274863   0.787   2.116  16.011  0.1846  0.3437  0.2193
17791TIP3    H174864   0.879   2.093  16.025  0.1041 -0.8642 -1.0079
17791TIP3    H274865   0.780   2.131  15.917 -1.2854 -1.6979 -0.0623
17792TIP3   OH274866   4.258   6.123   1.403  0.3791  0.1782 -0.1735
17792TIP3    H174867   4.292   6.033   1.405  1.9238  0.7242 -0.5519
17792TIP3    H274868   4.223   6.133   1.314  0.1545 -0.0674 -0.1132
17793TIP3   OH274869   1.032   0.471   2.680 -0.4135  0.4282 -0.1694
17793TIP3    H174870   1.004   0.458   2.771  0.6769 -1.2912 -0.0319
17793TIP3    H274871   1.127   0.463   2.683 -0.3654  0.3217 -1.4689
17794TIP3   OH274872   5.369   3.230   0.954  0.3372  0.1442  0.2823
17794TIP3    H174873   5.315   3.207   0.878  0.4020  0.1474  0.2356
17794TIP3    H274874   5.435   3.290   0.920 -1.5184  2.6915  0.9155
17795TIP3   OH274875   2.630   4.359   0.290  0.3637 -0.8327  0.2627
17795TIP3    H174876   2.710   4.336   0.338  0.1993 -1.0732  0.4311
17795TIP3    H274877   2.584   4.275   0.281  0.2097 -0.7218  0.0224
17796TIP3   OH274878   5.760   2.261   0.005 -0.4803 -0.2665  0.0082
17796TIP3    H174879   5.816   2.184   0.009 -0.1329 -0.1189 -1.3285
17796TIP3    H274880   5.746   2.286   0.096 -0.1349 -1.5624  0.4387
17797TIP3   OH274881   3.842   0.750  16.183 -0.7196 -0.5076 -0.7544
17797TIP3    H174882   3.891   0.803  16.121 -0.7241  3.6822  2.3647
17797TIP3    H274883   3.750   0.769  16.166 -0.7463  0.1616  0.0801
17798TIP3   OH274884   3.012   6.001  11.806 -0.3029 -0.1491  0.2374
17798TIP3    H174885   3.097   6.044  11.806  0.2002 -1.0723 -0.9935
17798TIP3    H274886   2.949   6.073  11.816  0.5649  0.6743 -0.0194
17799TIP3   OH274887   4.971   2.148   3.110  0.3414 -0.5707  0.3611
17799TIP3    H174888   5.049   2.161   3.163  0.4368 -2.8767  0.9093
17799TIP3    H274889   4.911   2.217   3.138  1.7932  0.5860  0.6911
17800TIP3   OH274890   4.771   0.953  15.533  0.2822 -0.0937 -0.6324
17800TIP3    H174891   4.685   0.913  15.543 -0.9411  1.4402 -3.7105
17800TIP3    H274892   4.754   1.036  15.487  3.2693  1.0177  0.0095
17801TIP3   OH274893   4.103   5.649   6.037 -0.0788 -0.1235  0.5361
17801TIP3    H174894   4.176   5.591   6.014 -1.0705 -0.4108 -2.3707
17801TIP3    H274895   4.061   5.605   6.111  1.0991 -1.3881  0.5098
17802TIP3   OH274896   3.160   4.564   2.410 -0.1513 -0.1425  0.2087
17802TIP3    H174897   3.100   4.533   2.477  1.0023 -2.0904  0.4196
17802TIP3    H274898   3.221   4.621   2.457 -1.5604  1.6023  0.0440
17803TIP3   OH274899   5.430   3.344  15.369 -0.0136 -0.3533 -0.4712
17803TIP3    H174900   5.498   3.280  15.347 -0.4085 -0.9023 -0.0981
17803TIP3    H274901   5.421   3.338  15.464  0.9134  1.2411 -0.2482
17804TIP3   OH274902   5.435   0.357  11.380  0.0831  0.0317  0.2566
17804TIP3    H174903   5.482   0.373  11.298 -0.0790 -2.9625 -0.5155
17804TIP3    H274904   5.497   0.383  11.448  0.7707  1.1971 -0.7698
17805TIP3   OH274905   1.043   3.589   3.416  0.0254 -0.0721  0.7151
17805TIP3    H174906   1.090   3.635   3.486  0.6660  0.7845 -0.2601
17805TIP3    H274907   1.109   3.572   3.349 -0.8314  0.2798 -0.2457
17806TIP3   OH274908   0.613   6.418   0.719 -0.3121 -0.5854  0.3357
17806TIP3    H174909   0.648   6.507   0.727  0.1717 -0.7234 -0.1580
17806TIP3    H274910   0.544   6.413   0.785  0.0722 -0.0421  0.7891
17807TIP3   OH274911   2.891   6.791  16.272  0.6996 -0.4528  0.5434
17807TIP3    H174912   2.825   6.742  16.223  0.2962  0.8464 -0.2722
17807TIP3    H274913   2.846   6.872  16.299  1.6682  0.0033  0.8477
17808TIP3   OH274914   1.637   6.477   2.268 -0.0588  0.5942  0.0376
17808TIP3    H174915   1.655   6.410   2.201  0.1198  0.2467  0.4309
17808TIP3    H274916   1.724   6.505   2.297 -0.1201  1.3920 -0.5062
17809TIP3   OH274917   1.422   2.503  14.482  0.3448  0.4966 -0.3604
17809TIP3    H174918   1.433   2.547  14.398  0.2979 -0.1202 -0.6976
17809TIP3    H274919   1.506   2.459  14.497 -0.2888 -1.0555 -1.0794
17810TIP3   OH274920   3.763   6.682  12.077  0.0243  0.1926 -0.7875
17810TIP3    H174921   3.857   6.694  12.066  0.2537  1.4647  1.8366
17810TIP3    H274922   3.724   6.764  12.046  0.1101  0.9759  1.0477
17811TIP3   OH274923   0.877   0.216  12.504  0.2475 -0.5156 -0.0210
17811TIP3    H174924   0.888   0.204  12.598 -2.0434  2.0584  0.6928
17811TIP3    H274925   0.959   0.256  12.475  1.3287 -2.1398  0.6316
17812TIP3   OH274926   1.550   1.673   1.942  0.4232  0.2048 -0.3477
17812TIP3    H174927   1.633   1.627   1.927  0.5624  0.4332 -0.2840
17812TIP3    H274928   1.527   1.654   2.033  0.8111  0.7833 -0.1216
17813TIP3   OH274929   5.864   2.870   4.568  0.1154  0.4441  0.4017
17813TIP3    H174930   5.893   2.902   4.482 -0.9858 -0.6112 -0.3958
17813TIP3    H274931   5.858   2.949   4.622 -0.0660  1.2547 -0.7658
17814TIP3   OH274932   4.036   6.378  10.944 -0.2620 -0.2381  0.4653
17814TIP3    H174933   3.966   6.333  10.896  0.8448  0.2570 -1.7710
17814TIP3    H274934   4.109   6.316  10.943  0.6016  0.7441 -0.8185
17815TIP3   OH274935   6.204   4.840  12.641  0.4758  0.8030 -0.0328
17815TIP3    H174936   6.164   4.757  12.668 -0.3489  1.6149  1.3638
17815TIP3    H274937   6.266   4.816  12.572  0.5441 -1.0098  0.6266
17816TIP3   OH274938   3.654   5.496  11.244 -0.4556  0.8507  0.0568
17816TIP3    H174939   3.687   5.494  11.155 -0.8337  0.1173 -0.0784
17816TIP3    H274940   3.559   5.506  11.234 -0.6750 -0.6710  0.3074
17817TIP3   OH274941   1.761   4.816  12.775  0.0125  0.6221 -0.0883
17817TIP3    H174942   1.803   4.773  12.700  0.5488  0.6913  0.1713
17817TIP3    H274943   1.772   4.755  12.847 -1.4437  0.0734 -0.2984
17818TIP3   OH274944   3.372   5.537  11.164 -0.6943  0.1629  0.3960
17818TIP3    H174945   3.410   5.512  11.079  2.5762 -0.2930  1.8470
17818TIP3    H274946   3.279   5.515  11.156 -0.4567 -0.1564 -2.9305
17819TIP3   OH274947   3.128   6.502   5.894  0.4924  0.5525 -0.1388
17819TIP3    H174948   3.056   6.439   5.896  0.2314  0.8037 -1.1537
17819TIP3    H274949   3.180   6.481   5.971 -0.0828 -0.3218  0.0275
17820TIP3   OH274950   1.851   6.225  17.009  0.1105  0.0889 -0.0538
17820TIP3    H174951   1.828   6.154  17.069  0.0147 -0.1124 -0.3292
17820TIP3    H274952   1.767   6.252  16.971  0.4545 -2.1509 -2.7782
17821TIP3   OH274953   2.165   3.608   6.148 -0.5094  0.3546  0.3959
17821TIP3    H174954   2.149   3.682   6.207 -0.7696 -0.4378  1.3572
17821TIP3    H274955   2.155   3.531   6.204 -0.7107 -0.4257 -0.6853
17822TIP3   OH274956   5.995   2.425  13.611  0.5524 -0.5251 -0.5963
17822TIP3    H174957   5.998   2.353  13.675  0.6241 -1.6375 -1.8157
17822TIP3    H274958   6.085   2.433  13.580  0.3885 -0.4790 -1.0665
17823TIP3   OH274959   5.997   1.111  13.074  0.7907 -0.6469 -0.1708
17823TIP3    H174960   6.017   1.141  13.162  0.9967 -3.4930  0.8456
17823TIP3    H274961   6.062   1.044  13.055 -0.1223 -1.1259 -1.9213
17824TIP3   OH274962   6.778   1.440   5.781 -0.3482  0.2886  0.0622
17824TIP3    H174963   6.699   1.458   5.832  0.5518  1.2819  1.1395
17824TIP3    H274964   6.839   1.401   5.844 -0.0605 -0.7729 -0.8319
17825TIP3   OH274965   3.854   3.364   3.111  0.7024 -0.2383  0.1804
17825TIP3    H174966   3.772   3.319   3.094 -0.1245  0.9460  0.8750
17825TIP3    H274967   3.899   3.366   3.027 -0.3929 -0.0929 -0.4073
17826TIP3   OH274968   3.632   3.195   3.124 -0.5807  0.1383 -0.1282
17826TIP3    H174969   3.603   3.228   3.209 -1.2021  0.4055 -0.4325
17826TIP3    H274970   3.552   3.194   3.071  0.0800  1.4912 -1.1995
17827TIP3   OH274971   3.949   0.604   2.012 -0.0763 -0.0635 -0.4103
17827TIP3    H174972   3.896   0.530   2.044 -0.0290 -0.0066 -0.2028
17827TIP3    H274973   3.885   0.659   1.966  0.1919 -1.1763 -2.2533
17828TIP3   OH274974   3.256   0.392  13.146 -0.4867  0.3168  0.2423
17828TIP3    H174975   3.199   0.460  13.181  2.1787  1.8739  1.9494
17828TIP3    H274976   3.211   0.310  13.166 -2.5053  1.4725  0.6599
17829TIP3   OH274977   4.457   5.415   2.055 -0.5904  0.0762 -0.3149
17829TIP3    H174978   4.484   5.499   2.091 -0.4126  0.0223 -0.3218
17829TIP3    H274979   4.418   5.368   2.129 -0.1312 -0.0754 -0.1649
17830TIP3   OH274980   2.555   5.479   2.339  0.2368 -0.8168  0.2026
17830TIP3    H174981   2.471   5.441   2.313 -1.1497  1.2336  1.4352
17830TIP3    H274982   2.582   5.428   2.416 -2.1587  1.1915  2.5344
17831TIP3   OH274983   2.294   6.192   6.031 -0.3356  0.8262 -0.2327
17831TIP3    H174984   2.285   6.101   6.058 -0.8679  1.1071  0.5796
17831TIP3    H274985   2.254   6.195   5.944 -0.8857  0.4071 -0.0021
17832TIP3   OH274986   1.973   6.263   1.109 -0.1883  0.6722  0.3030
17832TIP3    H174987   1.938   6.337   1.158 -2.9249  0.2893 -0.8420
17832TIP3    H274988   1.924   6.265   1.026 -0.7117 -2.6361  0.4031
17833TIP3   OH274989   6.284   3.556  17.214  0.1183 -0.0937 -0.6214
17833TIP3    H174990   6.199   3.593  17.236  0.2427  0.3332 -0.8326
17833TIP3    H274991   6.327   3.625  17.162 -0.3569 -1.2439 -2.6486
17834TIP3   OH274992   1.936   5.239  14.326  0.0656  0.6189 -0.4083
17834TIP3    H174993   1.902   5.152  14.347  2.2932 -0.6983 -1.8129
17834TIP3    H274994   1.859   5.288  14.298 -1.0253 -1.5028 -1.3993
17835TIP3   OH274995   5.817   0.352   5.824 -0.0872 -0.0948  0.0223
17835TIP3    H174996   5.817   0.441   5.788 -2.5404  0.8310  1.9635
17835TIP3    H274997   5.895   0.349   5.879  0.0997  0.8294 -0.1637
17836TIP3   OH274998   0.759   6.456   6.746  0.1225 -0.5173  0.1458
17836TIP3    H174999   0.718   6.450   6.833  0.8274 -3.0817  0.3817
17836TIP3    H275000   0.692   6.425   6.686  0.6567 -1.7949  0.1799
17837TIP3   OH275001   4.411   6.417  15.102 -0.5001  0.5008 -0.1357
17837TIP3    H175002   4.379   6.452  15.185 -0.1878 -1.7623  1.0168
17837TIP3    H275003   4.332   6.394  15.053 -0.7137 -0.5925  0.6804
17838TIP3   OH275004   2.687   5.873  14.681  0.1951 -0.1300 -0.6359
17838TIP3    H175005   2.615   5.847  14.739  0.7555  1.3360  0.7874
17838TIP3    H275006   2.765   5.835  14.722  0.6964  1.5948  0.0772
17839TIP3   OH275007   0.127   5.785   3.253  0.4041  0.4541  0.3868
17839TIP3    H175008   0.069   5.736   3.194  2.4474 -0.9265 -0.6207
17839TIP3    H275009   0.202   5.809   3.198  1.7383  0.3853  2.0915
17840TIP3   OH275010   0.270   0.442  14.109 -0.3464 -0.0846 -0.1383
17840TIP3    H175011   0.322   0.503  14.161 -0.3444  1.6637 -2.1002
17840TIP3    H275012   0.328   0.366  14.098  1.3164  1.2741 -1.1521
17841TIP3   OH275013   4.110   3.604   6.565  0.2499 -0.0686 -0.2426
17841TIP3    H175014   4.052   3.617   6.640 -1.4074 -1.2914 -1.2397
17841TIP3    H275015   4.100   3.511   6.544  2.8019 -0.3916 -0.3302
17842TIP3   OH275016   6.263   2.312   0.679 -0.1746 -0.1189  0.4337
17842TIP3    H175017   6.323   2.352   0.616 -1.4022  0.4108 -0.4306
17842TIP3    H275018   6.242   2.227   0.642  0.6709 -0.6521  1.1504
17843TIP3   OH275019   0.107   5.705   1.308 -0.3052 -0.1491 -0.0317
17843TIP3    H175020   0.111   5.799   1.329 -1.2581  0.0567 -0.7051
17843TIP3    H275021   0.102   5.702   1.212 -1.1491 -0.8400  0.0188
17844TIP3   OH275022   0.171   1.159  16.639  0.4902 -0.1025  0.9306
17844TIP3    H175023   0.101   1.216  16.606  1.6037  0.6970 -0.1488
17844TIP3    H275024   0.165   1.080  16.586  1.7980  0.8767 -0.7715
17845TIP3   OH275025   3.457   1.410  12.504  0.5946  0.1091  0.1381
17845TIP3    H175026   3.369   1.382  12.532  0.5031 -2.2554 -2.1624
17845TIP3    H275027   3.453   1.411  12.409  2.3620  2.6354  0.0058
17846TIP3   OH275028   6.594   6.641  12.743  0.2201 -0.3587  0.1616
17846TIP3    H175029   6.617   6.557  12.702  0.5118 -0.1662 -0.0752
17846TIP3    H275030   6.500   6.635  12.758  0.3267 -0.9359  0.6279
17847TIP3   OH275031   3.672   4.722   1.051  0.0404  0.0633 -0.0639
17847TIP3    H175032   3.592   4.763   1.018 -0.8462 -0.7683  0.9668
17847TIP3    H275033   3.670   4.633   1.015 -1.2799 -1.0912  2.5599
17848TIP3   OH275034   3.122   1.285  16.794  0.5772  0.8024  0.3213
17848TIP3    H175035   3.117   1.299  16.888 -1.5839 -0.0855  0.3838
17848TIP3    H275036   3.082   1.362  16.756 -0.5202  0.2028  0.2320
17849TIP3   OH275037   0.913   4.163   5.600 -0.0217 -0.1146  0.3769
17849TIP3    H175038   0.880   4.215   5.673 -2.7699 -2.6642  1.1421
17849TIP3    H275039   0.967   4.096   5.642 -0.4526 -0.7481 -0.0822
17850TIP3   OH275040   5.687   1.915  15.138 -0.7618  0.1847  0.5887
17850TIP3    H175041   5.629   1.975  15.090 -0.3178 -0.0396 -0.2590
17850TIP3    H275042   5.769   1.916  15.088 -0.3179 -0.1418  1.2964
17851TIP3   OH275043   2.834   5.331   2.318  0.0257 -0.3868  0.6371
17851TIP3    H175044   2.749   5.338   2.275  0.5612  1.0168 -0.2203
17851TIP3    H275045   2.831   5.396   2.389 -0.7760 -2.5320  2.7307
17852TIP3   OH275046   1.566   2.976   0.176 -0.1221  0.2610  0.4252
17852TIP3    H175047   1.571   2.933   0.262 -0.6111 -1.4383 -0.3542
17852TIP3    H275048   1.619   2.921   0.119 -2.3669 -0.5104 -1.0576
17853TIP3   OH275049   0.221   4.408   2.523  0.0733 -0.2878 -0.3258
17853TIP3    H175050   0.189   4.414   2.432  1.3810 -0.8874 -0.8486
17853TIP3    H275051   0.293   4.345   2.518 -0.1158 -0.6564  1.2226
17854TIP3   OH275052   6.145   1.721  16.798 -0.3823  0.0772 -0.5401
17854TIP3    H175053   6.188   1.786  16.742 -1.7849  1.2875 -0.2615
17854TIP3    H275054   6.077   1.770  16.844 -1.1374 -1.4962  0.0821
17855TIP3   OH275055   2.754   4.978   0.308  0.0531  0.0437 -0.3136
17855TIP3    H175056   2.667   4.988   0.268  0.0607  0.1260 -0.3090
17855TIP3    H275057   2.799   4.916   0.251 -0.1714 -0.3648 -0.0547
17856TIP3   OH275058   6.764   0.200  15.642 -0.6353  0.2770  0.6856
17856TIP3    H175059   6.768   0.289  15.676  4.5190  0.3636  0.5903
17856TIP3    H275060   6.743   0.146  15.717  2.4889  1.1650  2.3502
17857TIP3   OH275061   6.682   5.760  15.704  0.0129  0.0544 -0.0169
17857TIP3    H175062   6.651   5.757  15.613 -1.6264 -1.6675  0.5204
17857TIP3    H275063   6.684   5.668  15.731 -0.7109  0.5874  2.0349
17858TIP3   OH275064   3.605   2.122  16.242 -0.3209 -0.1593  0.1725
17858TIP3    H175065   3.560   2.131  16.326  0.6491  0.3748  0.6450
17858TIP3    H275066   3.539   2.147  16.177 -0.6038  0.9832  0.8746
17859TIP3   OH275067   6.540   5.029   6.165  0.0807 -0.1524 -0.0740
17859TIP3    H175068   6.608   4.964   6.182  0.6863  0.5681  0.2921
17859TIP3    H275069   6.471   5.008   6.228 -0.0528 -0.8856 -0.4469
17860TIP3   OH275070   4.698   2.927  14.295 -0.6190  0.0153 -0.3211
17860TIP3    H175071   4.686   2.833  14.308  0.5738 -0.0563  0.4957
17860TIP3    H275072   4.793   2.938  14.291 -0.7675  1.1064 -1.1515
17861TIP3   OH275073   1.506   3.289  11.758  0.1318 -0.3450 -0.0073
17861TIP3    H175074   1.546   3.374  11.737  0.1609 -0.3616 -0.0190
17861TIP3    H275075   1.522   3.278  11.852 -1.6239  0.5874  0.4409
17862TIP3   OH275076   6.184   1.906   2.119 -0.3272  0.2740  0.1831
17862TIP3    H175077   6.093   1.934   2.113 -0.3505  0.1652  0.0261
17862TIP3    H275078   6.203   1.909   2.213  0.0318  1.9176  0.0881
17863TIP3   OH275079   0.234   6.262   1.508 -0.4640  0.3608  0.0694
17863TIP3    H175080   0.287   6.263   1.588  1.1970  1.1410 -1.0141
17863TIP3    H275081   0.276   6.197   1.452 -0.4189  1.2435 -0.9511
17864TIP3   OH275082   2.114   6.029  11.005  0.1361  0.3543 -0.6730
17864TIP3    H175083   2.069   6.076  11.076 -1.0154  0.1835 -1.2598
17864TIP3    H275084   2.197   6.075  10.995  0.1295  0.6576  0.4815
17865TIP3   OH275085   3.403   2.918   5.120 -0.1265 -0.2645  0.2131
17865TIP3    H175086   3.449   2.997   5.092 -0.4767  0.1574  0.7930
17865TIP3    H275087   3.447   2.846   5.074  1.3701  0.0863  1.0355
17866TIP3   OH275088   5.757   3.701  15.943 -0.2865  0.4054 -0.4609
17866TIP3    H175089   5.759   3.614  15.902 -1.1720  0.2043 -0.0849
17866TIP3    H275090   5.841   3.740  15.919  0.2048 -0.6244 -0.4825
17867TIP3   OH275091   4.844   4.514  10.995 -0.3025  0.0393  0.0185
17867TIP3    H175092   4.825   4.571  10.921  0.2784  1.4658  0.9217
17867TIP3    H275093   4.797   4.553  11.069 -0.3606 -0.9854  0.5473
17868TIP3   OH275094   3.319   5.773  15.122  0.4829 -0.1662  0.0943
17868TIP3    H175095   3.268   5.696  15.100  1.4292 -0.6388 -0.4753
17868TIP3    H275096   3.348   5.808  15.038  0.6993  0.3835  0.3893
17869TIP3   OH275097   0.049   3.803   0.825  0.3036  0.5997  0.2487
17869TIP3    H175098  -0.021   3.847   0.777 -0.2028  0.4837  0.8742
17869TIP3    H275099   0.116   3.871   0.837  1.3202  0.1605 -2.2750
17870TIP3   OH275100   4.993   1.587  16.147  0.6524 -0.0853 -0.4149
17870TIP3    H175101   5.056   1.656  16.128 -1.1777  1.8290  0.2315
17870TIP3    H275102   4.937   1.584  16.069  0.4955 -0.6087 -0.2858
17871TIP3   OH275103   2.056   1.555  10.963  1.1769 -0.4002  0.3475
17871TIP3    H175104   2.121   1.534  10.896  1.7305 -0.5720  0.9229
17871TIP3    H275105   2.056   1.478  11.021 -0.2886 -0.8425 -0.2093
17872TIP3   OH275106   1.101   2.713  15.064 -0.1063  0.6348  0.3934
17872TIP3    H175107   1.062   2.800  15.052 -2.8929 -0.7872 -2.4126
17872TIP3    H275108   1.140   2.693  14.979  2.1397 -0.2087  1.5514
17873TIP3   OH275109   0.749   5.074  13.905  0.0904  0.0335 -0.1294
17873TIP3    H175110   0.694   5.085  13.983  2.2778  0.5381  1.4186
17873TIP3    H275111   0.745   4.980  13.886 -2.0917  0.1792 -0.7489
17874TIP3   OH275112   6.418   1.157  11.843  0.1820 -0.6320 -0.1474
17874TIP3    H175113   6.462   1.208  11.911  2.2101 -0.5559 -1.4199
17874TIP3    H275114   6.413   1.217  11.768 -3.4916 -0.1385  0.2896
17875TIP3   OH275115   6.540   1.044   0.319  0.8598  0.1924 -0.7374
17875TIP3    H175116   6.462   1.071   0.270 -0.0002  0.1827  0.5813
17875TIP3    H275117   6.609   1.040   0.253 -0.3409 -0.2008 -2.0218
17876TIP3   OH275118   3.434   1.746  13.089 -0.6969 -0.2889  0.2144
17876TIP3    H175119   3.398   1.798  13.160  1.3453  1.5789 -0.0033
17876TIP3    H275120   3.427   1.656  13.120 -2.5405  0.2177  1.4674
17877TIP3   OH275121   5.873   4.475   2.637  0.3050 -0.6884 -0.0780
17877TIP3    H175122   5.821   4.545   2.677  0.4455  1.2258 -2.9153
17877TIP3    H275123   5.808   4.420   2.593  0.4060  0.1282 -1.3175
17878TIP3   OH275124   4.803   2.639  12.591 -0.1542  0.0449  0.2296
17878TIP3    H175125   4.767   2.697  12.659  0.3234  0.3139  0.2581
17878TIP3    H275126   4.804   2.693  12.512  0.6431  0.2089  0.3390
17879TIP3   OH275127   4.281   5.193   5.277 -0.4284 -0.1521  0.2101
17879TIP3    H175128   4.315   5.190   5.187 -1.4662 -0.3463 -0.1939
17879TIP3    H275129   4.258   5.285   5.289  0.4298  0.0239  0.5664
17880TIP3   OH275130   1.401   5.884  16.146  0.3158 -0.5161  0.1861
17880TIP3    H175131   1.345   5.962  16.154  1.2697  0.3492 -1.1272
17880TIP3    H275132   1.454   5.884  16.225 -0.3400 -0.3610  0.6319
17881TIP3   OH275133   3.848   1.814   2.139  0.1641 -0.0358  0.2639
17881TIP3    H175134   3.905   1.883   2.174 -0.1227  0.4356 -0.1797
17881TIP3    H275135   3.818   1.849   2.055  1.2433 -1.3554 -0.7088
17882TIP3   OH275136   2.252   5.582   1.014 -0.2332  0.4692  0.4378
17882TIP3    H175137   2.308   5.566   1.091  0.2245  1.3981  0.3114
17882TIP3    H275138   2.180   5.635   1.047 -0.9522 -0.5690  0.5606
17883TIP3   OH275139   6.584   1.325  14.888  0.1559  0.1215 -0.0176
17883TIP3    H175140   6.528   1.312  14.811  0.2461 -1.4142  0.1517
17883TIP3    H275141   6.559   1.255  14.948  0.4264  1.0142  1.1711
17884TIP3   OH275142   2.821   3.965   6.770  0.7207  0.6701  0.2000
17884TIP3    H175143   2.775   3.966   6.686 -0.1162 -1.2023  0.5761
17884TIP3    H275144   2.914   3.961   6.746  0.5084  0.4290 -0.6337
17885TIP3   OH275145   4.262   4.357   0.165  0.4814  0.4193  0.2786
17885TIP3    H175146   4.234   4.422   0.100  1.5741  0.8021  0.1713
17885TIP3    H275147   4.218   4.384   0.246  0.6263  1.0776  0.1449
17886TIP3   OH275148   0.433   6.704  14.825 -0.0609 -0.0594  0.0354
17886TIP3    H175149   0.440   6.609  14.820 -0.2041 -0.0307 -0.9127
17886TIP3    H275150   0.384   6.720  14.905  0.2598 -0.7655  0.3832
17887TIP3   OH275151   0.180   6.118   2.263 -0.8033  0.0646 -0.5138
17887TIP3    H175152   0.182   6.200   2.214 -4.0511  0.6187  0.0439
17887TIP3    H275153   0.179   6.050   2.196  1.3966  0.4245 -0.9883
17888TIP3   OH275154   5.293   3.581  11.552  0.2125 -0.1648  0.3498
17888TIP3    H175155   5.333   3.641  11.489 -0.3707  1.2258  1.2627
17888TIP3    H275156   5.364   3.560  11.613  0.2816  0.0117  0.3308
17889TIP3   OH275157   3.624   6.219   4.220  0.2018 -0.3737 -0.4348
17889TIP3    H175158   3.667   6.139   4.187  1.0305  0.3544 -1.1626
17889TIP3    H275159   3.626   6.279   4.146 -1.8010 -0.1788 -0.3824
17890TIP3   OH275160   4.748   3.369   1.238 -0.2333 -0.0845  0.3917
17890TIP3    H175161   4.710   3.414   1.314  0.7794 -0.1446  0.9454
17890TIP3    H275162   4.674   3.356   1.179 -0.6889  1.6877  0.5090
17891TIP3   OH275163   5.750   3.196   6.133 -0.0879 -0.1215  0.4829
17891TIP3    H175164   5.733   3.179   6.226 -0.3915  1.5411  0.7578
17891TIP3    H275165   5.844   3.187   6.123 -0.0398 -0.1867  0.9786
17892TIP3   OH275166   5.782   1.318  14.813  0.1378  0.0217 -0.0973
17892TIP3    H175167   5.697   1.275  14.801 -0.3734 -0.0348  3.0198
17892TIP3    H275168   5.830   1.261  14.873  0.4465  2.4053  2.1044
17893TIP3   OH275169   5.783   0.859   4.978  0.4312  0.1387  0.6855
17893TIP3    H175170   5.811   0.923   4.912  0.3981  0.4815  1.0016
17893TIP3    H275171   5.822   0.777   4.949  1.4459  0.5324  0.9117
17894TIP3   OH275172   0.301   1.133  11.737 -0.6041 -0.8623  0.3598
17894TIP3    H175173   0.267   1.162  11.652 -0.5652 -0.8982  0.3313
17894TIP3    H275174   0.224   1.110  11.788 -0.5731 -3.1096 -0.4772
17895TIP3   OH275175   2.301   6.281  16.688  0.1896 -0.1765 -0.3040
17895TIP3    H175176   2.296   6.191  16.720  2.6363 -0.5018 -0.6816
17895TIP3    H275177   2.338   6.331  16.760  0.9326  0.0881 -0.8593
17896TIP3   OH275178   2.249   6.371   2.033 -0.2720  0.1811  0.2316
17896TIP3    H175179   2.285   6.446   1.985 -0.6471  0.1827 -0.0509
17896TIP3    H275180   2.324   6.336   2.082  1.0660 -1.9888 -3.0074
17897TIP3   OH275181   0.993   3.284   5.920  0.3213 -0.2048 -0.0520
17897TIP3    H175182   0.917   3.280   5.861  0.6163  1.4459 -0.5819
17897TIP3    H275183   0.961   3.329   5.998  0.0617 -1.9645  0.9223
17898TIP3   OH275184   3.902   3.764  12.409 -0.0532 -0.0273  0.2051
17898TIP3    H175185   3.976   3.716  12.372  0.2098  1.0985 -0.7728
17898TIP3    H275186   3.889   3.724  12.495 -1.1438 -3.2252 -1.2813
17899TIP3   OH275187   3.405   5.743   0.055 -0.2282  0.4171 -0.4905
17899TIP3    H175188   3.368   5.715  -0.029  1.2432  0.1345 -1.0811
17899TIP3    H275189   3.478   5.800   0.031  1.7936 -1.6241  0.4905
17900TIP3   OH275190   5.691   3.914   1.689  0.2915  0.4586 -0.1019
17900TIP3    H175191   5.741   3.917   1.770 -0.0905  0.9818  0.1175
17900TIP3    H275192   5.641   3.832   1.694  1.7062 -0.4775 -0.6860
17901TIP3   OH275193   4.902   3.765   6.470 -0.0320  0.5415  0.3586
17901TIP3    H175194   4.880   3.672   6.472  0.0268  0.5401  1.0430
17901TIP3    H275195   4.887   3.790   6.379  0.1014 -0.1695  0.1307
17902TIP3   OH275196   5.377   2.053   4.552  0.5641 -1.0089 -0.4463
17902TIP3    H175197   5.344   2.110   4.483  1.1551 -1.0666 -0.7890
17902TIP3    H275198   5.415   2.113   4.616  2.0280 -1.0163 -1.2480
17903TIP3   OH275199   3.346   3.265  14.798  0.2015 -0.2731 -0.0727
17903TIP3    H175200   3.398   3.303  14.727  0.0870  0.0595  0.0196
17903TIP3    H275201   3.258   3.300  14.785  0.5818  1.3713  1.3460
17904TIP3   OH275202   4.000   3.417  11.695  0.3537 -0.0240  0.2070
17904TIP3    H175203   3.979   3.496  11.646  0.9573  0.6646  1.0193
17904TIP3    H275204   4.093   3.426  11.717  0.1705 -0.4280  1.2345
17905TIP3   OH275205   2.038   0.936  14.948 -0.4445  0.0144 -0.6648
17905TIP3    H175206   2.040   0.919  14.853 -0.8631 -0.7250 -0.5456
17905TIP3    H275207   1.974   1.007  14.957 -2.6399 -1.8545 -0.6775
17906TIP3   OH275208   3.533   4.959   5.403 -0.6278  0.2993 -0.1360
17906TIP3    H175209   3.542   4.933   5.311 -2.1359 -3.3396  0.5731
17906TIP3    H275210   3.549   5.053   5.403  2.4646  0.0080 -3.6279
17907TIP3   OH275211   3.140   6.806   4.333  0.0355 -0.0055 -0.1055
17907TIP3    H175212   3.197   6.853   4.272  0.0297  0.2933  0.1167
17907TIP3    H275213   3.072   6.768   4.278  0.2857 -0.1148 -0.3376
17908TIP3   OH275214   2.693   6.728   6.775  0.0473 -0.0050 -0.3700
17908TIP3    H175215   2.672   6.817   6.803 -0.9996  0.1993 -1.6980
17908TIP3    H275216   2.627   6.708   6.708  2.3711 -0.4476 -2.6732
17909TIP3   OH275217   0.308   4.285  15.277  0.1271 -0.4948 -0.4498
17909TIP3    H175218   0.234   4.227  15.260  1.4147 -1.9138 -1.4832
17909TIP3    H275219   0.357   4.242  15.347  0.1179  0.2955  0.0491
17910TIP3   OH275220   2.548   2.388  14.919  0.1384 -0.0066  0.0500
17910TIP3    H175221   2.532   2.355  14.830  2.5462 -0.1944 -0.3858
17910TIP3    H275222   2.640   2.417  14.917  0.1912  0.1261  2.4453
17911TIP3   OH275223   5.899   3.632   3.436 -0.5858  0.3300 -0.0953
17911TIP3    H175224   5.953   3.704   3.404  1.0466 -0.8709 -0.1982
17911TIP3    H275225   5.881   3.654   3.527 -0.8933  1.2950 -0.3797
17912TIP3   OH275226   3.391   4.513   1.160 -0.2636 -0.5174 -0.2405
17912TIP3    H175227   3.382   4.501   1.254  0.3147 -0.8717 -0.2249
17912TIP3    H275228   3.359   4.602   1.144  1.6079  0.3822  0.6089
17913TIP3   OH275229   1.394   5.623  11.111 -0.3756 -0.6439  0.1263
17913TIP3    H175230   1.362   5.636  11.200  0.5194  2.7371  0.0974
17913TIP3    H275231   1.316   5.623  11.057 -1.0448 -3.9503  0.8661
17914TIP3   OH275232   1.947   5.829  13.458 -0.1048  0.0370  0.4529
17914TIP3    H175233   1.853   5.844  13.443 -0.1783 -0.8105 -0.0218
17914TIP3    H275234   1.968   5.880  13.536 -0.3184  2.5897 -1.0540
17915TIP3   OH275235   1.415   0.041  12.602 -0.2274 -0.1461  0.2499
17915TIP3    H175236   1.342   0.009  12.549  2.1453 -4.7806 -0.8286
17915TIP3    H275237   1.480   0.070  12.538  0.2627  0.3986  0.9735
17916TIP3   OH275238   4.058   3.126  11.430 -0.6045 -0.4617  0.1690
17916TIP3    H175239   4.104   3.154  11.509 -0.3528  2.8210 -1.0048
17916TIP3    H275240   3.965   3.131  11.453 -0.5170 -0.3270  0.4954
17917TIP3   OH275241   2.422   0.311   4.835 -0.9277 -0.1711  0.4450
17917TIP3    H175242   2.486   0.381   4.820 -1.6407  0.5841  0.9042
17917TIP3    H275243   2.385   0.295   4.748 -1.6421  0.8864  0.5399
17918TIP3   OH275244   0.883   0.722   3.141 -0.1032 -0.5901  0.0684
17918TIP3    H175245   0.797   0.688   3.117 -0.7525  1.4922 -0.8179
17918TIP3    H275246   0.901   0.685   3.227 -1.9202 -1.0343  0.2890
17919TIP3   OH275247   0.019   3.680   2.174 -0.1631 -0.2556 -0.1907
17919TIP3    H175248   0.076   3.646   2.105 -0.1205  0.1077 -0.3324
17919TIP3    H275249   0.002   3.604   2.229 -1.4130 -0.9281 -1.4331
17920TIP3   OH275250   2.867   3.400  17.233  0.4693  0.6468 -0.4651
17920TIP3    H175251   2.808   3.328  17.212 -0.9780  1.2084  1.3287
17920TIP3    H275252   2.880   3.393  17.328  1.3069  1.9907 -0.4507
17921TIP3   OH275253   3.756   6.243  13.836  0.4628  0.3314 -0.3067
17921TIP3    H175254   3.716   6.239  13.750 -0.7422 -0.8047  0.2601
17921TIP3    H275255   3.840   6.197  13.826 -0.2008 -0.8607 -0.6269
17922TIP3   OH275256   4.627   3.613  15.955  0.6810 -0.1563 -0.1487
17922TIP3    H175257   4.570   3.646  15.885  2.0688  1.3586 -0.6040
17922TIP3    H275258   4.637   3.686  16.015 -0.3799 -1.3972  1.6427
17923TIP3   OH275259   0.491   3.120  15.036  0.0358 -0.0058  0.2220
17923TIP3    H175260   0.560   3.055  15.018  0.6399  1.1739 -1.9823
17923TIP3    H275261   0.441   3.081  15.108  0.4665 -2.8549 -0.8640
17924TIP3   OH275262   2.307   4.264   4.779  0.0971 -0.0326 -0.1148
17924TIP3    H175263   2.340   4.353   4.769 -0.1811 -0.0056 -0.8287
17924TIP3    H275264   2.219   4.267   4.742  0.5636 -0.9148 -1.3504
17925TIP3   OH275265   0.410   0.632  14.255 -0.2372 -0.2803  0.4402
17925TIP3    H175266   0.485   0.619  14.312  0.3357  0.6079 -0.1006
17925TIP3    H275267   0.386   0.724  14.266 -0.2282 -0.1395 -0.6151
17926TIP3   OH275268   0.762   4.710   2.346  0.4550 -0.2248  0.9613
17926TIP3    H175269   0.748   4.776   2.278  0.2478  0.2777  1.4836
17926TIP3    H275270   0.714   4.743   2.422 -0.0543 -1.2148  1.0867
17927TIP3   OH275271   2.613   0.750   5.231 -0.0606  0.8317 -0.4101
17927TIP3    H175272   2.663   0.801   5.168  2.1710 -1.7612 -0.9426
17927TIP3    H275273   2.542   0.712   5.181 -1.1339  2.4825 -0.2245
17928TIP3   OH275274   4.602   6.240   5.383 -0.0765  0.0594  0.5292
17928TIP3    H175275   4.679   6.186   5.401  0.6052  0.7791 -0.1059
17928TIP3    H275276   4.537   6.179   5.349 -0.0767 -0.6882  1.8000
17929TIP3   OH275277   5.713   4.481  11.863  0.0052 -0.0020  0.3322
17929TIP3    H175278   5.706   4.541  11.937  0.4497 -0.8529  1.0869
17929TIP3    H275279   5.648   4.512  11.801  0.1519  1.1929  0.7478
17930TIP3   OH275280   6.618   1.144   0.566  0.2505  0.3510 -0.0477
17930TIP3    H175281   6.645   1.121   0.477 -0.1479  1.9050 -0.6025
17930TIP3    H275282   6.560   1.219   0.554 -3.1582 -1.8845  1.2088
17931TIP3   OH275283   1.825   1.289   0.247  0.6992 -0.6143  0.8215
17931TIP3    H175284   1.815   1.239   0.165  3.7073  0.9638 -0.6808
17931TIP3    H275285   1.903   1.251   0.288  1.0589  0.6612  1.3483
17932TIP3   OH275286   0.408   4.807   3.237  0.2759 -0.0436  0.3427
17932TIP3    H175287   0.402   4.900   3.263 -0.1151  0.2780 -0.8470
17932TIP3    H275288   0.410   4.809   3.141  0.1024 -1.2833  0.3015
17933TIP3   OH275289   4.493   2.681   0.380  0.4379  0.3365 -0.5116
17933TIP3    H175290   4.496   2.771   0.348 -0.6959 -0.0991 -1.8862
17933TIP3    H275291   4.409   2.647   0.352  1.6379 -1.8034 -1.7917
17934TIP3   OH275292   3.055   0.147   2.523 -0.2802 -0.3964  0.5499
17934TIP3    H175293   3.031   0.240   2.528 -1.9252 -0.7336 -0.5960
17934TIP3    H275294   3.144   0.148   2.488  0.6339  0.8076  2.7168
17935TIP3   OH275295   0.275   6.458   5.154  0.0262  0.6076 -0.1891
17935TIP3    H175296   0.261   6.504   5.237  1.6496  2.1360 -0.6967
17935TIP3    H275297   0.289   6.367   5.179 -3.2263  0.2771  0.8505
17936TIP3   OH275298   6.150   0.447   1.204  0.3416  0.8236  0.4626
17936TIP3    H175299   6.122   0.399   1.126 -0.1822 -0.0253  1.1506
17936TIP3    H275300   6.100   0.529   1.201 -2.5900 -0.7468  1.7844
17937TIP3   OH275301   5.734   2.110  13.055  0.4610  0.8097  0.3165
17937TIP3    H175302   5.676   2.045  13.017  0.9432 -0.5849  1.8670
17937TIP3    H275303   5.723   2.187  13.000  0.3807 -0.7648 -1.9801
17938TIP3   OH275304   0.321   4.103   1.128  0.6742 -0.5247 -0.2829
17938TIP3    H175305   0.389   4.129   1.191  0.0974 -0.0207  0.1400
17938TIP3    H275306   0.241   4.102   1.180  0.3715 -1.2175 -0.7585
17939TIP3   OH275307   1.504   2.442  16.535  0.3879 -0.4909  0.1837
17939TIP3    H175308   1.570   2.378  16.509  1.1129  0.0114  0.7513
17939TIP3    H275309   1.550   2.526  16.531 -0.2603 -0.1229  0.4400
17940TIP3   OH275310   5.198   2.195  11.341  0.9635  0.2348  0.3953
17940TIP3    H175311   5.273   2.219  11.287  0.9895  1.1304  0.8143
17940TIP3    H275312   5.164   2.115  11.301  1.5145  0.3965 -0.4124
17941TIP3   OH275313   2.164   6.153   5.128 -0.3786  0.4320  0.0982
17941TIP3    H175314   2.150   6.074   5.181 -3.3447 -0.4507 -1.7792
17941TIP3    H275315   2.110   6.219   5.171  0.4265  0.8899  0.4355
17942TIP3   OH275316   4.882   6.330   4.319  0.1096  0.5118 -0.0402
17942TIP3    H175317   4.789   6.310   4.326  0.1699  0.2764  0.1167
17942TIP3    H275318   4.890   6.421   4.348 -0.0133  0.3989  0.3443
17943TIP3   OH275319   6.457   4.238   0.260  0.0169  0.1775 -0.6676
17943TIP3    H175320   6.542   4.258   0.223  0.0923 -1.5613 -1.5294
17943TIP3    H275321   6.415   4.324   0.272  1.9917  1.0889  0.1382
17944TIP3   OH275322   3.088   3.869  12.510 -0.0607  0.2047 -0.6076
17944TIP3    H175323   3.056   3.954  12.482  1.0029  1.2823  1.2091
17944TIP3    H275324   3.150   3.843  12.442  1.9637  2.4177  0.2091
17945TIP3   OH275325   0.428   2.303   0.746 -0.4984  0.3341 -0.2067
17945TIP3    H175326   0.488   2.315   0.673  0.5002  0.8839  0.6810
17945TIP3    H275327   0.458   2.223   0.789 -2.2406 -1.0769 -1.4449
17946TIP3   OH275328   0.954   1.528  13.454  0.3871 -0.5968 -0.2201
17946TIP3    H175329   1.015   1.602  13.459  0.1250 -0.3988  0.1717
17946TIP3    H275330   0.982   1.478  13.377  3.8216 -2.9553  2.2346
17947TIP3   OH275331   3.385   6.113  15.847  0.5370 -0.2637  0.2835
17947TIP3    H175332   3.473   6.079  15.829  1.5133  2.1479  0.1744
17947TIP3    H275333   3.396   6.166  15.926 -0.3279  1.7370 -0.8741
17948TIP3   OH275334   0.450   4.384   5.310  0.1199 -0.2037 -0.1527
17948TIP3    H175335   0.360   4.355   5.293  0.2957 -1.9098  1.5391
17948TIP3    H275336   0.461   4.461   5.254 -2.6249  0.4982  0.1535
17949TIP3   OH275337   5.706   3.221  11.523  0.0414  0.4211  0.0950
17949TIP3    H175338   5.771   3.161  11.560 -2.1355 -2.2047  0.0467
17949TIP3    H275339   5.736   3.308  11.549  1.7625 -0.8615  2.9799
17950TIP3   OH275340   3.740   1.445   0.680 -0.0706 -0.4640  0.7434
17950TIP3    H175341   3.732   1.518   0.742  0.6120 -1.0079  1.5029
17950TIP3    H275342   3.835   1.432   0.671 -0.1616 -0.4130 -0.4162
17951TIP3   OH275343   4.609   1.215  10.941 -0.2019  0.2968 -0.1606
17951TIP3    H175344   4.640   1.235  10.853  1.7699 -0.2870  0.3531
17951TIP3    H275345   4.563   1.132  10.932 -0.6531  0.6002 -0.7493
17952TIP3   OH275346   5.311   2.904  16.891  0.9607  0.3719 -0.5311
17952TIP3    H175347   5.353   2.990  16.887  0.1084  0.7869 -0.7696
17952TIP3    H275348   5.278   2.889  16.802  0.7097  0.0058 -0.3785
17953TIP3   OH275349   6.465   0.912  13.360 -0.0518 -0.1342  0.3742
17953TIP3    H175350   6.463   1.004  13.384 -0.3479 -0.0919  0.1924
17953TIP3    H275351   6.556   0.886  13.372  0.0194  0.1649  0.4879
17954TIP3   OH275352   0.060   4.649  14.998  0.6775  0.0116  0.5224
17954TIP3    H175353   0.057   4.570  15.052  1.3045  0.0068  0.5583
17954TIP3    H275354   0.153   4.663  14.981  0.5635  0.6616  0.4004
17955TIP3   OH275355   2.372   2.308   4.312 -0.1308  0.2833 -0.2077
17955TIP3    H175356   2.365   2.326   4.406  0.0966 -0.5656 -0.0179
17955TIP3    H275357   2.282   2.303   4.282 -0.2117  0.2523  0.0346
17956TIP3   OH275358   2.515   2.915   0.777 -0.3498 -0.0056 -0.1269
17956TIP3    H175359   2.599   2.899   0.733  0.1756 -0.0737  0.8666
17956TIP3    H275360   2.484   2.827   0.801 -0.0127  0.0987  0.7309
17957TIP3   OH275361   1.450   1.751   6.147 -0.4031 -0.4509  0.5224
17957TIP3    H175362   1.515   1.689   6.112  0.8611  1.5577 -0.9280
17957TIP3    H275363   1.471   1.757   6.241 -0.0087 -1.5727  0.5185
17958TIP3   OH275364   1.707   3.126  13.431  0.4681  0.2159  0.0021
17958TIP3    H175365   1.687   3.159  13.519  1.5195 -0.6674  0.5952
17958TIP3    H275366   1.652   3.049  13.421 -0.5705  1.0164 -0.6252
17959TIP3   OH275367   4.390   3.561  10.555 -0.6727 -0.2368  0.3981
17959TIP3    H175368   4.313   3.615  10.538 -0.6004  0.0549  0.9988
17959TIP3    H275369   4.425   3.542  10.468 -1.4442 -0.4080  0.1148
17960TIP3   OH275370   1.328   0.224   3.138 -0.1923 -0.8662  0.0016
17960TIP3    H175371   1.422   0.208   3.143  0.2873  1.4473 -0.2988
17960TIP3    H275372   1.314   0.260   3.051 -1.4300 -1.4523 -0.0709
17961TIP3   OH275373   5.438   5.144  13.684 -0.1605 -0.4996  0.5205
17961TIP3    H175374   5.391   5.121  13.604 -1.1071  0.4593  0.7745
17961TIP3    H275375   5.531   5.141  13.660 -0.4416  0.3298 -0.7796
17962TIP3   OH275376   4.285   6.036  13.075  0.2243  0.3974  0.3102
17962TIP3    H175377   4.365   5.984  13.067  1.2911  1.7758  1.3829
17962TIP3    H275378   4.244   6.031  12.989  1.8384  0.2112 -0.4777
17963TIP3   OH275379   4.052   5.083   6.026 -0.0952  0.6237  0.0933
17963TIP3    H175380   4.072   5.170   5.992  0.0438  0.4459 -0.2836
17963TIP3    H275381   4.088   5.023   5.960  0.8564  0.2661  0.9082
17964TIP3   OH275382   2.652   2.686   1.838 -0.0656  0.2500 -0.0504
17964TIP3    H175383   2.727   2.740   1.861  1.2362 -1.6699  0.4287
17964TIP3    H275384   2.623   2.647   1.921  0.7458 -1.8426 -0.6757
17965TIP3   OH275385   6.509   4.100  14.762 -0.0280 -0.4334  0.2238
17965TIP3    H175386   6.603   4.101  14.745  0.7126  0.2024  3.6176
17965TIP3    H275387   6.486   4.007  14.765 -0.0436 -0.6137 -2.5081
17966TIP3   OH275388   0.401   0.574   2.880  0.2531  0.0291 -0.0765
17966TIP3    H175389   0.386   0.511   2.810  0.1291 -0.4784  0.4015
17966TIP3    H275390   0.314   0.609   2.901  0.6187  2.9482 -2.6664
17967TIP3   OH275391   0.997   1.047  13.979 -0.0610 -0.1791  0.3019
17967TIP3    H175392   1.090   1.069  13.985 -0.2262  0.6815 -0.1022
17967TIP3    H275393   0.995   0.951  13.971  0.7904 -0.1915  0.1723
17968TIP3   OH275394   6.513   5.483  11.037 -0.0110  0.1601 -0.5807
17968TIP3    H175395   6.475   5.395  11.040 -0.5697  0.4215  0.6129
17968TIP3    H275396   6.438   5.542  11.040  0.4245  0.6831  1.6090
17969TIP3   OH275397   3.927   6.089   6.025  0.0567  0.1633 -0.1318
17969TIP3    H175398   3.924   6.135   5.941  0.3243  1.3020  0.4506
17969TIP3    H275399   4.000   6.130   6.071  0.7453 -1.3529  0.1585
17970TIP3   OH275400   5.631   1.624   5.793 -0.0521 -0.0763 -0.5364
17970TIP3    H175401   5.574   1.663   5.727  0.7445 -0.9217 -1.7549
17970TIP3    H275402   5.614   1.530   5.787 -1.8476 -0.0601  2.2595
17971TIP3   OH275403   5.960   5.704  11.498  0.0421 -0.1156  0.0146
17971TIP3    H175404   5.920   5.621  11.526 -0.4542 -0.5877 -1.9952
17971TIP3    H275405   5.927   5.719  11.410 -0.5445  2.6883  0.6171
17972TIP3   OH275406   3.901   6.639   2.263 -0.2441  0.6196  0.1541
17972TIP3    H175407   3.943   6.723   2.248 -0.5921  0.7202 -0.2843
17972TIP3    H275408   3.971   6.581   2.294  0.3494  0.6175 -1.1286
17973TIP3   OH275409   6.670   0.172   1.711  0.4559 -0.1231  0.6340
17973TIP3    H175410   6.581   0.183   1.677  0.5944  0.1509  0.3544
17973TIP3    H275411   6.663   0.190   1.804  0.9158  3.9120  0.0613
17974TIP3   OH275412   5.976   1.126   2.400 -0.0820  0.5223 -0.5672
17974TIP3    H175413   6.064   1.157   2.421 -0.3710 -0.1326  1.9469
17974TIP3    H275414   5.935   1.111   2.486 -1.9717 -1.0650 -1.6693
17975TIP3   OH275415   2.009   3.180   0.403 -0.1966  0.0943 -0.2980
17975TIP3    H175416   2.004   3.264   0.356 -0.7427 -0.0774 -0.5586
17975TIP3    H275417   2.011   3.114   0.333 -3.6750 -0.3256 -0.1755
17976TIP3   OH275418   2.185   6.751  13.198 -0.2863  0.3444  0.3780
17976TIP3    H175419   2.219   6.671  13.239 -0.3130  0.4530  0.6171
17976TIP3    H275420   2.093   6.752  13.222 -0.0153  1.1059  1.4639
17977TIP3   OH275421   0.970   1.272  17.080  0.3145  0.2486 -0.0033
17977TIP3    H175422   0.969   1.367  17.069  1.5730  0.2974  0.1658
17977TIP3    H275423   1.022   1.240  17.006 -1.1026 -0.4436 -0.7689
17978TIP3   OH275424   2.786   4.036  12.952  0.6418  0.2015  0.6649
17978TIP3    H175425   2.723   3.966  12.938  1.2820 -0.2603  0.0280
17978TIP3    H275426   2.838   4.008  13.027  1.5591 -0.5043 -0.2130
17979TIP3   OH275427   2.121   6.260  12.970 -0.2276 -0.5739  0.1332
17979TIP3    H175428   2.107   6.188  12.908 -0.2600  0.3863 -1.0097
17979TIP3    H275429   2.037   6.272  13.013  0.1325 -2.0930  1.3143
17980TIP3   OH275430   6.459   6.362  13.806 -0.0018  0.1180 -0.2479
17980TIP3    H175431   6.420   6.445  13.778  1.2452  0.9706  0.4562
17980TIP3    H275432   6.507   6.331  13.730 -0.6720 -0.0992 -0.5920
17981TIP3   OH275433   3.863   1.918  15.659  0.1013  0.0420  0.1364
17981TIP3    H175434   3.861   1.912  15.754  0.6766 -0.7228  0.1102
17981TIP3    H275435   3.948   1.959  15.640  0.6030 -1.0568 -0.0851
17982TIP3   OH275436   1.065   2.449  11.524 -0.9755  0.5855  0.5488
17982TIP3    H175437   1.130   2.382  11.546 -2.1259 -0.7294  0.0888
17982TIP3    H275438   1.117   2.528  11.506  0.4660 -0.3665  0.3745
17983TIP3   OH275439   3.680   2.557  15.670  0.2709  0.3271  0.1134
17983TIP3    H175440   3.765   2.540  15.630  0.2239  0.8621 -0.2268
17983TIP3    H275441   3.636   2.472  15.672  0.9028  0.0086  0.5070
17984TIP3   OH275442   4.479   1.286   6.227  0.3118 -0.3094 -0.4378
17984TIP3    H175443   4.445   1.371   6.197  1.6681  0.6121  0.5017
17984TIP3    H275444   4.401   1.237   6.254 -0.5841  0.2682 -1.8620
17985TIP3   OH275445   6.080   3.250  13.768 -0.0174  0.7471 -0.2781
17985TIP3    H175446   6.108   3.226  13.856 -0.5970  0.2264 -0.2330
17985TIP3    H275447   6.098   3.171  13.715  2.6050  1.8047 -1.1653
17986TIP3   OH275448   2.704   3.755  11.947 -0.1095 -0.0364 -0.4830
17986TIP3    H175449   2.708   3.843  11.984 -0.5870 -0.1566 -0.1298
17986TIP3    H275450   2.699   3.697  12.023  0.5194 -0.3914 -0.7086
17987TIP3   OH275451   5.446   4.706  16.598  0.1145  0.0057  1.0247
17987TIP3    H175452   5.447   4.617  16.561 -2.7785  0.7027 -1.0663
17987TIP3    H275453   5.443   4.764  16.522  1.6563  1.9360  2.3477
17988TIP3   OH275454   4.887   4.425   0.919 -0.1265 -0.5187  0.2301
17988TIP3    H175455   4.810   4.372   0.938  1.0648 -2.4875 -0.1312
17988TIP3    H275456   4.959   4.361   0.910  1.0599  0.9774 -2.0390
17989TIP3   OH275457   0.444   0.091  14.260  0.4314  0.8280 -0.1864
17989TIP3    H175458   0.402   0.170  14.294  0.3330  1.0593 -0.8361
17989TIP3    H275459   0.437   0.098  14.165 -1.2249 -0.8534 -0.2433
17990TIP3   OH275460   1.079   3.521  12.469 -0.5489  0.1945 -0.2458
17990TIP3    H175461   1.003   3.481  12.428 -0.9026  1.5537 -0.9686
17990TIP3    H275462   1.047   3.553  12.553 -0.0746 -1.6733  0.6892
17991TIP3   OH275463   0.473   5.727  12.697 -0.3658  0.3456  0.1013
17991TIP3    H175464   0.482   5.640  12.736 -3.8426  0.2768  1.0466
17991TIP3    H275465   0.484   5.713  12.603  0.2170 -0.9117  0.3399
17992TIP3   OH275466   5.369   0.049  16.738 -0.1899  0.6592 -0.3572
17992TIP3    H175467   5.315   0.008  16.806  0.1254 -1.4824 -1.3539
17992TIP3    H275468   5.457   0.017  16.754 -0.2954 -0.9037 -2.4445
17993TIP3   OH275469   1.518   1.213   0.316  0.2609  0.1364  0.5473
17993TIP3    H175470   1.599   1.248   0.353 -0.2525  2.0838 -0.0954
17993TIP3    H275471   1.520   1.239   0.224 -1.7276  1.4390  0.8276
17994TIP3   OH275472   5.744   0.890  11.894 -0.1035  0.1743  0.2898
17994TIP3    H175473   5.690   0.827  11.846 -0.9927  0.4076  0.9412
17994TIP3    H275474   5.721   0.975  11.856  0.7504  0.1585 -0.2786
17995TIP3   OH275475   2.700   5.813  16.323  0.7189  0.1009 -0.0069
17995TIP3    H175476   2.669   5.839  16.236  2.1416  0.6278 -0.3846
17995TIP3    H275477   2.656   5.874  16.383 -3.1680 -2.4795  0.1711
17996TIP3   OH275478   2.603   4.800   1.956 -0.7019  0.1916 -0.1674
17996TIP3    H175479   2.512   4.818   1.933 -1.0474 -2.2099 -0.9839
17996TIP3    H275480   2.598   4.760   2.043 -0.2741  1.0607  0.2756
17997TIP3   OH275481   0.900   6.315   4.851 -0.9178  0.4233  0.1474
17997TIP3    H175482   0.903   6.361   4.935  1.0494 -0.3291  0.5383
17997TIP3    H275483   0.842   6.240   4.868 -0.8344  0.4808  0.7218
17998TIP3   OH275484   3.990   2.600   3.069 -0.1525 -0.1007  0.8586
17998TIP3    H175485   4.029   2.661   3.132  3.7484 -2.2521  0.8197
17998TIP3    H275486   3.965   2.525   3.122 -2.5182  0.4000  0.5467
17999TIP3   OH275487   2.667   1.392   5.620  0.0548 -0.1120 -0.6592
17999TIP3    H175488   2.737   1.348   5.572  1.2389  0.6181  0.3313
17999TIP3    H275489   2.677   1.362   5.710  0.6104  1.7502 -0.0477
18000TIP3   OH275490   0.834   2.022  13.469  0.0038 -0.0054  0.3784
18000TIP3    H175491   0.818   2.105  13.425  2.4927  0.3166 -0.0902
18000TIP3    H275492   0.749   1.979  13.471 -0.6418  0.8006 -3.0137
18001TIP3   OH275493   1.535   5.665  17.054 -0.8070  0.1706 -0.3047
18001TIP3    H175494   1.475   5.595  17.028 -2.6931  0.9170  1.7501
18001TIP3    H275495   1.484   5.721  17.112  1.9203  0.7924  1.7292
18002TIP3   OH275496   4.462   1.637   6.372 -0.3252  0.3598  0.1078
18002TIP3    H175497   4.514   1.565   6.406  0.5836  0.0270 -1.8386
18002TIP3    H275498   4.459   1.623   6.277 -1.8774  1.7517 -0.1134
18003TIP3   OH275499   4.965   4.528   3.932 -0.6183  0.3710 -0.2211
18003TIP3    H175500   5.054   4.549   3.959 -0.0803 -0.3091 -1.4106
18003TIP3    H275501   4.911   4.596   3.973  0.4743  0.9920  0.2272
18004TIP3   OH275502   1.596   3.169   0.491 -0.2846 -0.5683  0.0110
18004TIP3    H175503   1.530   3.155   0.559  0.9205 -1.1059  1.1186
18004TIP3    H275504   1.563   3.121   0.416 -0.3985 -2.2090  1.0626
18005TIP3   OH275505   4.193   4.280   2.182  0.1412  0.6823 -0.8123
18005TIP3    H175506   4.205   4.186   2.167 -1.1614  0.5100 -0.8972
18005TIP3    H275507   4.181   4.287   2.277 -1.4929  0.5188 -0.9762
18006TIP3   OH275508   5.695   0.705   3.387 -0.4213 -0.3334 -0.4043
18006TIP3    H175509   5.699   0.626   3.441 -0.6831  0.1319  0.3172
18006TIP3    H275510   5.672   0.673   3.299 -0.3744 -1.0674 -0.1574
18007TIP3   OH275511   3.876   6.073  14.939  0.0921 -0.0042 -0.1058
18007TIP3    H175512   3.908   5.982  14.941 -0.4618 -0.1915  0.3413
18007TIP3    H275513   3.800   6.073  14.996 -0.6533  0.4587 -1.0622
18008TIP3   OH275514   4.961   0.243  14.997 -0.7687  0.3125  0.2758
18008TIP3    H175515   4.913   0.322  14.973  0.4627  1.4467  1.3124
18008TIP3    H275516   4.917   0.211  15.076 -0.6028  0.6275  0.5006
18009TIP3   OH275517   2.859   2.594  14.567 -0.3171 -0.4260 -0.3227
18009TIP3    H175518   2.910   2.530  14.616  0.3727 -1.2667 -2.0486
18009TIP3    H275519   2.861   2.673  14.620 -0.2687 -1.5033  1.3475
18010TIP3   OH275520   4.736   4.291  16.722 -0.5708  0.0864 -0.2120
18010TIP3    H175521   4.712   4.384  16.730 -0.6726  0.0676 -0.2909
18010TIP3    H275522   4.693   4.249  16.797  0.2662  0.2528  0.3751
18011TIP3   OH275523   0.478   0.643   0.676  0.0758  0.2282 -0.1689
18011TIP3    H175524   0.545   0.705   0.703  0.7583  0.1731 -1.6490
18011TIP3    H275525   0.418   0.639   0.750  0.9768  1.2985  0.6517
18012TIP3   OH275526   3.361   2.486  17.244  0.4855  0.2488  0.3040
18012TIP3    H175527   3.341   2.528  17.328  1.1460 -0.2052  0.7038
18012TIP3    H275528   3.437   2.430  17.263 -0.2862 -1.0283 -0.2227
18013TIP3   OH275529   6.804   6.505  11.454  0.0504 -0.2055 -0.0460
18013TIP3    H175530   6.713   6.535  11.457  0.7534  2.1463 -0.7571
18013TIP3    H275531   6.834   6.527  11.366  1.9868  1.2409  0.9233
18014TIP3   OH275532   1.289   2.328   0.905 -0.0433  0.1634 -0.2014
18014TIP3    H175533   1.277   2.359   0.994 -0.1559 -1.0323  0.2247
18014TIP3    H275534   1.202   2.299   0.877  0.3608 -1.4022  0.0858
18015TIP3   OH275535   1.672   4.259   1.440  0.1475 -0.7027  0.3251
18015TIP3    H175536   1.671   4.325   1.370  0.3679 -0.4310  0.5782
18015TIP3    H275537   1.612   4.293   1.506  0.1451 -0.8291  0.3881
18016TIP3   OH275538   3.555   0.585  12.013 -0.4126 -0.3335 -0.0988
18016TIP3    H175539   3.552   0.612  12.105  1.3364  1.6536 -0.5657
18016TIP3    H275540   3.623   0.518  12.011  0.6108  0.6676 -0.1342
18017TIP3   OH275541   4.604   2.588   2.583  0.3924  1.0293  0.0352
18017TIP3    H175542   4.604   2.589   2.487 -0.6584  1.1054  0.0221
18017TIP3    H275543   4.642   2.503   2.606  0.0035  0.7067 -0.4710
18018TIP3   OH275544   3.736   1.926  12.825  0.3506  0.0966  0.3129
18018TIP3    H175545   3.783   1.903  12.745  1.1565  0.5357  0.6519
18018TIP3    H275546   3.652   1.882  12.816  0.3727  0.2421 -0.8389
18019TIP3   OH275547   3.527   6.118   5.224 -0.2202 -0.2881 -0.0396
18019TIP3    H175548   3.477   6.107   5.143  1.4704 -1.1175 -1.0468
18019TIP3    H275549   3.496   6.201   5.260 -2.4681 -0.8874 -0.4322
18020TIP3   OH275550   3.860   6.746   6.043  0.8237 -0.0373 -0.2099
18020TIP3    H175551   3.823   6.759   6.130  1.0763 -1.3449  0.1085
18020TIP3    H275552   3.937   6.803   6.040 -0.0005  1.1258 -0.1320
18021TIP3   OH275553   4.442   1.179  11.934  0.3594 -0.2954 -0.3134
18021TIP3    H175554   4.427   1.085  11.947 -1.9596  0.0725  0.1474
18021TIP3    H275555   4.365   1.221  11.974  0.0586  1.6729 -2.7341
18022TIP3   OH275556   2.084   4.077  15.825  0.3185 -0.7903 -0.0593
18022TIP3    H175557   2.099   4.033  15.742  1.8391 -1.0448  0.3291
18022TIP3    H275558   2.170   4.083  15.866 -0.4089 -0.8057  1.5721
18023TIP3   OH275559   0.613   6.377  12.707  0.0854  0.0713 -0.1093
18023TIP3    H175560   0.563   6.306  12.747  0.8740 -1.1711 -1.2525
18023TIP3    H275561   0.689   6.389  12.764 -1.4010  1.9747  1.6424
18024TIP3   OH275562   6.542   0.612  16.821  0.1505  1.0420 -0.2074
18024TIP3    H175563   6.470   0.549  16.834 -0.7570  2.4284  2.2177
18024TIP3    H275564   6.505   0.678  16.762  0.0508  0.8543 -0.3576
18025TIP3   OH275565   5.581   6.094   3.299  0.1774 -0.3917  0.0684
18025TIP3    H175566   5.561   6.182   3.330 -0.5711 -0.4626 -0.1833
18025TIP3    H275567   5.519   6.037   3.344  0.0398 -0.6720 -0.4606
18026TIP3   OH275568   3.490   1.121   0.712  0.4084  0.0582  0.0042
18026TIP3    H175569   3.521   1.124   0.622  1.9973  1.2076  0.5390
18026TIP3    H275570   3.404   1.163   0.709  2.0166  3.6850 -0.4719
18027TIP3   OH275571   2.255   2.049   2.436  0.5178 -0.1912  0.2790
18027TIP3    H175572   2.164   2.020   2.430  0.2539  0.3676  1.3681
18027TIP3    H275573   2.306   1.971   2.413 -0.2173 -0.2001 -1.5444
18028TIP3   OH275574   5.687   1.886  13.336  0.3818  0.6898  0.4727
18028TIP3    H175575   5.734   1.831  13.273  0.0895 -0.3758  1.1519
18028TIP3    H275576   5.613   1.921  13.287  0.1978 -0.0724  0.1963
18029TIP3   OH275577   1.070   4.851   2.918 -0.1037 -0.2579 -0.9822
18029TIP3    H175578   1.102   4.928   2.872 -0.6453 -1.0411 -2.7431
18029TIP3    H275579   0.975   4.865   2.924 -0.0112 -0.0070  0.2650
18030TIP3   OH275580   6.237   5.108  16.096 -0.6736  0.5758 -0.0085
18030TIP3    H175581   6.311   5.057  16.062 -1.1074 -2.2689  2.7706
18030TIP3    H275582   6.164   5.085  16.039  0.2327  2.6234 -2.1633
18031TIP3   OH275583   5.202   5.513   6.055 -0.4538 -0.4227 -0.1890
18031TIP3    H175584   5.293   5.542   6.057 -0.6910  0.4030 -0.8256
18031TIP3    H275585   5.169   5.531   6.142  0.1825 -1.3840  0.2684
18032TIP3   OH275586   0.546   5.653  11.292 -0.3151  0.0231 -0.2496
18032TIP3    H175587   0.552   5.578  11.232 -1.4528  0.2569 -0.6797
18032TIP3    H275588   0.453   5.661  11.310  0.0264 -0.2261  1.8174
18033TIP3   OH275589   5.664   2.061   3.779 -0.3083 -0.0385  0.1660
18033TIP3    H175590   5.715   2.045   3.858  0.6142  0.2840 -0.3498
18033TIP3    H275591   5.575   2.034   3.802 -0.7496  2.7296  2.3164
18034TIP3   OH275592   2.152   4.375   2.064 -0.4714  0.3433  0.3520
18034TIP3    H175593   2.099   4.381   1.984  1.0393 -1.6169 -0.9033
18034TIP3    H275594   2.215   4.446   2.056  1.0142 -1.0456 -1.3774
18035TIP3   OH275595   1.467   0.613  14.213  0.1550  0.0131  0.6338
18035TIP3    H175596   1.548   0.641  14.171 -0.2243  1.0961  0.6012
18035TIP3    H275597   1.478   0.519  14.225  1.1095  0.0224 -0.0395
18036TIP3   OH275598   2.697   5.154  10.452  0.5024  0.3794  0.2400
18036TIP3    H175599   2.750   5.211  10.396  0.4390  2.3652  2.0841
18036TIP3    H275600   2.713   5.066  10.418  0.4424  1.4561 -2.8807
18037TIP3   OH275601   2.059   3.928  13.805 -0.2146  0.1358 -0.6927
18037TIP3    H175602   2.061   3.903  13.897  0.0410 -1.8164 -1.1857
18037TIP3    H275603   1.967   3.946  13.787 -0.2676  0.5288 -0.0754
18038TIP3   OH275604   0.198   3.762  16.945 -0.0579  0.1677 -0.1323
18038TIP3    H175605   0.122   3.809  16.980 -0.5824 -0.0940 -0.8980
18038TIP3    H275606   0.224   3.703  17.016 -0.0990  0.7948  0.4121
18039TIP3   OH275607   6.350   1.652  11.989  0.4004 -0.4345 -0.1299
18039TIP3    H175608   6.406   1.580  11.961  0.8873 -1.1599  2.4581
18039TIP3    H275609   6.322   1.628  12.077 -2.0801  1.0353 -0.4105
18040TIP3   OH275610   6.213   2.994  12.023  0.4353  0.7944 -0.1082
18040TIP3    H175611   6.237   3.069  11.968 -0.2700 -1.2042 -3.4580
18040TIP3    H275612   6.117   2.997  12.025  0.4520  1.5977  2.3609
18041TIP3   OH275613   0.494   5.383   0.884 -0.0145  0.1099  0.0702
18041TIP3    H175614   0.423   5.404   0.823 -1.1389 -0.8700  0.9893
18041TIP3    H275615   0.562   5.446   0.864 -0.0440 -0.6020 -2.6923
18042TIP3   OH275616   0.724   4.554  16.812  0.4366  0.0496 -0.3345
18042TIP3    H175617   0.631   4.558  16.789  0.2699 -2.8378 -0.5030
18042TIP3    H275618   0.762   4.495  16.747  2.0364 -0.1625  0.7488
18043TIP3   OH275619   0.704   3.627   1.710  0.4811  0.3092  0.4848
18043TIP3    H175620   0.732   3.551   1.761 -3.4788 -2.3833 -0.8829
18043TIP3    H275621   0.660   3.683   1.774  0.9041  0.0413  1.0206
18044TIP3   OH275622   1.332   1.907   1.172 -0.3732  0.1998 -0.1890
18044TIP3    H175623   1.418   1.892   1.211  0.0031  1.4962 -0.4703
18044TIP3    H275624   1.270   1.894   1.244  0.0810 -0.4745  0.0802
18045TIP3   OH275625   6.685   0.821   2.352  0.0708 -0.2266 -0.1684
18045TIP3    H175626   6.638   0.739   2.368  0.2086 -0.6038 -1.5569
18045TIP3    H275627   6.633   0.864   2.284  0.7923  0.1533 -0.4830
18046TIP3   OH275628   0.597   2.560   2.695  0.3415  0.4120 -0.6501
18046TIP3    H175629   0.649   2.633   2.660  0.1312  1.0149  0.2368
18046TIP3    H275630   0.559   2.518   2.618  0.1451  1.4942 -1.1629
18047TIP3   OH275631   3.218   6.813  12.746 -0.2876 -0.0783 -0.5302
18047TIP3    H175632   3.203   6.795  12.838 -1.3755  1.5765 -0.3271
18047TIP3    H275633   3.285   6.882  12.745  0.9511 -1.2436 -1.0801
18048TIP3   OH275634   1.312   0.068  16.308 -0.0623  0.5501  0.0350
18048TIP3    H175635   1.282   0.013  16.380 -0.5262  0.6612 -0.0660
18048TIP3    H275636   1.405   0.079  16.323 -0.2520  1.0299  0.9259
18049TIP3   OH275637   2.176   1.020  16.431  0.3603 -0.7599  0.3879
18049TIP3    H175638   2.264   1.056  16.447  0.9736 -1.3770 -1.3684
18049TIP3    H275639   2.183   0.976  16.346 -1.1299 -2.4806  1.0731
18050TIP3   OH275640   1.570   1.604   1.214  0.3595  0.3318  0.3817
18050TIP3    H175641   1.561   1.652   1.297 -1.3639  0.3079  0.2470
18050TIP3    H275642   1.584   1.513   1.240  2.8965  0.7367  0.6341
18051TIP3   OH275643   5.437   3.860  12.554  0.1560 -0.2318  0.1532
18051TIP3    H175644   5.364   3.864  12.492 -1.3851  1.3566  1.9101
18051TIP3    H275645   5.428   3.775  12.597 -1.1368  0.1978  0.8068
18052TIP3   OH275646   2.208   5.469   5.483 -1.0853  0.5553  0.0758
18052TIP3    H175647   2.169   5.401   5.537 -1.5226  1.4686  0.9515
18052TIP3    H275648   2.292   5.433   5.454 -2.4730 -1.4164 -1.7617
18053TIP3   OH275649   0.936   5.136   6.339 -0.8540  0.5069 -0.2477
18053TIP3    H175650   0.978   5.148   6.425  0.6289 -1.5845 -0.5949
18053TIP3    H275651   0.938   5.223   6.300 -0.5427  1.2862  1.4040
18054TIP3   OH275652   4.893   5.327  14.913 -0.2269  0.2523  0.2043
18054TIP3    H175653   4.894   5.245  14.962 -1.5536  0.4387  0.5731
18054TIP3    H275654   4.806   5.330  14.872  0.2707  0.8635 -0.8582
18055TIP3   OH275655   1.639   3.882  12.601  0.6717  0.4706  0.3184
18055TIP3    H175656   1.612   3.839  12.682  1.7406 -0.5517  0.1706
18055TIP3    H275657   1.632   3.812  12.535 -1.1429  1.5341 -0.7015
18056TIP3   OH275658   1.064   1.768  12.708 -0.0425 -0.6856  0.7512
18056TIP3    H175659   1.055   1.839  12.644 -0.9787 -1.3569  0.1113
18056TIP3    H275660   1.158   1.761  12.723  0.3690 -1.5023 -1.7242
18057TIP3   OH275661   3.803   2.349  13.668  0.0730 -0.1250 -0.1268
18057TIP3    H175662   3.779   2.346  13.761  1.4391 -3.2468  0.2684
18057TIP3    H275663   3.723   2.322  13.622  0.3300 -2.2789  0.5352
18058TIP3   OH275664   4.080   0.162  14.334  0.3489  0.1780  0.3713
18058TIP3    H175665   4.013   0.223  14.304  0.2159  0.0997  0.5078
18058TIP3    H275666   4.124   0.133  14.254 -0.9243 -1.1240  0.1127
18059TIP3   OH275667   4.809   0.063   1.798 -0.8036  0.3511 -0.3665
18059TIP3    H175668   4.719   0.034   1.784 -1.1191 -0.3301  2.3615
18059TIP3    H275669   4.863  -0.007   1.762 -1.3720  0.3493 -1.2481
18060TIP3   OH275670   6.741   6.287   3.766  0.3901 -0.2605  0.1572
18060TIP3    H175671   6.816   6.319   3.817 -1.0480 -0.0158  2.2621
18060TIP3    H275672   6.681   6.362   3.762 -0.3625 -0.8668 -0.2084
18061TIP3   OH275673   1.190   6.071  11.224  0.0497  0.3568  0.3813
18061TIP3    H175674   1.237   6.074  11.308 -1.0012  0.1391  0.9908
18061TIP3    H275675   1.260   6.072  11.158  0.9522 -0.6695  1.2747
18062TIP3   OH275676   0.975   0.710  14.402 -0.3753  0.7928 -0.1402
18062TIP3    H175677   1.063   0.735  14.374  0.2405  0.1811  1.1457
18062TIP3    H275678   0.961   0.623  14.364 -0.9918  1.4612 -1.4795
18063TIP3   OH275679   2.695   4.627  13.276  0.3594  0.0039  0.4656
18063TIP3    H175680   2.779   4.586  13.294  0.4376  0.8994  2.4506
18063TIP3    H275681   2.706   4.718  13.305 -1.3950  0.0334  1.1502
18064TIP3   OH275682   1.662   2.510  14.289  0.1035  0.2583  0.1373
18064TIP3    H175683   1.611   2.435  14.260 -0.3617  0.5604  0.1552
18064TIP3    H275684   1.628   2.583  14.237  0.7445  0.4037 -0.0800
18065TIP3   OH275685   2.592   2.356   0.536 -0.1150 -0.0937  0.3544
18065TIP3    H175686   2.584   2.411   0.458 -3.0556 -1.4569 -0.4315
18065TIP3    H275687   2.581   2.266   0.504 -1.9780 -0.6671  2.3304
18066TIP3   OH275688   4.591   2.822  11.325 -0.2824  0.1056 -0.4109
18066TIP3    H175689   4.638   2.831  11.408 -1.8668 -1.4548  0.7365
18066TIP3    H275690   4.620   2.739  11.289  0.4900  0.8359 -1.5186
18067TIP3   OH275691   2.771   5.445   3.088  0.0799 -0.1180  0.3724
18067TIP3    H175692   2.728   5.375   3.040 -0.5497  0.0273  0.7118
18067TIP3    H275693   2.824   5.491   3.023  0.1146 -0.6109  0.0561
18068TIP3   OH275694   2.561   1.082   4.711  0.3073 -0.2526 -0.3907
18068TIP3    H175695   2.533   1.169   4.681  0.2079 -0.0773  0.2097
18068TIP3    H275696   2.479   1.034   4.722  0.3178 -0.1732  0.0378
18069TIP3   OH275697   4.960   1.705  13.299  0.4654 -0.3365  0.2705
18069TIP3    H175698   4.944   1.792  13.336 -0.7869 -0.2784 -0.3427
18069TIP3    H275699   5.026   1.720  13.231  2.5639 -0.4017  2.2018
18070TIP3   OH275700   3.607   5.805  13.875 -0.1490  0.1912  0.8718
18070TIP3    H175701   3.530   5.747  13.872  0.0177 -0.3053  3.7332
18070TIP3    H275702   3.681   5.745  13.884  0.6684  0.6780 -1.7154
18071TIP3   OH275703   1.556   4.472  15.750  0.2854 -0.2382 -0.2005
18071TIP3    H175704   1.563   4.498  15.842  0.5959  0.7260 -0.4861
18071TIP3    H275705   1.628   4.410  15.738 -0.1453 -0.8575  0.3622
18072TIP3   OH275706   0.129   1.007  14.059  0.7271  0.3966  0.5840
18072TIP3    H175707   0.082   1.014  13.976  0.1497  2.1076  1.0120
18072TIP3    H275708   0.073   0.953  14.114  0.1862  0.8163  0.4540
18073TIP3   OH275709   5.942   6.691   3.153  0.5533  0.0980  0.4534
18073TIP3    H175710   5.941   6.642   3.234 -0.2866  1.6882  1.4674
18073TIP3    H275711   5.918   6.780   3.178  2.2160  1.1234 -1.2432
18074TIP3   OH275712   6.627   2.730  10.270 -0.1222 -0.5042 -0.0569
18074TIP3    H175713   6.631   2.823  10.294 -0.2513 -0.2823 -0.8772
18074TIP3    H275714   6.712   2.711  10.231 -0.9843 -0.0260 -2.3210
18075TIP3   OH275715   1.148   2.740   3.186 -0.0451  0.9162  0.1382
18075TIP3    H175716   1.090   2.667   3.164  0.8071  0.4859 -0.7356
18075TIP3    H275717   1.183   2.769   3.102  1.2423  0.9551  0.6692
18076TIP3   OH275718   6.447   1.156  15.781 -0.3525 -0.1068  0.1103
18076TIP3    H175719   6.374   1.153  15.843 -0.9862  1.9558 -0.4515
18076TIP3    H275720   6.409   1.128  15.698  0.0292 -1.0325  0.2389
18077TIP3   OH275721   6.414   6.170  11.763 -0.8366 -0.1310  0.3153
18077TIP3    H175722   6.413   6.209  11.675 -0.4090 -0.3240  0.2249
18077TIP3    H275723   6.431   6.244  11.822  2.1651 -0.4591 -0.0107
18078TIP3   OH275724   2.834   5.406  16.682  0.0677 -0.1527 -0.1608
18078TIP3    H175725   2.799   5.469  16.745  1.6377  1.1735 -0.5394
18078TIP3    H275726   2.926   5.396  16.707  0.2018 -1.2138 -1.0023
18079TIP3   OH275727   5.286   1.378  13.112  0.1359 -1.1840  0.7117
18079TIP3    H175728   5.222   1.380  13.183  1.7697  0.0466  2.2349
18079TIP3    H275729   5.344   1.451  13.130  1.4349 -1.6837 -1.1502
18080TIP3   OH275730   6.303   4.006   0.218  0.3840  0.3546 -0.1739
18080TIP3    H175731   6.346   4.078   0.263  1.2537  0.4202 -1.0648
18080TIP3    H275732   6.222   3.991   0.267  0.1062  2.0410 -0.0578
18081TIP3   OH275733   0.910   6.117  16.637 -0.0678  0.2397  0.5772
18081TIP3    H175734   0.818   6.098  16.657 -0.0369  2.1580  2.8896
18081TIP3    H275735   0.960   6.060  16.696  0.3248 -1.2887 -1.1335
18082TIP3   OH275736   1.936   5.247   4.719  0.0203 -0.2686  0.2835
18082TIP3    H175737   2.016   5.283   4.681 -1.6552  1.1039 -2.1052
18082TIP3    H275738   1.934   5.283   4.808  2.1301 -0.5686  0.5219
18083TIP3   OH275739   1.557   2.653  13.507  0.9654 -0.1895  0.0741
18083TIP3    H175740   1.482   2.601  13.536  2.2541 -0.7712  2.6809
18083TIP3    H275741   1.526   2.697  13.428 -1.5199 -1.7484  0.0496
18084TIP3   OH275742   0.960   6.640   1.334  0.0195 -0.0687 -0.1442
18084TIP3    H175743   0.893   6.574   1.351  0.2506 -0.5350 -0.9676
18084TIP3    H275744   0.915   6.708   1.286  0.3042 -0.8128 -1.5269
18085TIP3   OH275745   0.045   3.251  11.191 -0.0662 -0.0077 -0.2557
18085TIP3    H175746   0.014   3.165  11.220  0.9266 -0.6092 -0.9357
18085TIP3    H275747   0.139   3.241  11.181 -0.1613  0.5555 -2.2534
18086TIP3   OH275748   0.680   5.777   4.771 -0.3541  0.2854 -0.7683
18086TIP3    H175749   0.732   5.794   4.692 -0.3012  0.8176 -0.6213
18086TIP3    H275750   0.706   5.689   4.798 -0.7939 -0.1280 -1.6695
18087TIP3   OH275751   1.933   0.180   2.460  0.0687  0.2023  0.0524
18087TIP3    H175752   1.987   0.178   2.539 -1.2047 -0.1575  0.9540
18087TIP3    H275753   1.983   0.131   2.395  1.0317  0.2928  0.7119
18088TIP3   OH275754   3.677   2.553  11.982  0.1118  0.1653  0.0449
18088TIP3    H175755   3.762   2.515  12.004  0.5369  1.6170  1.1314
18088TIP3    H275756   3.693   2.604  11.903  0.0967 -0.0620 -0.1051
18089TIP3   OH275757   2.525   6.167  14.924 -0.5517  0.0802 -0.6221
18089TIP3    H175758   2.434   6.167  14.952 -0.0641 -3.7585  1.7425
18089TIP3    H275759   2.564   6.244  14.966 -2.4798  1.4572 -1.2235
18090TIP3   OH275760   2.031   0.390   5.437  0.1127  0.0208  0.5788
18090TIP3    H175761   2.093   0.440   5.490 -1.0027  0.2612  1.6827
18090TIP3    H275762   2.050   0.299   5.458  2.2665 -0.1318 -1.5646
18091TIP3   OH275763   6.631   0.601  13.525 -0.1677 -0.3010  0.6534
18091TIP3    H175764   6.609   0.683  13.570 -0.3381 -0.4566  0.8552
18091TIP3    H275765   6.598   0.613  13.436  0.5140  0.1589  0.4517
18092TIP3   OH275766   4.672   2.775  17.292 -0.1247 -0.7186  0.2833
18092TIP3    H175767   4.763   2.794  17.270 -0.5587  0.4912 -0.5644
18092TIP3    H275768   4.653   2.691  17.251  0.9007 -1.5087  1.3655
18093TIP3   OH275769   4.144   1.656  12.912 -0.3351 -0.1444 -0.2917
18093TIP3    H175770   4.065   1.709  12.900 -1.4882 -1.5984  0.5548
18093TIP3    H275771   4.186   1.657  12.826 -1.6398  0.1197 -0.9544
18094TIP3   OH275772   2.651   2.941  13.427  0.1237 -0.0843 -0.1014
18094TIP3    H175773   2.726   2.901  13.470  0.9547  0.5918 -0.8554
18094TIP3    H275774   2.623   3.010  13.486  0.2647 -0.1749  0.0707
18095TIP3   OH275775   4.680   0.057  16.124  0.0158 -0.1198  0.4589
18095TIP3    H175776   4.595   0.013  16.116 -0.2958  0.7592 -1.9211
18095TIP3    H275777   4.744  -0.014  16.124 -0.5924 -0.7278 -1.1249
18096TIP3   OH275778   4.395   4.970   2.221 -0.4411 -0.3266  0.2120
18096TIP3    H175779   4.452   5.046   2.232 -0.8569  0.2381 -1.2657
18096TIP3    H275780   4.348   4.963   2.304  0.3307  0.4069  0.7296
18097TIP3   OH275781   4.856   1.698   5.523 -0.3959 -0.1452 -0.4847
18097TIP3    H175782   4.761   1.700   5.518 -0.4939 -0.8691  0.7303
18097TIP3    H275783   4.876   1.727   5.613  0.5365  0.0968 -0.7563
18098TIP3   OH275784   4.830   4.647   5.269 -0.1677 -0.0473  0.3687
18098TIP3    H175785   4.884   4.657   5.191 -0.7029  1.8522  0.1920
18098TIP3    H275786   4.762   4.584   5.244 -0.3656  0.5876 -0.7128
18099TIP3   OH275787   1.751   5.198   3.352  0.0602  0.3388  0.3660
18099TIP3    H175788   1.666   5.242   3.346 -0.0608 -0.0188 -1.1200
18099TIP3    H275789   1.769   5.191   3.445 -0.2250  2.9135  0.6775
18100TIP3   OH275790   0.366   5.848  11.691 -0.0390 -0.4344 -0.0130
18100TIP3    H175791   0.317   5.928  11.672  0.0378 -0.2336  0.5845
18100TIP3    H275792   0.309   5.798  11.749  1.1206  0.6249  2.1894
18101TIP3   OH275793   3.715   0.399  16.928 -0.0927  0.3871 -0.6017
18101TIP3    H175794   3.786   0.458  16.904  0.0684  0.0469 -0.9807
18101TIP3    H275795   3.647   0.456  16.965  0.1033  0.7928 -0.8632
18102TIP3   OH275796   0.320   6.746   1.041  0.1549 -0.2883 -0.1038
18102TIP3    H175797   0.366   6.710   0.966  1.0857  1.1791 -0.2780
18102TIP3    H275798   0.375   6.722   1.116 -0.9142 -1.9903  0.1839
18103TIP3   OH275799   2.563   3.969   5.122 -0.1770 -0.4364  0.5796
18103TIP3    H175800   2.529   4.058   5.118 -2.2396 -1.1584  0.8190
18103TIP3    H275801   2.601   3.954   5.035 -1.9200 -0.0737 -0.2860
18104TIP3   OH275802   0.417   5.992   0.194 -0.1251  0.0149  0.5171
18104TIP3    H175803   0.338   5.941   0.212 -0.0399 -0.1874  0.3266
18104TIP3    H275804   0.482   5.927   0.167 -0.8731  0.4404 -2.7913
18105TIP3   OH275805   1.270   0.262  12.746  0.1479  0.0315 -0.1194
18105TIP3    H175806   1.306   0.187  12.699  0.5241 -0.2407  0.5837
18105TIP3    H275807   1.346   0.316  12.768 -0.1713  0.9397 -1.1349
18106TIP3   OH275808   4.788   3.665  11.569 -0.2874  0.5587  0.0908
18106TIP3    H175809   4.860   3.602  11.565 -1.6842 -1.1200  0.2338
18106TIP3    H275810   4.726   3.635  11.502 -0.3531  2.6630 -0.8535
18107TIP3   OH275811   1.209   0.679  15.434  0.3799  0.3232  0.3522
18107TIP3    H175812   1.147   0.718  15.374  2.0680  0.3431 -1.4903
18107TIP3    H275813   1.234   0.596  15.393  0.3142 -0.5099  1.8967
18108TIP3   OH275814   6.621   6.214  15.644  0.1220  0.2583 -0.1823
18108TIP3    H175815   6.692   6.163  15.683  0.9412  0.9094 -0.7982
18108TIP3    H275816   6.625   6.298  15.688  0.2564  0.5741 -0.7864
18109TIP3   OH275817   1.781   3.758  13.309  0.2469 -0.3299 -0.0031
18109TIP3    H175818   1.826   3.800  13.381 -1.4138  0.2520  0.7503
18109TIP3    H275819   1.846   3.753  13.239  1.1221  1.5484  0.6107
18110TIP3   OH275820   4.132   6.456  12.944 -0.0425 -0.5489  0.2911
18110TIP3    H175821   4.038   6.444  12.958 -0.5342  3.0920  0.9345
18110TIP3    H275822   4.142   6.464  12.849  0.0574 -3.1820  0.0007
18111TIP3   OH275823   4.627   0.188  13.874  0.8043 -0.0515  0.5254
18111TIP3    H175824   4.585   0.225  13.951  1.6767 -0.3687  1.1800
18111TIP3    H275825   4.555   0.159  13.819  0.1569  0.5298  1.0487
18112TIP3   OH275826   2.835   1.070   5.604 -0.2007  0.2659 -0.3731
18112TIP3    H175827   2.826   1.024   5.521  0.6714  1.5951 -1.2493
18112TIP3    H275828   2.920   1.042   5.638 -0.0874  0.5105 -0.4506
18113TIP3   OH275829   3.171   1.472   1.365  0.0809 -0.2006  0.0752
18113TIP3    H175830   3.082   1.501   1.343 -0.5017 -1.6112  0.4945
18113TIP3    H275831   3.166   1.445   1.456  0.9341 -0.3900  0.0736
18114TIP3   OH275832   1.444   4.487  14.654  0.3327 -0.0177 -0.0214
18114TIP3    H175833   1.414   4.456  14.739 -0.9972 -1.7673 -1.0554
18114TIP3    H275834   1.378   4.550  14.626 -0.0094 -0.5215 -0.3642
18115TIP3   OH275835   2.746   0.699  11.579 -0.3350  0.8195  0.4519
18115TIP3    H175836   2.721   0.747  11.500  0.2265 -2.5116 -1.9302
18115TIP3    H275837   2.842   0.700  11.578 -0.3021 -0.5615  0.1457
18116TIP3   OH275838   4.048   3.553  12.805  0.1908 -0.3336  0.2040
18116TIP3    H175839   4.006   3.569  12.890  2.2521 -0.2423  1.2515
18116TIP3    H275840   4.047   3.458  12.796 -0.5629 -0.3201  0.0118
18117TIP3   OH275841   2.685   3.513  16.647 -0.0276 -0.4831  0.1193
18117TIP3    H175842   2.748   3.519  16.719  0.2307 -0.1837 -0.1239
18117TIP3    H275843   2.735   3.472  16.575 -0.0227  0.0247 -0.1688
18118TIP3   OH275844   1.114   2.844   6.718 -0.1919 -0.4422  0.1374
18118TIP3    H175845   1.200   2.858   6.756  0.3996 -3.5583  0.1916
18118TIP3    H275846   1.069   2.786   6.779 -1.7511 -0.1785 -0.6865
18119TIP3   OH275847   6.775   4.551   2.043  0.0271  0.4984  0.2958
18119TIP3    H175848   6.808   4.474   2.090 -0.5161  0.0891  0.0223
18119TIP3    H275849   6.810   4.541   1.954 -0.8389  0.0461 -0.0026
18120TIP3   OH275850   5.532   0.160  14.055  0.5159  0.5145  0.0961
18120TIP3    H175851   5.488   0.136  14.137  0.3828  0.9380  0.1508
18120TIP3    H275852   5.520   0.083  13.998  0.0372  0.4743  0.2433
18121TIP3   OH275853   2.156   3.801   6.328  0.2843 -0.2990 -0.5372
18121TIP3    H175854   2.123   3.888   6.304 -0.1096  0.2326  1.6532
18121TIP3    H275855   2.230   3.820   6.386  0.1012 -1.4102  0.0837
18122TIP3   OH275856   0.695   0.687   2.161  0.1737  0.3668  0.0294
18122TIP3    H175857   0.605   0.679   2.193  0.8513 -0.4880  1.8604
18122TIP3    H275858   0.733   0.600   2.175  0.8687  0.2442 -2.2014
18123TIP3   OH275859   2.717   4.062   0.799  0.1204 -0.0340  0.0551
18123TIP3    H175860   2.655   4.032   0.733 -0.5775  0.7112  0.3634
18123TIP3    H275861   2.687   4.020   0.880  0.2793 -0.0144  0.1249
18124TIP3   OH275862   4.260   3.618   1.020  0.0884 -0.3205 -0.1636
18124TIP3    H175863   4.248   3.559   1.094  0.0611 -0.8368 -0.5753
18124TIP3    H275864   4.171   3.648   0.999  0.1246  0.0249  0.1720
18125TIP3   OH275865   1.033   2.841  16.415 -0.1594 -0.1354  0.1558
18125TIP3    H175866   0.986   2.776  16.363 -0.1817 -1.0688  1.2796
18125TIP3    H275867   1.124   2.811  16.414 -0.3317 -0.7925  1.4958
18126TIP3   OH275868   1.885   1.253  14.204 -0.0471  0.0324  0.3696
18126TIP3    H175869   1.908   1.238  14.112 -0.2544 -0.2541  0.3657
18126TIP3    H275870   1.948   1.319  14.234 -0.7506  1.0478 -0.3189
18127TIP3   OH275871   3.756   5.980   5.292 -0.3508  0.4903 -0.6042
18127TIP3    H175872   3.813   6.000   5.218 -1.3896 -0.9254 -1.8224
18127TIP3    H275873   3.668   6.001   5.262 -0.6886  1.0159  0.6667
18128TIP3   OH275874   5.859   1.492  16.361  0.5242  0.0681 -0.4012
18128TIP3    H175875   5.876   1.534  16.445  0.4777 -0.2619 -0.2269
18128TIP3    H275876   5.869   1.398  16.378 -2.7614 -0.3296  0.0472
18129TIP3   OH275877   4.238   5.274   3.599 -0.0195  0.5057 -0.7165
18129TIP3    H175878   4.172   5.205   3.600 -0.4101  0.8781 -0.0623
18129TIP3    H275879   4.190   5.353   3.627 -0.0302  1.4469 -3.0781
18130TIP3   OH275880   3.148   4.390  11.219  0.3871  0.1112  0.0730
18130TIP3    H175881   3.089   4.322  11.186 -0.4335  0.4395  0.8244
18130TIP3    H275882   3.093   4.445  11.274  0.9950  1.5209 -0.6745
18131TIP3   OH275883   1.783   3.441  13.407  0.0706  0.2993  0.2374
18131TIP3    H175884   1.845   3.504  13.445  1.4325 -1.1444  0.5370
18131TIP3    H275885   1.709   3.440  13.468 -0.5733  2.4684 -0.4124
18132TIP3   OH275886   0.394   5.694  15.992  0.0801 -0.5881 -0.1134
18132TIP3    H175887   0.428   5.606  15.976  1.4650  0.0163 -0.6715
18132TIP3    H275888   0.317   5.700  15.936 -0.3651 -1.6286  0.3560
18133TIP3   OH275889   3.276   3.742   3.328 -0.1341  0.7484 -0.6755
18133TIP3    H175890   3.201   3.726   3.386 -0.8014 -3.3559 -2.2995
18133TIP3    H275891   3.353   3.727   3.383 -0.6260  0.7716  0.0318
18134TIP3   OH275892   4.639   3.574  12.769 -0.3749  0.9962  0.3919
18134TIP3    H175893   4.557   3.622  12.786 -1.2054 -0.2912  0.1357
18134TIP3    H275894   4.638   3.557  12.675 -1.4225 -1.7678  0.8181
18135TIP3   OH275895   5.238   2.945   6.150  0.2939  0.2554 -0.5786
18135TIP3    H175896   5.250   2.945   6.055  1.8175  0.3215 -0.4089
18135TIP3    H275897   5.324   2.969   6.185 -0.4586  1.0662  0.7996
18136TIP3   OH275898   6.774   0.844   5.944 -0.2128  0.0991 -0.2102
18136TIP3    H175899   6.749   0.768   5.997  1.1603 -0.7156 -0.6836
18136TIP3    H275900   6.734   0.827   5.859  1.0187 -0.6853 -0.6557
18137TIP3   OH275901   4.128   2.618   5.099 -0.6180 -0.2413 -0.1072
18137TIP3    H175902   4.177   2.633   5.018  2.1358 -1.4879  1.1799
18137TIP3    H275903   4.191   2.639   5.169 -3.1682  1.7060  1.8055
18138TIP3   OH275904   2.030   5.729  10.449  0.0110  0.2281  0.1372
18138TIP3    H175905   2.121   5.757  10.448  0.1023 -0.0442  0.5224
18138TIP3    H275906   1.982   5.800  10.406  0.4603  0.1563 -0.5013
18139TIP3   OH275907   4.425   4.855   4.886 -0.1187  0.1976  0.3723
18139TIP3    H175908   4.473   4.828   4.963  0.4195  0.8245  0.2609
18139TIP3    H275909   4.388   4.773   4.851  0.6753 -0.2569  0.5760
18140TIP3   OH275910   6.220   0.960   2.163  0.4552  0.0699 -0.6224
18140TIP3    H175911   6.304   0.933   2.125  0.0130 -0.8922 -0.9379
18140TIP3    H275912   6.220   1.056   2.155  1.5781  0.0993 -0.4866
18141TIP3   OH275913   3.796   2.627   4.505  0.6534 -0.1171 -0.0911
18141TIP3    H175914   3.718   2.578   4.532  0.4616  0.7914  1.0529
18141TIP3    H275915   3.761   2.703   4.459  0.8806  0.0409 -0.0007
18142TIP3   OH275916   2.301   4.179   3.855  0.5386 -0.2316 -0.0980
18142TIP3    H175917   2.386   4.224   3.852  0.3025  0.1594 -1.1888
18142TIP3    H275918   2.271   4.192   3.945  1.3642  0.1295  0.1408
18143TIP3   OH275919   1.584   0.276   0.803  0.2309 -0.4613 -0.7266
18143TIP3    H175920   1.588   0.371   0.807 -1.1380 -0.4153  0.5832
18143TIP3    H275921   1.572   0.249   0.894  4.1141 -2.1472 -0.5013
18144TIP3   OH275922   3.463   2.016   1.557 -0.7881  0.5759  0.7090
18144TIP3    H175923   3.381   2.013   1.605 -1.2749  0.7560 -0.0922
18144TIP3    H275924   3.438   2.005   1.465  0.0116  1.2783  0.3897
18145TIP3   OH275925   0.105   6.167   0.928  0.0540 -0.3496  0.5812
18145TIP3    H175926   0.077   6.103   0.862 -0.7868  0.4552  0.1370
18145TIP3    H275927   0.194   6.191   0.901 -0.3070  0.0223 -0.3052
18146TIP3   OH275928   6.094   0.561   1.655  0.2526  0.8018 -0.2532
18146TIP3    H175929   6.011   0.532   1.693  0.0096 -0.2151 -1.4860
18146TIP3    H275930   6.126   0.484   1.608  1.3332  1.5378 -0.7416
18147TIP3   OH275931   2.608   3.260  16.748 -0.6896 -0.2555  0.7370
18147TIP3    H175932   2.580   3.314  16.674 -0.4225 -0.1654  0.6995
18147TIP3    H275933   2.606   3.171  16.715 -1.1682 -0.2735  0.8111
18148TIP3   OH275934   4.183   5.417  12.458 -0.3303 -0.0494  0.6733
18148TIP3    H175935   4.262   5.471  12.460  1.1516 -1.8531 -2.2598
18148TIP3    H275936   4.191   5.360  12.534 -0.3935  1.7522  2.0881
18149TIP3   OH275937   0.259   3.535  16.585  0.0365 -0.7332 -0.0784
18149TIP3    H175938   0.334   3.591  16.605 -1.6393  1.0003  1.7981
18149TIP3    H275939   0.251   3.477  16.661  0.2711 -1.8959 -0.9061
18150TIP3   OH275940   6.320   6.746  12.764 -0.1450 -0.5255 -0.3032
18150TIP3    H175941   6.248   6.799  12.728  0.5476  1.9124  1.6278
18150TIP3    H275942   6.285   6.708  12.844  0.8689  1.3445  1.0925
18151TIP3   OH275943   4.053   1.757   3.461  0.5704 -0.3306 -0.0304
18151TIP3    H175944   3.963   1.737   3.485  0.8811 -0.9091  0.6932
18151TIP3    H275945   4.049   1.778   3.367 -0.3357 -0.1685  0.0361
18152TIP3   OH275946   3.778   5.816   2.523  0.6654 -0.3040  0.4833
18152TIP3    H175947   3.762   5.741   2.467 -0.4917 -1.0258  1.7131
18152TIP3    H275948   3.718   5.884   2.491 -0.7990 -1.0795  1.4809
18153TIP3   OH275949   6.756   2.399  12.699  0.2669 -0.3052  0.1367
18153TIP3    H175950   6.721   2.345  12.770  0.5761 -0.6098  0.0584
18153TIP3    H275951   6.678   2.429  12.652  0.0556 -0.0246  0.6553
18154TIP3   OH275952   3.322   0.964  16.099  0.5654  0.4141 -0.1663
18154TIP3    H175953   3.347   1.008  16.018 -1.2252 -1.1176 -1.6619
18154TIP3    H275954   3.332   0.870  16.079 -1.0258 -0.0381  0.9628
18155TIP3   OH275955   4.421   5.744  17.027 -0.0848  0.9224  0.2945
18155TIP3    H175956   4.416   5.839  17.015 -0.5001  0.8605 -0.0569
18155TIP3    H275957   4.406   5.731  17.121 -0.4809  1.1777  0.2729
18156TIP3   OH275958   3.654   3.603   0.061  0.3430  0.1503 -0.1779
18156TIP3    H175959   3.570   3.558   0.071  0.1813  0.2672 -0.9784
18156TIP3    H275960   3.719   3.533   0.067  0.2438  0.1330  1.0580
18157TIP3   OH275961   2.439   5.171  13.122  0.2555 -0.2102  0.0252
18157TIP3    H175962   2.392   5.095  13.157 -0.2010 -0.8463 -1.8188
18157TIP3    H275963   2.530   5.143  13.117  0.5604  0.3450  1.8170
18158TIP3   OH275964   3.676   2.806  10.145 -0.3421 -0.1131 -0.2106
18158TIP3    H175965   3.607   2.869  10.125 -0.2118  0.3252  0.7001
18158TIP3    H275966   3.757   2.850  10.123 -0.2605 -0.0201  0.2648
18159TIP3   OH275967   4.685   5.165   1.698 -0.3852  0.3081 -0.5098
18159TIP3    H175968   4.691   5.158   1.793 -1.1440 -0.0206 -0.4828
18159TIP3    H275969   4.775   5.149   1.667 -0.0897  0.6378  0.1528
18160TIP3   OH275970   2.574   0.900   0.375 -0.4794  0.7936 -0.5729
18160TIP3    H175971   2.570   0.819   0.425  1.6449 -0.8275 -2.7901
18160TIP3    H275972   2.641   0.953   0.418  0.8865 -0.3247 -1.2417
18161TIP3   OH275973   2.573   5.160  12.701  0.3999  0.0007  0.0507
18161TIP3    H175974   2.605   5.085  12.750 -2.9692 -1.9976 -0.5184
18161TIP3    H275975   2.512   5.204  12.760  0.0066  0.4687 -0.6841
18162TIP3   OH275976   4.310   1.171   1.962 -0.0696 -0.7192 -0.5849
18162TIP3    H175977   4.246   1.229   1.921  1.1502  0.8832 -0.3079
18162TIP3    H275978   4.345   1.222   2.034  2.4573 -1.0169 -1.5193
18163TIP3   OH275979   1.585   4.119   3.562  0.0301 -0.1115 -0.0766
18163TIP3    H175980   1.641   4.178   3.512 -0.0683 -2.7512 -3.6362
18163TIP3    H275981   1.508   4.172   3.583  2.3097  2.6512  2.2561
18164TIP3   OH275982   5.007   0.940  14.513  0.1509 -0.1131  0.5020
18164TIP3    H175983   5.094   0.979  14.521 -0.0297  0.1034  1.5509
18164TIP3    H275984   5.017   0.850  14.543 -0.4290  0.5602  2.9392
18165TIP3   OH275985   5.438   0.669   4.499 -0.6681  0.5213 -0.2461
18165TIP3    H175986   5.506   0.674   4.566 -0.6769  0.5618 -0.2403
18165TIP3    H275987   5.367   0.621   4.542 -0.1090 -0.7740 -0.6997
18166TIP3   OH275988   5.739   5.177  15.170 -0.3285 -0.7873 -0.2777
18166TIP3    H175989   5.804   5.122  15.127  0.1336 -0.5831  0.1327
18166TIP3    H275990   5.785   5.212  15.246 -0.5508  0.3010 -0.6242
18167TIP3   OH275991   0.985   6.583   5.285 -0.7990  0.0639 -0.2746
18167TIP3    H175992   0.904   6.569   5.334  0.2642  2.3501  2.4625
18167TIP3    H275993   1.049   6.527   5.329 -0.1645  0.9763  0.0053
18168TIP3   OH275994   5.740   1.353   5.898 -0.7471  0.2586 -0.1585
18168TIP3    H175995   5.745   1.274   5.845  0.8501 -0.1418  0.5270
18168TIP3    H275996   5.825   1.358   5.941 -1.7833  0.8413  1.9609
18169TIP3   OH275997   4.015   6.819   3.809 -0.4577 -0.4834  0.0193
18169TIP3    H175998   3.922   6.820   3.785 -0.5647  1.4605  0.3475
18169TIP3    H275999   4.016   6.844   3.901  0.3968 -0.5055  0.0215
18170TIP3   OH276000   4.033   0.659   4.955  0.0465 -0.3127 -1.0261
18170TIP3    H176001   3.961   0.598   4.938  0.5977 -1.5302  0.7336
18170TIP3    H276002   3.996   0.723   5.016  0.4993 -1.1427  0.1612
18171TIP3   OH276003   6.717   5.592  11.405 -0.0232 -0.5039  0.4720
18171TIP3    H176004   6.747   5.629  11.489  0.6314  1.8614 -0.6924
18171TIP3    H276005   6.622   5.592  11.412  0.0267 -0.6742  1.3436
18172TIP3   OH276006   3.603   2.813  10.580  0.6497  0.1428 -0.4918
18172TIP3    H176007   3.511   2.825  10.556  0.5424 -0.3278 -0.3187
18172TIP3    H276008   3.643   2.898  10.562  0.7161 -0.3418 -3.0124
18173TIP3   OH276009   5.624   4.903   2.858 -0.5477  0.0136  0.1905
18173TIP3    H176010   5.654   4.990   2.884 -1.1643 -0.1076  1.3304
18173TIP3    H276011   5.556   4.920   2.792 -0.5820  0.3884  0.3225
18174TIP3   OH276012   0.136   0.851   3.874 -0.0048  0.3427  0.3424
18174TIP3    H176013   0.189   0.927   3.850  2.0489 -1.1139  0.0732
18174TIP3    H276014   0.196   0.793   3.921 -1.8606 -0.5469  1.7611
18175TIP3   OH276015   0.980   0.793  14.715  0.3363  0.6955  0.3314
18175TIP3    H176016   0.920   0.866  14.729  0.3384  0.5486  1.1785
18175TIP3    H276017   1.045   0.826  14.653  0.2536  1.3642  0.5946
18176TIP3   OH276018   0.345   1.465  15.486 -0.2477 -0.5727  0.5869
18176TIP3    H176019   0.388   1.544  15.454 -0.2660 -0.9370 -0.3598
18176TIP3    H276020   0.413   1.416  15.531  0.5490 -1.4804 -1.4938
18177TIP3   OH276021   6.742   5.596  13.380  0.5750  0.0110  0.0713
18177TIP3    H176022   6.813   5.658  13.400  1.6591 -0.5906 -1.6670
18177TIP3    H276023   6.673   5.617  13.442  1.1422  2.5844 -0.0641
18178TIP3   OH276024   4.068   2.389  16.976 -0.5096 -0.1393  0.0958
18178TIP3    H176025   3.977   2.391  17.007  0.1393 -0.6795  2.1772
18178TIP3    H276026   4.104   2.308  17.011  0.9624  0.3632 -0.1841
18179TIP3   OH276027   3.456   1.583   1.238 -0.5549 -0.0109 -0.6408
18179TIP3    H176028   3.392   1.653   1.249 -1.8445 -1.1307 -0.7749
18179TIP3    H276029   3.438   1.522   1.310  2.3713  1.0686  1.1868
18180TIP3   OH276030   3.368   5.424   0.430  0.1633 -0.0108 -0.1319
18180TIP3    H176031   3.354   5.442   0.523  1.1619  1.2516 -0.2106
18180TIP3    H276032   3.294   5.465   0.386  0.4435  0.6371 -0.0027
18181TIP3   OH276033   0.865   0.933   0.167  0.9278  0.2428  0.1590
18181TIP3    H176034   0.806   0.863   0.140  0.7422  0.7380 -0.7693
18181TIP3    H276035   0.909   0.960   0.087  1.3471  0.8578  0.5870
18182TIP3   OH276036   4.542   4.861   1.413 -0.0217  0.8477  0.3641
18182TIP3    H176037   4.484   4.794   1.376 -1.4070  1.9317  0.5170
18182TIP3    H276038   4.487   4.910   1.473  1.4433  0.9988  1.6482
18183TIP3   OH276039   0.929   0.107   4.987  0.2480  0.1416  0.0192
18183TIP3    H176040   1.006   0.069   4.944  0.3571 -0.4903  0.7504
18183TIP3    H276041   0.859   0.045   4.971 -0.0555  0.5920 -0.4246
18184TIP3   OH276042   3.581   5.223   3.899  0.4954 -0.1136  0.1564
18184TIP3    H176043   3.510   5.286   3.887  0.1027 -0.3772  0.9889
18184TIP3    H276044   3.604   5.230   3.992 -2.4505 -4.0944  1.4503
18185TIP3   OH276045   6.225   0.239   4.759  0.1534 -0.6177  0.1193
18185TIP3    H176046   6.251   0.331   4.757 -1.5631 -0.1112 -1.0185
18185TIP3    H276047   6.218   0.219   4.852 -1.6031  1.0948  0.4161
18186TIP3   OH276048   0.104   5.622  10.929  0.7239 -0.2890  0.2274
18186TIP3    H176049   0.175   5.564  10.956  0.3384 -0.1348  1.6194
18186TIP3    H276050   0.046   5.627  11.004 -0.4665  0.0696 -0.6828
18187TIP3   OH276051   3.192   4.244  16.001  0.2242 -0.3649 -0.0184
18187TIP3    H176052   3.169   4.237  16.094  1.6165 -1.3018  0.2932
18187TIP3    H276053   3.238   4.162  15.982  1.4131  0.5146 -1.0922
18188TIP3   OH276054   2.596   5.002  10.798 -0.4460 -0.9978  0.1561
18188TIP3    H176055   2.509   5.030  10.768 -0.2741  0.1503  0.6574
18188TIP3    H276056   2.650   5.000  10.719 -0.1624  1.3444  0.2081
18189TIP3   OH276057   3.914   2.424   0.348 -0.1063  0.2996 -0.4683
18189TIP3    H176058   3.914   2.345   0.294 -0.9943  0.3534 -0.5570
18189TIP3    H276059   3.826   2.429   0.384  0.9403 -0.8710  2.6522
18190TIP3   OH276060   3.269   1.700   4.247 -0.6958  0.4769  0.2717
18190TIP3    H176061   3.280   1.734   4.336 -0.1708  0.2387  0.2974
18190TIP3    H276062   3.357   1.699   4.210 -0.9980  1.2702 -0.5156
18191TIP3   OH276063   4.479   2.210   1.458 -0.0350 -0.7943  0.5625
18191TIP3    H176064   4.517   2.153   1.391 -1.0323 -0.1375 -0.5912
18191TIP3    H276065   4.393   2.234   1.424 -0.0200  0.6493  1.4542
18192TIP3   OH276066   0.818   5.317  17.031  0.6352  0.0865  0.6849
18192TIP3    H176067   0.819   5.326  16.936  0.2239  1.0272  0.7616
18192TIP3    H276068   0.782   5.399  17.063 -0.9469 -0.8978  1.5825
18193TIP3   OH276069   4.736   5.627  17.274  0.3350 -0.1722 -0.1571
18193TIP3    H176070   4.752   5.686  17.201 -0.4863 -0.1988 -0.3657
18193TIP3    H276071   4.671   5.565  17.242  0.5585 -0.6746  0.3343
18194TIP3   OH276072   6.724   2.447  15.281 -0.4060 -0.1983  0.5956
18194TIP3    H176073   6.674   2.446  15.363  1.6201 -0.2311  1.9122
18194TIP3    H276074   6.786   2.519  15.292  0.1740 -0.4680 -0.7312
18195TIP3   OH276075   2.716   3.257   0.434 -0.0234 -0.0547  0.3947
18195TIP3    H176076   2.774   3.296   0.500 -0.1308 -1.5352  1.4074
18195TIP3    H276077   2.698   3.329   0.373  0.7116  1.1499  1.5369
18196TIP3   OH276078   1.765   4.972   2.186  0.2969  0.2607 -0.2008
18196TIP3    H176079   1.718   5.052   2.208 -1.0367 -0.7562  0.8240
18196TIP3    H276080   1.788   4.982   2.093  0.1839  1.8133 -0.0868
18197TIP3   OH276081   6.614   1.764  15.643 -0.6861 -0.3812 -0.4294
18197TIP3    H176082   6.573   1.761  15.556 -0.0286  1.3513 -0.8396
18197TIP3    H276083   6.701   1.799  15.627 -0.2223 -0.8941  0.8491
18198TIP3   OH276084   2.203   4.429  11.859  0.4452  0.2777 -0.1071
18198TIP3    H176085   2.131   4.421  11.797 -0.1304 -0.8094  0.6592
18198TIP3    H276086   2.163   4.462  11.940  0.6662 -0.8634  0.4980
18199TIP3   OH276087   4.463   3.737  15.309 -0.0600  0.2037  0.2009
18199TIP3    H176088   4.368   3.746  15.313 -0.1276  0.0629 -0.7687
18199TIP3    H276089   4.493   3.821  15.274  0.0510 -0.2101 -0.7189
18200TIP3   OH276090   3.405   4.969  15.303 -0.5554  0.3198 -0.1481
18200TIP3    H176091   3.398   5.040  15.367 -1.0557  2.9641 -2.8902
18200TIP3    H276092   3.347   4.996  15.231  0.2469 -2.2501 -1.8865
18201TIP3   OH276093   5.077   3.978  16.447 -0.3575  0.1382 -0.5830
18201TIP3    H176094   5.075   4.070  16.422 -1.0860  0.1064 -0.6682
18201TIP3    H276095   5.151   3.942  16.399  0.3290  0.8132 -0.0509
18202TIP3   OH276096   4.483   4.774  12.653  0.5263 -0.1119 -0.1227
18202TIP3    H176097   4.470   4.798  12.745 -0.3725 -0.7850 -0.0466
18202TIP3    H276098   4.459   4.852  12.603  0.6226  0.1287  0.2082
18203TIP3   OH276099   0.352   4.109   6.014 -0.0512  0.2812  0.2045
18203TIP3    H176100   0.333   4.049   5.941 -1.7019  0.7406  0.2141
18203TIP3    H276101   0.381   4.052   6.085 -2.9444 -0.7702  0.6912
18204TIP3   OH276102   5.839   5.165  13.172  0.4375  0.2536  0.1400
18204TIP3    H176103   5.873   5.112  13.245 -0.5087 -1.2227 -0.4332
18204TIP3    H276104   5.827   5.102  13.101  2.9812  1.9019 -1.9594
18205TIP3   OH276105   5.875   3.469  13.470 -0.0874  0.0580  0.3005
18205TIP3    H176106   5.966   3.439  13.472 -0.0513  0.1683  0.3507
18205TIP3    H276107   5.843   3.455  13.559 -0.1045  0.0618  0.2945
18206TIP3   OH276108   0.745   5.083  12.475 -0.0919  0.1207  0.4246
18206TIP3    H176109   0.758   5.145  12.547  2.1567  0.0309  0.1730
18206TIP3    H276110   0.702   5.008  12.516 -2.6758  1.6960  0.7733
18207TIP3   OH276111   2.868   2.919   0.965 -0.0586 -0.4355 -0.4454
18207TIP3    H176112   2.818   2.882   0.893 -0.4113  3.0205 -2.2209
18207TIP3    H276113   2.960   2.907   0.939 -0.1777  1.6342 -2.1440
18208TIP3   OH276114   5.975   3.901   3.120 -0.1793 -0.4634 -0.0245
18208TIP3    H176115   5.911   3.891   3.050  0.4305  1.3055 -0.9054
18208TIP3    H276116   6.053   3.856   3.087  0.5232  1.4429 -1.1272
18209TIP3   OH276117   0.686   5.955  14.528  0.2761 -0.1421 -0.6709
18209TIP3    H176118   0.657   5.981  14.440  0.3848  1.8637 -0.1509
18209TIP3    H276119   0.734   6.031  14.561 -1.1137 -0.2197  1.7218
18210TIP3   OH276120   2.800   3.417   2.049 -0.4587 -0.2088 -0.7142
18210TIP3    H176121   2.869   3.369   2.094 -0.8738  0.0122  0.1841
18210TIP3    H276122   2.812   3.508   2.077 -0.4747 -0.0048 -1.3737
18211TIP3   OH276123   2.047   5.525  15.681  0.2184  0.2809 -0.3275
18211TIP3    H176124   1.982   5.586  15.646 -0.9739 -0.2325  0.9107
18211TIP3    H276125   2.130   5.556  15.644 -0.6903  0.9565 -1.9545
18212TIP3   OH276126   2.466   4.969  14.239  0.5087 -0.0126  0.0282
18212TIP3    H176127   2.431   5.019  14.312 -0.6723  0.7572 -1.0376
18212TIP3    H276128   2.462   4.877  14.268 -1.3411  0.1495  0.3749
18213TIP3   OH276129   0.654   4.338   5.498  0.0738  0.5725 -0.0628
18213TIP3    H176130   0.584   4.362   5.436 -0.3288  0.6518  0.4104
18213TIP3    H276131   0.731   4.325   5.443 -0.7169 -1.2664 -0.8118
18214TIP3   OH276132   3.283   0.380   5.348  0.0822 -0.1559 -0.0333
18214TIP3    H176133   3.310   0.299   5.392 -0.2900 -0.5827 -0.5817
18214TIP3    H276134   3.265   0.354   5.258  0.6158  0.6712 -0.3946
18215TIP3   OH276135   1.821   4.148  13.451 -0.2430  0.1275  0.0869
18215TIP3    H176136   1.807   4.243  13.455 -0.4814  0.0900  0.1334
18215TIP3    H276137   1.734   4.112  13.435 -0.5553 -0.2504  2.3272
18216TIP3   OH276138   0.736   3.936  15.539  0.0912 -0.1571  0.0624
18216TIP3    H176139   0.802   3.946  15.608 -1.3332  0.2528  1.4224
18216TIP3    H276140   0.686   3.858  15.565  0.2711 -0.7042 -1.1702
18217TIP3   OH276141   4.515   4.687   3.255 -0.0559  0.2227 -0.0901
18217TIP3    H176142   4.444   4.627   3.279  0.3900 -0.1765  0.2498
18217TIP3    H276143   4.471   4.769   3.234 -0.6600 -0.1803 -0.4064
18218TIP3   OH276144   6.306   4.233  16.992  0.7431  0.3690 -0.2480
18218TIP3    H176145   6.330   4.240  17.085  0.2114 -0.2575 -0.0562
18218TIP3    H276146   6.352   4.306  16.950  1.1526  0.5383  0.4732
18219TIP3   OH276147   1.388   4.740  12.844 -0.1777  0.3043  0.5873
18219TIP3    H176148   1.386   4.807  12.912 -1.2591  1.2293 -0.3142
18219TIP3    H276149   1.296   4.715  12.832 -0.1860  1.0729 -1.3664
18220TIP3   OH276150   5.247   6.079  15.605  0.4393  0.0762 -0.0726
18220TIP3    H176151   5.183   6.097  15.536  1.4338  1.3105 -0.7294
18220TIP3    H276152   5.328   6.120  15.574  0.8254  1.0491  2.0145
18221TIP3   OH276153   5.686   0.776   2.060 -0.4310 -0.2410 -0.8668
18221TIP3    H176154   5.749   0.773   1.987  0.1983  0.1438 -0.3480
18221TIP3    H276155   5.682   0.868   2.085 -0.1884 -0.4449 -0.0334
18222TIP3   OH276156   2.484   6.394  13.887 -0.2879 -0.5492 -0.1921
18222TIP3    H176157   2.402   6.426  13.924 -2.0324 -2.3152 -2.2687
18222TIP3    H276158   2.508   6.319  13.941  0.2462  0.2365  0.6892
18223TIP3   OH276159   4.464   5.158   5.475 -0.4567 -0.6275  0.0772
18223TIP3    H176160   4.475   5.252   5.489 -1.1303 -0.3857 -0.9164
18223TIP3    H276161   4.394   5.152   5.410 -1.1403 -1.8539  0.8933
18224TIP3   OH276162   2.450   4.198   5.006  0.4853 -0.6534  0.7834
18224TIP3    H176163   2.397   4.242   5.073 -1.1747 -0.9791 -0.2487
18224TIP3    H276164   2.408   4.221   4.924 -0.8386 -4.4708  0.1659
18225TIP3   OH276165   5.387   3.230   3.055 -0.6205 -0.0921  0.2933
18225TIP3    H176166   5.292   3.223   3.053 -0.5065 -2.1254 -0.5941
18225TIP3    H276167   5.411   3.204   3.144 -0.8795  0.7162  0.6131
18226TIP3   OH276168   5.938   5.731   6.423 -0.3228 -0.5654  0.5306
18226TIP3    H176169   5.876   5.681   6.370 -1.9195 -2.0085  3.4991
18226TIP3    H276170   5.898   5.818   6.431  0.1804 -0.1717 -0.9326
18227TIP3   OH276171   4.660   4.482   5.138 -0.2471  0.6222  0.3361
18227TIP3    H176172   4.694   4.441   5.058 -0.4612  2.9128 -1.0168
18227TIP3    H276173   4.612   4.412   5.182 -2.5076 -0.1510 -2.9512
18228TIP3   OH276174   6.429   0.134   2.456  0.2300 -0.3650 -0.3356
18228TIP3    H176175   6.423   0.214   2.508  1.5336 -0.0052 -0.6935
18228TIP3    H276176   6.523   0.113   2.455 -0.2108 -2.7360  0.9689
18229TIP3   OH276177   1.763   1.068   5.171  0.3270  0.1856 -0.1420
18229TIP3    H176178   1.840   1.118   5.143  0.1987  0.6766  0.3610
18229TIP3    H276179   1.702   1.135   5.203 -0.7760 -0.0822 -1.5858
18230TIP3   OH276180   1.417   1.086  14.537 -0.1412  0.1817  0.0561
18230TIP3    H176181   1.489   1.025  14.553  0.2441  0.8674  1.0346
18230TIP3    H276182   1.460   1.172  14.535 -0.9756  0.6290  0.9561
18231TIP3   OH276183   5.455   4.987   4.769  0.1064 -0.3467  0.6361
18231TIP3    H176184   5.524   4.944   4.820  1.2030  0.7127  0.1136
18231TIP3    H276185   5.503   5.049   4.713 -1.2361 -0.0042 -0.1636
18232TIP3   OH276186   2.673   4.492   6.583 -0.6495  0.3801  0.1000
18232TIP3    H176187   2.751   4.516   6.534  0.3847 -0.6079  1.2204
18232TIP3    H276188   2.655   4.401   6.559 -2.3649  1.0196 -1.2814
18233TIP3   OH276189   3.000   4.151   1.045 -0.4130  0.0215  0.3746
18233TIP3    H176190   3.024   4.243   1.040  0.4744 -0.2605 -2.0126
18233TIP3    H276191   2.973   4.128   0.956 -1.7969 -1.7438  1.1722
18234TIP3   OH276192   0.371   1.420  16.107  0.3638 -0.1299 -0.2344
18234TIP3    H176193   0.364   1.390  16.198 -1.6512  1.0543  0.0461
18234TIP3    H276194   0.418   1.503  16.113  1.8489 -0.9091 -0.5204
18235TIP3   OH276195   4.563   6.594  12.754  0.1472  0.2504 -0.5441
18235TIP3    H176196   4.597   6.597  12.843  1.5635 -1.0323 -0.9810
18235TIP3    H276197   4.472   6.567  12.764  0.1330  0.6536  0.5393
18236TIP3   OH276198   6.126   3.677   3.014  0.5843  0.0239 -0.0101
18236TIP3    H176199   6.044   3.628   3.004  1.3980 -1.8051  1.7184
18236TIP3    H276200   6.165   3.676   2.926 -1.3518  1.2801 -0.9663
18237TIP3   OH276201   3.626   5.020   6.687 -0.1904 -0.5495 -0.0005
18237TIP3    H176202   3.546   4.967   6.690 -1.1681  0.8975  0.2293
18237TIP3    H276203   3.658   5.020   6.777 -0.5923 -0.1677  0.1462
18238TIP3   OH276204   1.386   6.431   5.159 -0.0091 -0.4415 -0.3821
18238TIP3    H176205   1.416   6.442   5.250 -1.3717  0.8322 -0.0510
18238TIP3    H276206   1.466   6.442   5.107  0.8325 -1.3764  0.6501
18239TIP3   OH276207   6.695   5.883   1.827  0.1431  0.2848  0.0409
18239TIP3    H176208   6.622   5.877   1.765  0.2179  0.5982 -0.0809
18239TIP3    H276209   6.701   5.976   1.848  0.6481  0.2980 -0.1292
18240TIP3   OH276210   5.671   4.918  12.116  0.3954 -0.1177 -0.4736
18240TIP3    H176211   5.696   4.891  12.028 -0.5907 -1.3377 -0.4145
18240TIP3    H276212   5.666   4.836  12.166  1.1417  0.5661  0.7830
18241TIP3   OH276213   1.796   3.933  14.904 -0.0051 -0.4879  0.0072
18241TIP3    H176214   1.808   4.028  14.893 -0.1199 -0.5247 -0.4315
18241TIP3    H276215   1.764   3.903  14.819  1.6021 -1.1814 -0.3738
18242TIP3   OH276216   3.085   3.194  11.617  0.1791  0.1150  0.1892
18242TIP3    H176217   3.129   3.204  11.533 -2.0310 -1.0023 -1.1579
18242TIP3    H276218   3.056   3.283  11.639  1.4888  0.5603  0.2564
18243TIP3   OH276219   2.244   5.363  14.163  0.0553 -0.1133  0.3132
18243TIP3    H176220   2.234   5.384  14.256 -0.7072  1.5258 -0.1084
18243TIP3    H276221   2.206   5.275  14.154  2.2767 -1.3640  1.9431
18244TIP3   OH276222   5.011   3.530  11.534  0.0234  0.5979  0.9754
18244TIP3    H176223   5.099   3.567  11.535 -0.6711  2.4179 -0.3295
18244TIP3    H276224   5.005   3.481  11.452 -1.0744  2.9889 -0.4682
18245TIP3   OH276225   0.211   3.432  11.638  0.3714 -0.0407  0.8570
18245TIP3    H176226   0.219   3.338  11.625 -0.1297 -0.1113  1.0594
18245TIP3    H276227   0.181   3.465  11.553  0.7675 -0.0338  0.7185
18246TIP3   OH276228   2.939   2.516   1.702 -0.1083  0.2323 -0.2896
18246TIP3    H176229   2.920   2.609   1.685 -0.2880  0.0586 -1.0605
18246TIP3    H276230   3.029   2.504   1.671  0.1759  0.3146  0.4822
18247TIP3   OH276231   4.649   2.343   2.002  0.0092  0.4464 -0.1343
18247TIP3    H176232   4.635   2.273   1.939 -0.7231 -0.7047  1.2584
18247TIP3    H276233   4.563   2.356   2.043  1.1080 -1.2129  2.9979
18248TIP3   OH276234   2.998   4.538  16.988  0.4646 -0.1668 -0.0138
18248TIP3    H176235   2.933   4.562  16.922  1.0636  1.3965 -0.0846
18248TIP3    H276236   2.972   4.451  17.017 -0.2416 -0.5760 -1.7711
18249TIP3   OH276237   3.146   4.918   2.357  0.0535 -0.5683  0.1589
18249TIP3    H176238   3.213   4.884   2.298 -0.3423 -1.5247  0.2542
18249TIP3    H276239   3.118   5.000   2.316  1.4066 -0.0508  0.2152
18250TIP3   OH276240   6.749   3.505  13.880 -0.6246  0.7208  0.0430
18250TIP3    H176241   6.817   3.446  13.911 -0.8994  0.8850  0.9929
18250TIP3    H276242   6.676   3.449  13.856 -0.4137  0.5916 -0.2958
18251TIP3   OH276243   1.694   0.185  13.464  0.3914 -0.6387 -0.0632
18251TIP3    H176244   1.696   0.143  13.378 -0.5410  0.2352 -0.5384
18251TIP3    H276245   1.728   0.119  13.524  1.8827 -0.9582 -1.2089
18252TIP3   OH276246   6.485   5.091  11.542  0.0815 -0.3928 -0.0282
18252TIP3    H176247   6.570   5.048  11.529  0.8516  1.1396 -0.3285
18252TIP3    H276248   6.440   5.037  11.607  2.0554 -0.2454  1.5758
18253TIP3   OH276249   1.533   6.402   2.555 -0.5144  0.4381  0.4700
18253TIP3    H176250   1.579   6.333   2.604 -1.1416 -0.7406 -0.5426
18253TIP3    H276251   1.594   6.428   2.487 -1.0125 -0.5825 -0.3980
18254TIP3   OH276252   1.490   1.072   0.666 -0.1449  0.0577 -0.3501
18254TIP3    H176253   1.570   1.055   0.616 -0.7495 -1.4828 -0.8765
18254TIP3    H276254   1.437   1.127   0.608 -0.5201 -1.0827 -1.1477
18255TIP3   OH276255   2.206   2.902  16.772  0.2071  0.4091 -0.3381
18255TIP3    H176256   2.155   2.835  16.727 -3.6457  2.3884  0.6430
18255TIP3    H276257   2.206   2.874  16.864 -1.7765  1.8097  0.1465
18256TIP3   OH276258   0.121   0.738   4.504  0.1723 -0.1121  0.0683
18256TIP3    H176259   0.150   0.673   4.441 -0.4554 -1.8819  1.5249
18256TIP3    H276260   0.026   0.740   4.495  0.2102  1.1415 -0.4049
18257TIP3   OH276261   3.071   2.924   5.727 -0.1861  0.0587 -0.1595
18257TIP3    H176262   3.055   3.015   5.700  0.9497  0.2117 -0.3816
18257TIP3    H276263   2.997   2.875   5.692  0.0812  0.6260 -1.5936
18258TIP3   OH276264   4.288   2.581   0.075 -0.2134  0.3566 -0.3817
18258TIP3    H176265   4.326   2.529   0.004  1.7594  0.5051  0.5041
18258TIP3    H276266   4.342   2.661   0.078 -0.5793  0.5737  0.9392
18259TIP3   OH276267   5.109   4.944  15.064  0.2749 -0.0093 -0.4829
18259TIP3    H176268   5.190   4.982  15.030  0.8307 -0.3031  0.4778
18259TIP3    H276269   5.080   5.006  15.131 -0.4005  0.1797 -0.9320
18260TIP3   OH276270   1.387   3.702   5.625  0.6039  0.7055  0.5065
18260TIP3    H176271   1.297   3.733   5.625  0.0350 -0.8562 -0.3274
18260TIP3    H276272   1.421   3.726   5.538  0.2172 -0.7802 -0.0738
18261TIP3   OH276273   2.994   5.744  15.251  0.3692 -0.0554  0.2152
18261TIP3    H176274   3.029   5.798  15.180  1.2673 -0.3241  0.4369
18261TIP3    H276275   3.043   5.662  15.246 -0.9482 -0.8612 -0.0882
18262TIP3   OH276276   6.389   3.927  15.499  0.2548  0.3092 -0.0040
18262TIP3    H176277   6.411   3.845  15.542  2.6697  1.4534  1.1456
18262TIP3    H276278   6.359   3.902  15.412 -2.0442 -1.9273  1.2945
18263TIP3   OH276279   1.587   5.489   2.631  0.2499 -0.0183  0.7336
18263TIP3    H176280   1.491   5.498   2.626  0.4783  2.0258 -2.5464
18263TIP3    H276281   1.620   5.575   2.607  2.9317 -1.5945 -1.7545
18264TIP3   OH276282   4.177   2.823   0.638  0.4368  0.3769  0.6152
18264TIP3    H176283   4.218   2.799   0.555  0.2742 -2.5700  1.3075
18264TIP3    H276284   4.088   2.788   0.632 -0.2545  1.9007  1.3122
18265TIP3   OH276285   0.061   6.484   3.340 -0.0614 -0.1847 -0.3571
18265TIP3    H176286   0.017   6.422   3.282  0.1209  0.7432 -1.5179
18265TIP3    H276287  -0.000   6.495   3.414 -0.9731 -0.2514 -1.0848
18266TIP3   OH276288   2.342   3.719   4.581 -0.2102  0.0664 -0.3232
18266TIP3    H176289   2.262   3.668   4.594 -0.3287  0.5045  0.8041
18266TIP3    H276290   2.315   3.792   4.525 -0.9805  1.0204  1.2154
18267TIP3   OH276291   4.383   1.945   4.479  0.4421  0.2161 -0.6098
18267TIP3    H176292   4.434   1.989   4.547 -0.2257  0.4519 -0.2494
18267TIP3    H276293   4.383   1.853   4.505  0.7807  0.1928 -0.6805
18268TIP3   OH276294   3.122   5.210  12.272  0.6286  0.5929 -0.2452
18268TIP3    H176295   3.101   5.303  12.264  0.2496  0.5004 -0.3146
18268TIP3    H276296   3.056   5.174  12.331  0.5598  0.2968 -0.4957
18269TIP3   OH276297   2.109   5.643   5.930  0.3261  0.2756  0.2834
18269TIP3    H176298   2.038   5.672   5.987  0.5327  0.0897  0.6353
18269TIP3    H276299   2.070   5.642   5.842 -1.3853 -3.6755  0.8774
18270TIP3   OH276300   3.588   5.866   4.636  0.1042 -0.1273  0.3939
18270TIP3    H176301   3.620   5.957   4.639 -0.3491  0.0649 -0.4622
18270TIP3    H276302   3.668   5.813   4.641  0.3199  0.2884  1.8187
18271TIP3   OH276303   2.386   4.894  10.444  0.0890  0.3359  0.0165
18271TIP3    H176304   2.451   4.843  10.492 -1.3008 -0.5040  1.1092
18271TIP3    H276305   2.384   4.856  10.357 -1.8184 -2.5163  1.1409
18272TIP3   OH276306   3.373   1.785   2.713  0.0563 -0.2765  0.7655
18272TIP3    H176307   3.389   1.794   2.619 -0.9256 -1.9071  0.3999
18272TIP3    H276308   3.448   1.737   2.746  0.1412 -0.1797  0.7123
18273TIP3   OH276309   3.620   2.352  14.779  0.6935  0.5139  0.7079
18273TIP3    H176310   3.605   2.341  14.685  2.3194  4.1414 -0.1583
18273TIP3    H276311   3.621   2.263  14.814 -5.1579 -0.9118 -1.6733
18274TIP3   OH276312   6.775   0.169  12.813 -0.3478 -0.4476  0.2744
18274TIP3    H176313   6.794   0.250  12.766  0.8134  0.0036  1.4721
18274TIP3    H276314   6.681   0.173  12.830 -0.1306  1.2423  1.3358
18275TIP3   OH276315   3.821   4.436   3.987  0.0971 -0.4855 -0.4458
18275TIP3    H176316   3.914   4.420   3.999  0.1589 -0.3526 -0.7313
18275TIP3    H276317   3.778   4.375   4.047  0.3981  0.7558  1.0834
18276TIP3   OH276318   5.237   4.042  11.318  0.1424 -0.2817  0.0238
18276TIP3    H176319   5.251   3.971  11.256  0.1754 -0.5802  0.3680
18276TIP3    H276320   5.285   4.016  11.397 -0.2718 -0.1297  0.3355
18277TIP3   OH276321   4.595   1.043  16.440  0.3560  0.3550  0.0223
18277TIP3    H176322   4.518   1.013  16.393  1.1315 -0.2319 -0.9132
18277TIP3    H276323   4.575   1.027  16.532 -0.4326 -0.2473 -0.2478
18278TIP3   OH276324   0.559   1.717   5.958  0.7743  0.4958  0.7912
18278TIP3    H176325   0.595   1.740   6.044  0.5373 -0.1819  1.0836
18278TIP3    H276326   0.480   1.770   5.950  0.9070  0.7132  0.9018
18279TIP3   OH276327   3.777   1.917   1.211  0.3487 -0.3114  0.3073
18279TIP3    H176328   3.708   1.936   1.275 -2.5934  1.8033 -3.0857
18279TIP3    H276329   3.752   1.833   1.173 -0.9553  0.7541 -1.3764
18280TIP3   OH276330   1.676   2.241  16.447 -0.3845  0.0352  0.3597
18280TIP3    H176331   1.628   2.187  16.385 -0.3461  0.4770 -0.0634
18280TIP3    H276332   1.768   2.227  16.424 -0.4040  1.1750 -0.5407
18281TIP3   OH276333   1.575   5.930   5.692 -0.0974  0.5763  0.4102
18281TIP3    H176334   1.627   5.938   5.612 -0.5272 -1.6659 -0.1772
18281TIP3    H276335   1.504   5.871   5.667 -0.7042  0.4905  2.2412
18282TIP3   OH276336   1.315   2.869   6.894 -0.3489 -0.4671  0.6138
18282TIP3    H176337   1.334   2.815   6.970  0.0482  0.6243  1.3238
18282TIP3    H276338   1.360   2.952   6.912  0.4139 -0.4536 -1.1849
18283TIP3   OH276339   5.582   1.419   2.807  0.1258  0.0052 -0.3759
18283TIP3    H176340   5.539   1.427   2.722  1.6843  2.6027 -1.0344
18283TIP3    H276341   5.536   1.482   2.863  1.0706  0.5681 -0.2155
18284TIP3   OH276342   1.490   0.318   5.909  0.4355  0.4556 -0.0933
18284TIP3    H176343   1.499   0.393   5.968  1.8504 -0.6967  1.2409
18284TIP3    H276344   1.503   0.355   5.821 -1.3982  2.1522  0.2707
18285TIP3   OH276345   5.769   0.215   4.575  0.0729  0.4618 -0.1171
18285TIP3    H176346   5.733   0.266   4.504 -1.7137 -0.3248  0.1845
18285TIP3    H276347   5.863   0.209   4.555 -0.2038  1.2020 -1.7754
18286TIP3   OH276348   5.527   2.776   0.737  0.2505 -0.3829  0.2044
18286TIP3    H176349   5.537   2.837   0.664 -1.7309 -0.2252  0.0124
18286TIP3    H276350   5.569   2.820   0.811  3.4118 -1.0857 -1.0167
18287TIP3   OH276351   2.074   1.067  16.768  0.6579  0.5308 -0.4416
18287TIP3    H176352   2.071   1.093  16.676  3.0948 -1.4790 -1.2156
18287TIP3    H276353   2.167   1.054  16.786  0.0535 -2.0967  1.3769
18288TIP3   OH276354   0.736   1.124  17.103 -0.0707 -0.2411  0.3894
18288TIP3    H176355   0.780   1.086  17.027 -0.4831 -1.9623  0.9748
18288TIP3    H276356   0.796   1.192  17.133  1.7470 -1.8041  0.5358
18289TIP3   OH276357   3.024   2.880  13.333 -0.8032  0.3178 -0.0147
18289TIP3    H176358   3.004   2.796  13.375 -0.4543 -0.3161 -1.0950
18289TIP3    H276359   3.003   2.866  13.241 -0.4111  1.3147 -0.2620
18290TIP3   OH276360   5.769   5.228   1.432 -0.1227 -0.4748 -0.4251
18290TIP3    H176361   5.777   5.187   1.345  0.8605  1.1245 -1.1131
18290TIP3    H276362   5.835   5.184   1.485 -0.7685 -1.5064 -0.4388
18291TIP3   OH276363   2.500   1.752   3.307 -0.2167  0.1788  1.0260
18291TIP3    H176364   2.569   1.781   3.367  0.4549  0.1751  0.2678
18291TIP3    H276365   2.535   1.771   3.220 -1.2463  0.3247  0.6364
18292TIP3   OH276366   3.178   5.218   2.250  0.8422 -0.0262 -0.1286
18292TIP3    H176367   3.176   5.203   2.156  0.4148  0.6283 -0.2286
18292TIP3    H276368   3.088   5.239   2.274  0.7326 -1.2443  0.6126
18293TIP3   OH276369   2.879   1.660   0.176 -0.0396  0.7185 -0.2783
18293TIP3    H176370   2.946   1.629   0.237  1.1546  0.3705 -1.7077
18293TIP3    H276371   2.879   1.755   0.187  0.3233  0.6793  0.0934
18294TIP3   OH276372   1.195   1.479   4.446 -0.2668 -0.1819 -0.8224
18294TIP3    H176373   1.168   1.536   4.374  0.3485  3.2326  1.3856
18294TIP3    H276374   1.115   1.465   4.497  0.0649  1.1648  0.1268
18295TIP3   OH276375   0.400   3.365   1.720  0.2604 -0.2720  0.1760
18295TIP3    H176376   0.379   3.335   1.631 -0.4535  2.1060 -0.5381
18295TIP3    H276377   0.493   3.385   1.718  0.5911 -1.7214  0.4595
18296TIP3   OH276378   4.410   2.499   2.037  0.0932  0.4964  0.2810
18296TIP3    H176379   4.410   2.566   2.106  0.1313  0.8366 -0.0442
18296TIP3    H276380   4.317   2.484   2.019  0.0178 -0.8749  1.6201
18297TIP3   OH276381   5.087   6.599  13.116 -0.0494 -0.1047 -0.2534
18297TIP3    H176382   5.176   6.634  13.119 -0.1531  0.1327  0.3412
18297TIP3    H276383   5.079   6.560  13.030  0.3040  0.7450 -0.6840
18298TIP3   OH276384   0.728   4.451   0.385 -0.3176 -0.2977 -0.2573
18298TIP3    H176385   0.809   4.404   0.401  0.0188  0.5823  0.7525
18298TIP3    H276386   0.712   4.441   0.291  0.3466 -1.4225 -0.2653
18299TIP3   OH276387   2.569   5.051  11.628 -0.4134 -0.4908 -0.2862
18299TIP3    H176388   2.490   5.005  11.656  0.6735 -2.5796 -0.4434
18299TIP3    H276389   2.554   5.142  11.653 -1.0605 -1.5349  3.7509
18300TIP3   OH276390   6.464   5.401   3.795 -0.0588  0.1114 -0.3478
18300TIP3    H176391   6.481   5.405   3.701  1.1177 -0.2262 -0.1632
18300TIP3    H276392   6.481   5.310   3.819  0.8130  0.4524  0.3943
18301TIP3   OH276393   0.918   3.372   2.296 -0.6052 -0.8298  0.5024
18301TIP3    H176394   1.003   3.333   2.274 -0.9391 -0.5769 -1.4032
18301TIP3    H276395   0.921   3.459   2.257 -1.8299 -0.9210  0.1689
18302TIP3   OH276396   4.831   4.962  14.700  0.6633  0.5536  0.2910
18302TIP3    H176397   4.864   4.900  14.765 -0.9998  0.9537  1.5680
18302TIP3    H276398   4.896   4.959  14.630  1.2962 -1.6614  0.8877
18303TIP3   OH276399   3.707   5.512  10.980 -0.3953  0.8270  0.0370
18303TIP3    H176400   3.741   5.429  10.947  2.2797  1.7607  0.1980
18303TIP3    H276401   3.715   5.572  10.906  0.9451  1.7192  0.8513
18304TIP3   OH276402   0.010   6.013   0.719  0.2151  0.2999 -0.3294
18304TIP3    H176403   0.048   6.018   0.631 -1.1364 -0.8187 -1.0235
18304TIP3    H276404   0.000   5.919   0.735  2.4996  0.3464  1.9925
18305TIP3   OH276405   0.960   0.289  13.489  0.3709 -0.7701 -0.5053
18305TIP3    H176406   0.933   0.253  13.574  0.6594  1.4878  0.6280
18305TIP3    H276407   0.879   0.295  13.439 -0.2093 -0.0704  0.4718
18306TIP3   OH276408   5.802   6.521   0.075  0.1507 -0.0936 -0.1398
18306TIP3    H176409   5.767   6.499  -0.011 -0.1823  0.1732 -0.0750
18306TIP3    H276410   5.826   6.437   0.114  2.4105 -0.0938 -1.3627
18307TIP3   OH276411   3.688   2.950   1.206  0.2746  0.1136 -0.0470
18307TIP3    H176412   3.658   3.034   1.239 -0.0081 -0.6067  1.6629
18307TIP3    H276413   3.656   2.946   1.116 -2.9791  0.2916  0.9646
18308TIP3   OH276414   4.712   2.445  14.943 -0.1195  0.3203 -0.4216
18308TIP3    H176415   4.655   2.432  15.018  0.0575  1.9815  0.0482
18308TIP3    H276416   4.790   2.394  14.963 -0.7081 -0.5385 -0.2475
18309TIP3   OH276417   6.388   5.797   5.416  0.9291 -0.2957  0.0800
18309TIP3    H176418   6.324   5.726   5.416 -1.2529  1.5543 -0.6962
18309TIP3    H276419   6.336   5.877   5.405  3.3852  1.3325 -0.6715
18310TIP3   OH276420   4.193   0.290   3.755 -0.0802 -0.5137  0.1974
18310TIP3    H176421   4.191   0.249   3.669 -1.6008  0.4496 -0.2438
18310TIP3    H276422   4.105   0.323   3.769  0.2400 -0.3057  1.9669
18311TIP3   OH276423   4.254   3.526  13.402  0.0037 -0.5607  0.0749
18311TIP3    H176424   4.287   3.599  13.350 -2.5220  0.7178  0.1273
18311TIP3    H276425   4.287   3.543  13.490  0.5484 -0.2156 -0.1907
18312TIP3   OH276426   0.320   0.227  14.986  0.0082 -0.2152  0.4263
18312TIP3    H176427   0.277   0.218  14.901  2.0028 -1.5527 -0.5032
18312TIP3    H276428   0.264   0.177  15.046 -1.3601  0.6592 -0.0727
18313TIP3   OH276429   2.131   1.766   4.899  0.5281 -0.1246  0.0648
18313TIP3    H176430   2.214   1.725   4.876  0.4538 -0.1073 -0.2462
18313TIP3    H276431   2.122   1.753   4.993  0.7210 -0.4260  0.0420
18314TIP3   OH276432   4.458   6.075   0.426 -0.1063  0.0924  0.0926
18314TIP3    H176433   4.391   6.006   0.426 -0.4859  0.4081  2.1525
18314TIP3    H276434   4.528   6.040   0.371  0.0437 -2.3166  1.6626
18315TIP3   OH276435   5.066   2.668  13.110  0.3749  0.1436  0.3594
18315TIP3    H176436   5.096   2.626  13.191  2.2097 -0.1854 -0.4394
18315TIP3    H276437   5.122   2.630  13.042  0.3670  2.0415 -0.7516
18316TIP3   OH276438   4.570   1.181  13.536 -0.4169 -0.1091 -0.7567
18316TIP3    H176439   4.520   1.100  13.541 -0.8943  0.1976 -0.4023
18316TIP3    H276440   4.644   1.168  13.594 -0.6456 -0.1880 -0.4822
18317TIP3   OH276441   1.331   2.519  15.250 -0.6817  0.4818 -0.3332
18317TIP3    H176442   1.341   2.558  15.163 -0.5549  0.3760 -0.3641
18317TIP3    H276443   1.416   2.531  15.292  1.7442 -5.3601 -2.5203
18318TIP3   OH276444   5.650   1.029   1.134 -0.2579 -0.2754  0.4471
18318TIP3    H176445   5.690   1.116   1.128 -1.6813  0.3534 -0.3674
18318TIP3    H276446   5.556   1.046   1.141 -0.6738 -1.7492 -0.8603
18319TIP3   OH276447   1.020   3.978  15.663 -0.5733  0.1519  0.3228
18319TIP3    H176448   0.985   4.064  15.686  1.6773  0.7182  1.9543
18319TIP3    H276449   1.061   3.946  15.743 -0.8404 -2.2166 -0.4045
18320TIP3   OH276450   1.280   4.095  10.676 -0.2265 -0.0636 -0.2734
18320TIP3    H176451   1.226   4.164  10.638 -1.3916 -0.1932  1.0400
18320TIP3    H276452   1.217   4.034  10.715  0.8072  0.5603  2.6557
18321TIP3   OH276453   3.549   2.085   2.411  0.2473  0.3245  0.4436
18321TIP3    H176454   3.622   2.142   2.385  1.4784 -0.5576  1.8140
18321TIP3    H276455   3.472   2.142   2.409  0.9915  1.3617 -0.7426
18322TIP3   OH276456   4.422   4.355  15.967 -0.0682  0.2238  0.0025
18322TIP3    H176457   4.371   4.373  16.046 -1.1926  0.9459 -0.8778
18322TIP3    H276458   4.359   4.354  15.896  0.7356 -1.7101 -0.7606
18323TIP3   OH276459   2.658   5.646   3.218  0.2663  0.0690 -0.2027
18323TIP3    H176460   2.627   5.592   3.291 -0.2448 -1.8616 -1.7473
18323TIP3    H276461   2.686   5.582   3.152  2.1292  1.7500 -1.1361
18324TIP3   OH276462   3.355   4.803   1.590 -0.0131 -0.2755 -0.3187
18324TIP3    H176463   3.409   4.726   1.574 -0.3234 -0.5260 -0.1688
18324TIP3    H276464   3.397   4.872   1.540  0.1572 -0.5882 -0.6132
18325TIP3   OH276465   1.609   4.241  13.124  0.4314 -0.0497 -0.0196
18325TIP3    H176466   1.657   4.158  13.124 -0.3680 -0.5324 -0.9318
18325TIP3    H276467   1.526   4.221  13.168  0.0380  0.1385 -0.6651
18326TIP3   OH276468   5.933   6.129  12.494  0.6408  0.0315 -0.5498
18326TIP3    H176469   5.874   6.077  12.440 -0.8323  0.5521  0.4999
18326TIP3    H276470   5.944   6.211  12.447  1.3591 -0.4380 -1.2289
18327TIP3   OH276471   5.259   0.554   3.671 -0.1955  0.3893  0.1056
18327TIP3    H176472   5.176   0.570   3.628 -0.0209 -0.3432 -0.5030
18327TIP3    H276473   5.275   0.634   3.722 -1.6580  0.2141  0.8978
18328TIP3   OH276474   3.635   1.801  17.140 -0.1325 -0.0158 -0.6285
18328TIP3    H176475   3.607   1.789  17.050  0.1361 -0.2825 -0.6749
18328TIP3    H276476   3.683   1.721  17.162  0.7499  0.5068 -0.6028
18329TIP3   OH276477   5.084   3.245   3.962 -0.6369 -0.3776 -0.4339
18329TIP3    H176478   5.037   3.162   3.970 -1.0396 -0.0695  0.6308
18329TIP3    H276479   5.155   3.238   4.026 -0.6737  0.0962 -0.3410
18330TIP3   OH276480   0.652   3.133   0.365  0.0289  0.6064 -0.0502
18330TIP3    H176481   0.645   3.159   0.273  1.2649  1.0361 -0.0372
18330TIP3    H276482   0.715   3.061   0.365  1.0781  1.5054  0.6134
18331TIP3   OH276483   3.095   2.264  13.785 -0.1717  0.3998  0.4389
18331TIP3    H176484   3.006   2.242  13.811  0.2771 -0.2785  1.4916
18331TIP3    H276485   3.149   2.197  13.826  0.7019 -0.1164 -1.4793
18332TIP3   OH276486   3.734   5.684   1.567 -0.3783  0.0955  0.4578
18332TIP3    H176487   3.819   5.718   1.539 -0.5944  0.2385 -0.0322
18332TIP3    H276488   3.701   5.750   1.627 -0.5151  0.4495 -0.0029
18333TIP3   OH276489   6.494   5.388  15.293 -0.5020 -0.2511  0.0248
18333TIP3    H176490   6.587   5.382  15.270 -0.0073  1.6800  1.2598
18333TIP3    H276491   6.467   5.298  15.309  1.4388 -0.7786  0.6215
18334TIP3   OH276492   4.513   1.854  14.186 -0.2569 -0.1974 -0.4418
18334TIP3    H176493   4.507   1.760  14.167 -0.1235 -0.1441 -0.7583
18334TIP3    H276494   4.481   1.862  14.276 -1.2994 -0.4047 -0.7875
18335TIP3   OH276495   5.126   3.954   2.874 -0.0973  0.4833 -0.7047
18335TIP3    H176496   5.189   3.883   2.888 -1.0550  0.0614  2.0036
18335TIP3    H276497   5.041   3.912   2.876 -0.6364  1.5591 -0.1971
18336TIP3   OH276498   5.703   1.376  16.791 -0.1071 -0.4030 -0.2920
18336TIP3    H176499   5.738   1.287  16.792  1.0293  0.0154  1.6234
18336TIP3    H276500   5.776   1.431  16.763 -0.8578 -0.0499 -1.6718
18337TIP3   OH276501   0.168   4.428  16.018  0.3186 -0.6486  0.6664
18337TIP3    H176502   0.264   4.433  16.016  0.3632 -0.0615  2.4375
18337TIP3    H276503   0.150   4.350  16.069 -0.1617 -0.7334  0.3693
18338TIP3   OH276504   1.854   0.074   4.944  0.6972  0.5549 -0.2681
18338TIP3    H176505   1.804  -0.006   4.927 -0.0834  0.8465  0.5516
18338TIP3    H276506   1.941   0.044   4.969  0.3783 -0.0445  0.1344
18339TIP3   OH276507   2.240   5.441   6.142 -0.7029 -0.4649 -0.1332
18339TIP3    H176508   2.215   5.480   6.058  0.4185  0.2939 -0.1468
18339TIP3    H276509   2.198   5.496   6.208  0.1282  0.2496 -0.1740
18340TIP3   OH276510   5.113   6.239  13.427 -0.1740  0.8333  0.4861
18340TIP3    H176511   5.176   6.238  13.355 -0.6761  0.2466  0.0556
18340TIP3    H276512   5.142   6.312  13.482  0.2676  1.2288 -0.2544
18341TIP3   OH276513   0.766   3.544  14.559  0.4254  0.1507  0.0635
18341TIP3    H176514   0.700   3.543  14.628  0.2913  3.4841  0.1524
18341TIP3    H276515   0.847   3.520  14.603  0.0217  0.3951  0.9630
18342TIP3   OH276516   4.804   5.229  13.575 -0.4398 -0.0627 -0.5973
18342TIP3    H176517   4.817   5.290  13.647 -1.8586 -1.9828  1.4145
18342TIP3    H276518   4.730   5.265  13.526  1.1315  1.7555 -1.7845
18343TIP3   OH276519   2.780   5.222  15.034  0.2641  0.0250  0.0714
18343TIP3    H176520   2.810   5.140  15.073 -0.7342 -0.6990 -0.6327
18343TIP3    H276521   2.690   5.204  15.005  0.3880  1.0362 -1.0462
18344TIP3   OH276522   2.349   1.505  14.267 -0.0242 -0.6408 -0.0589
18344TIP3    H176523   2.395   1.495  14.184 -0.2674 -1.0950 -0.1436
18344TIP3    H276524   2.383   1.586  14.304 -0.4840 -0.0095 -0.9713
18345TIP3   OH276525   6.688   3.207  13.663 -0.5445 -0.7286  0.5173
18345TIP3    H176526   6.758   3.150  13.632  0.0198  0.6302 -0.8928
18345TIP3    H276527   6.673   3.181  13.754  3.0525  0.0834  1.4806
18346TIP3   OH276528   5.775   6.742   2.029  0.0895 -0.3737  0.0257
18346TIP3    H176529   5.782   6.837   2.030 -1.0737 -0.2012 -2.0149
18346TIP3    H276530   5.852   6.712   1.980 -0.7092 -0.2549 -1.3761
18347TIP3   OH276531   0.635   5.825   1.733 -0.4201 -0.6635 -0.6916
18347TIP3    H176532   0.618   5.855   1.823  1.8350  1.3588 -0.8369
18347TIP3    H276533   0.548   5.819   1.693 -1.6025 -2.7261  1.8734
18348TIP3   OH276534   0.558   1.424   2.057 -0.7736 -0.7508  0.5866
18348TIP3    H176535   0.506   1.428   1.977  0.5142  0.6240 -0.2283
18348TIP3    H276536   0.646   1.448   2.029 -0.0624 -1.3158  2.2403
18349TIP3   OH276537   2.349   2.978  12.024 -0.2360 -0.2772 -0.1386
18349TIP3    H176538   2.432   2.932  12.037  0.8417  1.5901  0.0856
18349TIP3    H276539   2.361   3.027  11.943 -1.1221  0.0440 -0.0898
18350TIP3   OH276540   6.770   4.823   2.996 -0.2409 -0.1180  0.2462
18350TIP3    H176541   6.761   4.898   3.055 -1.7021  0.0839 -0.2014
18350TIP3    H276542   6.794   4.751   3.054 -3.7471 -0.4352  1.5541
18351TIP3   OH276543   1.858   4.151   1.616  0.1883  0.7157  0.3404
18351TIP3    H176544   1.802   4.193   1.551  0.0112 -0.8093 -0.5404
18351TIP3    H276545   1.823   4.180   1.700 -0.9573  1.0100 -0.2171
18352TIP3   OH276546   3.821   5.978   3.368 -0.4604 -0.0897  0.0022
18352TIP3    H176547   3.819   5.899   3.423 -1.0477 -0.0694  0.0146
18352TIP3    H276548   3.909   5.978   3.331 -0.8731 -1.4996 -1.0849
18353TIP3   OH276549   1.897   4.391   5.191  0.3684  0.4581 -0.2494
18353TIP3    H176550   1.905   4.425   5.280 -1.6680  0.8030 -0.1387
18353TIP3    H276551   1.930   4.462   5.136  1.2104  0.4266  0.2026
18354TIP3   OH276552   6.065   5.712  13.927  0.0130  0.0649  0.0827
18354TIP3    H176553   6.012   5.674  13.857  0.1077 -2.3963  1.2443
18354TIP3    H276554   6.005   5.718  14.002  0.9052 -1.3115  0.9640
18355TIP3   OH276555   4.960   5.475   5.096 -0.0765 -0.0559 -0.3746
18355TIP3    H176556   4.879   5.503   5.053 -0.2762 -0.8291 -0.5231
18355TIP3    H276557   5.013   5.554   5.102 -1.0883  0.5928  0.2774
18356TIP3   OH276558   5.527   1.872   3.294  0.2344 -0.2231 -0.0178
18356TIP3    H176559   5.599   1.912   3.342 -0.1147 -0.2662  0.5449
18356TIP3    H276560   5.493   1.941   3.237  0.6045 -0.1552 -0.1570
18357TIP3   OH276561   0.569   6.002  11.623  0.5315  0.5801 -0.1886
18357TIP3    H176562   0.495   5.944  11.637 -0.6950  1.9220 -0.8373
18357TIP3    H276563   0.531   6.090  11.622  2.0256  1.2653 -1.2417
18358TIP3   OH276564   2.088   0.327   1.621  0.2760  0.4705 -0.3366
18358TIP3    H176565   2.181   0.335   1.600  0.5448  0.3192  0.7561
18358TIP3    H276566   2.053   0.271   1.552  0.5664  2.1447 -1.9252
18359TIP3   OH276567   2.024   1.450  14.827  0.6580 -0.1571  0.5309
18359TIP3    H176568   1.935   1.482  14.813  1.0666  1.0352  0.5420
18359TIP3    H276569   2.034   1.447  14.922  1.4658  2.2550  0.5818
18360TIP3   OH276570   2.209   4.526  16.540 -0.3946 -0.2317 -0.4917
18360TIP3    H176571   2.215   4.438  16.502  0.0813 -0.4290  0.0183
18360TIP3    H276572   2.116   4.537  16.560 -0.7135 -0.0195 -1.9243
18361TIP3   OH276573   5.391   2.988  14.528  0.2572  0.3042 -0.0112
18361TIP3    H176574   5.296   2.986  14.537  0.2867 -2.4334  0.4747
18361TIP3    H276575   5.407   2.983  14.434 -0.0976 -0.4613 -0.0365
18362TIP3   OH276576   0.942   1.188  15.146  0.3923 -0.7549  0.5039
18362TIP3    H176577   0.900   1.169  15.230 -0.7432 -0.4011  0.0219
18362TIP3    H276578   0.967   1.281  15.152  0.0566 -0.6543  0.3402
18363TIP3   OH276579   6.699   4.012   5.685 -0.0249  0.4000  0.7610
18363TIP3    H176580   6.640   4.052   5.620  1.0259  2.5130  1.0248
18363TIP3    H276581   6.642   3.955   5.737 -1.0287 -0.8585 -1.5459
18364TIP3   OH276582   4.190   1.802   5.455  0.1402 -0.3911 -0.6279
18364TIP3    H176583   4.246   1.880   5.462  1.8824 -1.5840 -0.4877
18364TIP3    H276584   4.101   1.837   5.450  0.8958  1.6204 -1.2058
18365TIP3   OH276585   2.986   4.421  14.281  0.1738 -0.7352 -0.4019
18365TIP3    H176586   2.951   4.402  14.368 -1.1658 -0.8795 -0.9487
18365TIP3    H276587   3.059   4.480  14.296 -0.9690  0.4319  0.7225
18366TIP3   OH276588   0.556   0.615  10.480  0.5591  0.4473 -0.2761
18366TIP3    H176589   0.578   0.593  10.570  1.6523 -0.1073 -0.6538
18366TIP3    H276590   0.566   0.711  10.476  1.3318  0.3916  0.0052
18367TIP3   OH276591   4.564   3.410  15.319  0.4472 -0.0917 -0.0702
18367TIP3    H176592   4.604   3.464  15.387  1.0764 -0.8849  0.2141
18367TIP3    H276593   4.474   3.398  15.347  0.2735  0.8750 -0.1837
18368TIP3   OH276594   4.885   1.949  16.930 -0.4136 -0.7618  0.4868
18368TIP3    H176595   4.940   1.880  16.893  0.3901 -0.9706  1.9813
18368TIP3    H276596   4.886   2.018  16.864  2.7694 -0.2060  0.9265
18369TIP3   OH276597   0.291   2.242   1.478  0.2349 -0.3185  0.0392
18369TIP3    H176598   0.298   2.183   1.403 -1.8038 -1.2621  0.4970
18369TIP3    H276599   0.224   2.306   1.453  1.9362  1.4429 -0.1818
18370TIP3   OH276600   5.310   1.404  13.722 -0.2555 -0.5670  0.1945
18370TIP3    H176601   5.252   1.358  13.661  1.3187 -1.3382 -0.7798
18370TIP3    H276602   5.302   1.354  13.804 -2.1091  0.2660  0.5749
18371TIP3   OH276603   3.868   4.288  15.404 -0.2185  0.3056 -0.3423
18371TIP3    H176604   3.850   4.197  15.381 -0.0510 -0.2083  1.3659
18371TIP3    H276605   3.781   4.327  15.416 -0.3132 -0.2249  0.9222
18372TIP3   OH276606   1.378   4.660   2.322 -0.5314 -0.1030  0.2438
18372TIP3    H176607   1.458   4.617   2.290  0.3412  2.2340 -1.0715
18372TIP3    H276608   1.351   4.609   2.398  0.6206 -2.6050 -0.9129
18373TIP3   OH276609   0.128   2.580  11.658 -0.0720 -0.4506  1.1647
18373TIP3    H176610   0.177   2.519  11.604 -0.8092 -1.6223  1.7704
18373TIP3    H276611   0.073   2.524  11.714 -1.7911  0.7683  0.7939
18374TIP3   OH276612   0.692   4.088   4.184 -0.0944 -0.5867  0.1691
18374TIP3    H176613   0.628   4.051   4.123 -0.1785  1.3114 -0.9825
18374TIP3    H276614   0.694   4.026   4.257 -1.7213 -1.7410 -0.6886
18375TIP3   OH276615   1.551   0.476  15.467  0.1631 -0.7043  0.2171
18375TIP3    H176616   1.644   0.461  15.481  0.2320 -1.2655 -0.7892
18375TIP3    H276617   1.547   0.557  15.416 -0.0739  1.1369  2.9046
18376TIP3   OH276618   2.217   3.035   6.077  0.3929 -0.5333 -0.8228
18376TIP3    H176619   2.194   3.017   6.168 -1.1834 -1.5780 -1.3877
18376TIP3    H276620   2.253   3.123   6.078  1.3722 -0.9083  0.9492
18377TIP3   OH276621   4.039   2.145  15.003 -0.2248 -0.7112 -1.1134
18377TIP3    H176622   3.968   2.183  15.055  1.0675 -0.3985  0.4998
18377TIP3    H276623   4.056   2.060  15.045  1.9334  0.2397  0.0813
18378TIP3   OH276624   5.176   3.595   2.056  0.2861  0.6520  0.1055
18378TIP3    H176625   5.236   3.669   2.067 -0.5258  1.1461  1.4422
18378TIP3    H276626   5.098   3.633   2.017 -0.6145  0.7840  1.9361
18379TIP3   OH276627   2.722   3.640   0.323 -0.1958 -0.0870  0.0630
18379TIP3    H176628   2.776   3.676   0.252 -0.2861  0.7237  0.3901
18379TIP3    H276629   2.693   3.555   0.290 -0.4871  0.3993 -0.9999
18380TIP3   OH276630   4.633   3.385  14.015  0.1369 -0.1566  0.4824
18380TIP3    H176631   4.716   3.350  14.047 -0.4487 -2.0973  0.0295
18380TIP3    H276632   4.580   3.397  14.094  1.0388  1.7856  0.8494
18381TIP3   OH276633   1.755   6.604  16.796  0.7265 -0.1466 -0.1204
18381TIP3    H176634   1.705   6.531  16.761  0.3473 -1.2578  2.5277
18381TIP3    H276635   1.689   6.666  16.827  1.0360  0.1140  0.0204
18382TIP3   OH276636   6.293   3.354   3.150 -0.2534  0.0506 -0.0401
18382TIP3    H176637   6.283   3.449   3.161 -0.1666  0.0609 -0.0475
18382TIP3    H276638   6.365   3.331   3.209  0.9095  0.2650 -1.3293
18383TIP3   OH276639   6.290   3.805  12.530 -0.1924 -0.3653  0.1005
18383TIP3    H176640   6.238   3.748  12.587  0.6241  0.2897  1.5678
18383TIP3    H276641   6.303   3.885  12.581 -0.8522  0.9636 -1.6948
18384TIP3   OH276642   3.361   3.080  14.411  0.2166 -0.1720 -0.4714
18384TIP3    H176643   3.276   3.038  14.426 -0.1663  0.6885 -0.1673
18384TIP3    H276644   3.412   3.059  14.489  1.0378 -2.4250 -1.5310
18385TIP3   OH276645   1.460   5.874   1.291 -0.7822  0.0923 -0.3795
18385TIP3    H176646   1.534   5.935   1.284 -1.1467  0.8105  1.5458
18385TIP3    H276647   1.484   5.815   1.362 -1.2907 -0.8381 -0.9552
18386TIP3   OH276648   0.451   6.311  16.785  0.5276  0.2033 -0.2984
18386TIP3    H176649   0.382   6.373  16.763  0.2764 -0.1021 -0.3812
18386TIP3    H276650   0.459   6.255  16.708 -0.6548 -1.1497  0.4948
18387TIP3   OH276651   6.453   0.825  14.780 -0.3909 -0.4596 -0.1551
18387TIP3    H176652   6.436   0.846  14.688  1.8025 -0.3215 -0.5770
18387TIP3    H276653   6.480   0.733  14.779  0.1395 -0.3097  0.2763
18388TIP3   OH276654   4.675   4.069   5.189  0.8813 -0.0162  0.0668
18388TIP3    H176655   4.745   4.091   5.127  0.0450 -0.4147 -1.0716
18388TIP3    H276656   4.615   4.144   5.183  1.0051  0.1344  0.7196
18389TIP3   OH276657   0.129   4.482   0.738  0.0594  0.1609  0.0785
18389TIP3    H176658   0.119   4.388   0.754  1.4462 -0.0332 -0.0779
18389TIP3    H276659   0.127   4.491   0.643 -1.7234  0.5258  0.1055
18390TIP3   OH276660   0.044   4.259  12.261 -0.4807 -0.6463 -0.0092
18390TIP3    H176661   0.070   4.209  12.183  0.1664  3.2265 -2.5641
18390TIP3    H276662  -0.049   4.240  12.271  0.0491 -3.5605  0.2871
18391TIP3   OH276663   6.006   4.333   4.867  0.1183 -0.0660  0.0172
18391TIP3    H176664   5.958   4.323   4.950 -0.1525  0.8393 -0.0191
18391TIP3    H276665   5.962   4.272   4.807  0.1671 -0.5566  0.4763
18392TIP3   OH276666   2.311   2.893   4.891 -0.0848 -0.3953  0.6437
18392TIP3    H176667   2.245   2.833   4.858  0.0111 -0.1213 -0.0748
18392TIP3    H276668   2.266   2.945   4.957 -0.0808 -1.4637  1.5068
18393TIP3   OH276669   5.157   5.031   3.306 -0.5576 -0.2472 -0.3104
18393TIP3    H176670   5.208   4.955   3.276 -0.6996 -1.0629  1.4079
18393TIP3    H276671   5.071   4.995   3.328 -0.7471  0.4954  0.1658
18394TIP3   OH276672   1.613   0.474  13.315 -0.3966 -0.0126  0.4025
18394TIP3    H176673   1.593   0.538  13.383  0.3621  1.3455 -0.6076
18394TIP3    H276674   1.641   0.396  13.362  1.0633  1.2142  1.6429
18395TIP3   OH276675   4.059   6.739  13.589 -0.2639 -0.3591  0.2485
18395TIP3    H176676   4.143   6.767  13.627 -0.0395 -0.0970 -0.4334
18395TIP3    H276677   3.999   6.811  13.608  0.3086  0.6316 -1.4862
18396TIP3   OH276678   6.228   6.059  17.058 -0.2803  0.3092 -0.4473
18396TIP3    H176679   6.233   6.153  17.042 -1.3762  0.7397  1.4391
18396TIP3    H276680   6.147   6.047  17.108  1.0849 -1.2850  1.5762
18397TIP3   OH276681   0.601   5.136  17.103  0.3081 -0.4159  0.0443
18397TIP3    H176682   0.683   5.179  17.126 -0.5974  1.8714 -0.7084
18397TIP3    H276683   0.554   5.126  17.186  0.2207  0.8103  0.1576
18398TIP3   OH276684   5.483   6.092   3.023  0.5754  0.7012  0.3549
18398TIP3    H176685   5.527   6.090   3.109  0.3827  3.0693  0.5923
18398TIP3    H276686   5.554   6.107   2.961  0.8364 -1.9137 -0.0883
18399TIP3   OH276687   3.367   1.920  13.332 -0.1075  0.0313 -0.4932
18399TIP3    H176688   3.461   1.931  13.325 -0.0205  0.5621  1.1114
18399TIP3    H276689   3.334   2.006  13.356 -0.8614 -0.3950  0.0610
18400TIP3   OH276690   2.561   0.514  11.382 -0.6979  0.2347  0.0409
18400TIP3    H176691   2.628   0.548  11.443  1.9538  0.0273 -2.5417
18400TIP3    H276692   2.490   0.579  11.386  1.2713  2.5348  0.2364
18401TIP3   OH276693   4.350   2.471   4.362  0.2610 -0.4120  0.0233
18401TIP3    H176694   4.302   2.526   4.299 -0.2587 -0.7341  0.1293
18401TIP3    H276695   4.306   2.386   4.357  0.2494 -0.4536  0.7852
18402TIP3   OH276696   4.657   4.694   1.875  0.0581 -0.5679  0.3209
18402TIP3    H176697   4.723   4.625   1.880 -1.2921 -1.8783  0.3824
18402TIP3    H276698   4.602   4.680   1.952 -1.0233 -0.2502 -0.3794
18403TIP3   OH276699   3.191   3.302   0.083 -0.0953 -0.0989  0.3049
18403TIP3    H176700   3.185   3.314  -0.011 -1.1815 -2.3403  0.0159
18403TIP3    H276701   3.135   3.372   0.119 -0.8045 -0.0691 -0.7923
18404TIP3   OH276702   0.156   0.011   0.811  0.8124 -0.1729  0.1656
18404TIP3    H176703   0.168   0.096   0.855  0.2660  0.5992 -1.1365
18404TIP3    H276704   0.148  -0.052   0.883 -0.8537  1.1500  1.2122
18405TIP3   OH276705   5.455   0.016   4.464  0.0620 -0.4447  0.5911
18405TIP3    H176706   5.455   0.089   4.402 -3.5119  0.8170  1.8145
18405TIP3    H276707   5.377  -0.034   4.441  0.6679 -2.0367  1.8304
18406TIP3   OH276708   1.265   6.341   0.605 -0.3540 -0.4011  0.1590
18406TIP3    H176709   1.280   6.428   0.640 -1.6194  0.2929 -0.9299
18406TIP3    H276710   1.175   6.319   0.632 -0.1807 -1.2108  0.1114
18407TIP3   OH276711   3.649   1.818   5.189  0.0755  0.4814 -0.7306
18407TIP3    H176712   3.587   1.866   5.134 -0.0934  2.0456  0.7348
18407TIP3    H276713   3.638   1.856   5.276 -0.0024 -2.1943  0.5395
18408TIP3   OH276714   6.191   0.752   0.579  0.1326 -0.5149 -0.7388
18408TIP3    H176715   6.122   0.786   0.635  0.3619 -0.5834 -0.4150
18408TIP3    H276716   6.144   0.703   0.511 -0.1197 -0.9790 -0.2369
18409TIP3   OH276717   5.560   4.549   0.612 -0.2719  0.2717  0.8484
18409TIP3    H176718   5.477   4.528   0.567 -0.0715  0.0070  0.5967
18409TIP3    H276719   5.541   4.536   0.705 -0.6318  0.6151  0.8258
18410TIP3   OH276720   4.347   5.043   1.955 -0.0440 -0.3835 -0.5654
18410TIP3    H176721   4.431   5.023   1.913  0.2606 -1.6074  0.5373
18410TIP3    H276722   4.357   5.010   2.044 -0.8054  1.7827  0.3684
18411TIP3   OH276723   1.002   0.611   0.056 -0.0804 -0.2728  0.6376
18411TIP3    H176724   0.912   0.643   0.065 -0.7463 -2.0025  0.6697
18411TIP3    H276725   1.027   0.584   0.145 -0.1066 -1.1562  0.3924
18412TIP3   OH276726   2.456   2.750  12.376  0.4351 -0.0776  0.9021
18412TIP3    H176727   2.521   2.692  12.336  0.4328 -0.3839  1.3233
18412TIP3    H276728   2.493   2.838  12.369 -0.0482  0.0169 -0.7104
18413TIP3   OH276729   0.139   3.651  15.512 -0.2027 -0.1604  0.1032
18413TIP3    H176730   0.117   3.725  15.455  0.3901  0.1445  0.2640
18413TIP3    H276731   0.080   3.659  15.587  0.2501  0.4997  0.4025
18414TIP3   OH276732   1.970   4.332   5.979  0.3482 -0.6329 -0.0025
18414TIP3    H176733   1.996   4.324   6.070 -1.3757 -0.4086  0.5585
18414TIP3    H276734   2.002   4.418   5.952 -2.1249  0.9018  1.5437
18415TIP3   OH276735   4.262   6.392   3.208 -0.6794  0.4048 -0.0908
18415TIP3    H176736   4.303   6.472   3.241  0.5372 -0.1289 -0.2594
18415TIP3    H276737   4.330   6.349   3.156 -0.8788 -1.3969  1.0542
18416TIP3   OH276738   3.563   4.632  16.794  0.3207 -0.2862 -0.3478
18416TIP3    H176739   3.526   4.609  16.879  1.3492  1.0436  0.4899
18416TIP3    H276740   3.515   4.578  16.732  0.5228 -2.3394  1.1973
18417TIP3   OH276741   5.872   3.143   5.450 -0.1603  0.6969  0.2364
18417TIP3    H176742   5.842   3.079   5.386 -2.4296  2.1211 -0.2420
18417TIP3    H276743   5.822   3.223   5.430  1.1993  2.0660  1.9526
18418TIP3   OH276744   1.559   2.153  11.907  0.4012 -0.4656  0.8638
18418TIP3    H176745   1.628   2.212  11.936  1.3409 -1.8533  1.5505
18418TIP3    H276746   1.563   2.155  11.812  1.1642 -0.2726  0.8936
18419TIP3   OH276747   0.787   5.362  16.768 -0.2613  0.4584  0.1413
18419TIP3    H176748   0.739   5.421  16.710 -1.1014 -0.0021  0.3665
18419TIP3    H276749   0.822   5.294  16.711  0.5612  1.0633 -0.0944
18420TIP3   OH276750   0.506   0.662   5.093  0.4785  0.0105 -0.1142
18420TIP3    H176751   0.517   0.640   5.186  0.0280  2.3683  0.5864
18420TIP3    H276752   0.428   0.718   5.092 -0.1062 -0.7756 -2.0938
18421TIP3   OH276753   5.354   6.230   1.835  0.5889  0.2276 -0.3074
18421TIP3    H176754   5.329   6.268   1.751 -0.1282 -0.3734 -0.3803
18421TIP3    H276755   5.413   6.294   1.874  1.8431  0.0063 -1.7647
18422TIP3   OH276756   1.990   4.631   1.483 -0.3780  0.5528  0.0701
18422TIP3    H176757   2.019   4.543   1.457 -0.6600  1.4296 -3.8648
18422TIP3    H276758   1.896   4.621   1.500  0.0296 -0.2842  2.0433
18423TIP3   OH276759   1.030   5.489  11.271  0.4142  0.2812 -0.0145
18423TIP3    H176760   1.103   5.439  11.234  1.5333  1.3589  0.6506
18423TIP3    H276761   0.979   5.518  11.196  1.1372  0.1930 -0.5421
18424TIP3   OH276762   3.903   6.751  10.622  0.0153  0.0965 -0.2266
18424TIP3    H176763   3.813   6.747  10.589  0.1816 -4.0127 -0.7387
18424TIP3    H276764   3.957   6.728  10.546  1.1091 -1.2804  0.9095
18425TIP3   OH276765   2.649   4.715   2.930  0.2694  0.2459 -0.5891
18425TIP3    H176766   2.566   4.671   2.951 -0.7507  0.8735 -2.8951
18425TIP3    H276767   2.624   4.782   2.866  2.1471  2.4746  0.8832
18426TIP3   OH276768   2.178   6.196   2.859 -0.3780 -0.2811 -0.0614
18426TIP3    H176769   2.189   6.103   2.877  0.1903 -0.7255 -2.4277
18426TIP3    H276770   2.182   6.238   2.945 -1.0882 -2.4582  1.0984
18427TIP3   OH276771   1.708   5.828   0.508 -0.1361 -0.3884  0.2612
18427TIP3    H176772   1.796   5.828   0.470  0.2893  1.1997  1.1280
18427TIP3    H276773   1.705   5.748   0.562  0.6916 -0.5774  0.0413
18428TIP3   OH276774   5.222   4.420  12.362  0.2923  0.3473  0.0999
18428TIP3    H176775   5.133   4.425  12.327  0.5063 -2.4440 -1.1178
18428TIP3    H276776   5.276   4.464  12.297 -0.0534  1.1497  0.3411
18429TIP3   OH276777   0.968   2.344   4.943  0.4397 -0.0431 -0.3197
18429TIP3    H176778   0.915   2.400   4.887  0.9679  0.1920 -0.5955
18429TIP3    H276779   0.944   2.255   4.917  0.4364  0.0632 -0.6952
18430TIP3   OH276780   5.295   6.785  15.850 -0.4224  0.5257 -0.4488
18430TIP3    H176781   5.370   6.759  15.904  0.7911  1.7475 -1.4584
18430TIP3    H276782   5.272   6.706  15.801 -1.1712 -0.4359  1.3767
18431TIP3   OH276783   2.508   1.779  14.297  0.5732  0.7964  0.4358
18431TIP3    H176784   2.593   1.738  14.281  0.3601  0.6915 -0.4946
18431TIP3    H276785   2.498   1.778  14.392  0.4057 -1.6371  0.4583
18432TIP3   OH276786   1.912   2.825  11.957  0.1348 -0.4186 -0.3928
18432TIP3    H176787   1.912   2.749  12.014  1.6471 -0.5203 -0.4928
18432TIP3    H276788   1.828   2.821  11.911 -1.1855 -0.2367  1.8915
18433TIP3   OH276789   0.043   2.766   0.618  0.2730 -0.4755 -0.2017
18433TIP3    H176790   0.017   2.710   0.544 -0.9227 -2.4561  1.6032
18433TIP3    H276791  -0.014   2.842   0.612  0.0543 -0.7012 -1.1972
18434TIP3   OH276792   3.427   3.898  17.247 -0.0172 -0.0215 -0.7001
18434TIP3    H176793   3.415   3.904  17.342  1.6910 -1.2417 -0.3642
18434TIP3    H276794   3.339   3.891  17.212 -0.6035 -1.9382  1.0074
18435TIP3   OH276795   5.161   0.221  11.165  0.5369 -0.1875  0.6515
18435TIP3    H176796   5.117   0.245  11.083 -0.9489 -0.2538  1.4005
18435TIP3    H276797   5.246   0.189  11.137 -0.9538 -2.9957 -1.2101
18436TIP3   OH276798   3.091   2.684   6.138  0.3811 -0.1094 -0.3821
18436TIP3    H176799   3.086   2.737   6.217  0.2081  0.7150 -0.9345
18436TIP3    H276800   3.181   2.695   6.106 -0.4138  2.2717 -2.0943
18437TIP3   OH276801   1.542   2.144   5.926 -0.6526  0.2429  0.5359
18437TIP3    H176802   1.469   2.085   5.909 -0.3385 -0.2718  0.9149
18437TIP3    H276803   1.555   2.140   6.021 -0.1527  0.3394  0.4784
18438TIP3   OH276804   4.630   6.278  14.913  0.5381  0.4441  0.0671
18438TIP3    H176805   4.694   6.349  14.902  1.1974 -0.1681 -0.0969
18438TIP3    H276806   4.569   6.289  14.840  0.6381  0.8317  0.0362
18439TIP3   OH276807   0.863   2.367   1.029  0.4733  0.4194 -0.2802
18439TIP3    H176808   0.780   2.323   1.013  0.6350 -1.0191  2.2592
18439TIP3    H276809   0.839   2.456   1.056 -0.2057  0.1935 -0.1332
18440TIP3   OH276810   3.508   1.034  12.203  0.3327  0.0007  0.4085
18440TIP3    H176811   3.573   1.058  12.269  0.1778 -2.1022  1.4251
18440TIP3    H276812   3.558   0.992  12.133  0.2064 -0.7365  0.7437
18441TIP3   OH276813   4.685   2.517  16.280 -0.3820 -0.3427  0.3362
18441TIP3    H176814   4.694   2.427  16.312  0.8352  0.5949  2.8993
18441TIP3    H276815   4.775   2.549  16.271 -0.7593  0.3568 -1.5363
18442TIP3   OH276816   5.234   5.719  12.661 -0.2967 -0.1036  0.4041
18442TIP3    H176817   5.279   5.637  12.683 -0.6468 -0.5472 -0.4769
18442TIP3    H276818   5.216   5.760  12.745 -0.8739 -1.3482  0.9126
18443TIP3   OH276819   6.226   2.142  10.608 -0.4176  0.1557 -0.0281
18443TIP3    H176820   6.283   2.106  10.540 -1.4896  0.7062 -1.2706
18443TIP3    H276821   6.241   2.087  10.685 -0.2901 -1.4589 -1.1734
18444TIP3   OH276822   0.916   6.271   3.292 -0.5039  0.2233 -0.8949
18444TIP3    H176823   0.944   6.205   3.230 -0.7061 -0.6984 -0.0346
18444TIP3    H276824   0.838   6.234   3.334  0.0842  0.4411  0.4718
18445TIP3   OH276825   4.455   2.650   1.740 -0.2273 -0.3389  0.1147
18445TIP3    H176826   4.509   2.573   1.722  0.3579  0.2116 -0.5763
18445TIP3    H276827   4.425   2.678   1.653  1.0034  1.2218  0.1465
18446TIP3   OH276828   4.497   1.325   4.716 -0.1250 -0.9784  0.6750
18446TIP3    H176829   4.529   1.407   4.681 -1.3931 -1.1119 -0.9102
18446TIP3    H276830   4.418   1.306   4.666 -0.5887 -2.5153  1.8822
18447TIP3   OH276831   2.168   0.240   2.591 -0.4477 -0.0076  0.0377
18447TIP3    H176832   2.219   0.282   2.522 -2.2413 -0.1190 -1.4400
18447TIP3    H276833   2.230   0.182   2.634  0.7531  0.0802 -1.4658
18448TIP3   OH276834   1.324   4.056  11.484 -0.0190 -0.0370 -0.1398
18448TIP3    H176835   1.387   4.051  11.412  2.3452  0.9323  1.7315
18448TIP3    H276836   1.367   4.009  11.556 -2.2979 -0.9445  0.7049
18449TIP3   OH276837   0.329   6.033   4.508  0.3455 -0.2564 -0.4418
18449TIP3    H176838   0.265   6.098   4.479  1.1802  1.3680  1.1353
18449TIP3    H276839   0.412   6.064   4.474  1.2197  1.2497  2.6438
18450TIP3   OH276840   4.449   4.466  13.893 -0.0238 -0.2473  0.2392
18450TIP3    H176841   4.512   4.407  13.852  1.4601  1.6175 -0.2881
18450TIP3    H276842   4.424   4.527  13.823  0.0414  0.9800  1.2605
18451TIP3   OH276843   0.437   5.699   1.108 -0.2922  0.1156  0.7141
18451TIP3    H176844   0.523   5.741   1.097  0.0598 -1.0581 -1.8399
18451TIP3    H276845   0.418   5.706   1.201  2.3735  0.8165  1.2820
18452TIP3   OH276846   4.331   1.541  10.875 -0.0043 -0.0780  0.0598
18452TIP3    H176847   4.382   1.586  10.808  0.6371 -0.6534  0.1468
18452TIP3    H276848   4.397   1.498  10.929 -0.5920 -0.8141  0.1925
18453TIP3   OH276849   6.518   6.424  14.272  0.3612  0.6964 -0.1055
18453TIP3    H176850   6.588   6.402  14.334 -0.0061  1.5314  0.6308
18453TIP3    H276851   6.444   6.371  14.300  0.8400 -0.6031 -1.2254
18454TIP3   OH276852   5.458   0.871  16.457 -0.0148  0.1751 -0.6865
18454TIP3    H176853   5.454   0.949  16.400  2.3966  0.2997 -0.7741
18454TIP3    H276854   5.519   0.812  16.413  1.3532 -0.0455  1.3695
18455TIP3   OH276855   1.280   0.461   1.212 -0.1832 -0.0565  0.1110
18455TIP3    H176856   1.263   0.462   1.118 -0.5228  0.9869  0.1706
18455TIP3    H276857   1.341   0.534   1.227 -1.4042  0.8484  0.9039
18456TIP3   OH276858   1.339   4.693  13.981  0.2560 -0.3003  0.0624
18456TIP3    H176859   1.345   4.786  14.004 -0.4059 -0.7327  2.2066
18456TIP3    H276860   1.249   4.669  14.003  0.6007 -1.5911  0.1370
18457TIP3   OH276861   4.884   2.556  15.839 -0.1094  0.7155 -0.1064
18457TIP3    H176862   4.877   2.649  15.820  2.8887  1.3385  1.2124
18457TIP3    H276863   4.846   2.546  15.927 -0.6618  0.6223 -0.3512
18458TIP3   OH276864   3.756   5.344   2.588 -0.0251  0.0648  0.3437
18458TIP3    H176865   3.665   5.318   2.601  0.1048 -0.8246 -0.4425
18458TIP3    H276866   3.759   5.377   2.498  0.5115 -0.3048  0.2220
18459TIP3   OH276867   5.398   6.174   2.643  0.0045  0.0376  0.1823
18459TIP3    H176868   5.426   6.084   2.663 -0.1510  0.3147  1.8299
18459TIP3    H276869   5.303   6.167   2.635 -0.1412  0.2237  1.5081
18460TIP3   OH276870   3.682   0.599   4.465  0.2753  0.2020  0.2036
18460TIP3    H176871   3.710   0.651   4.541  1.2125  1.3583 -0.8790
18460TIP3    H276872   3.593   0.629   4.446 -0.4505 -0.9761  1.5485
18461TIP3   OH276873   4.755   3.551   3.335 -0.5389 -0.4812  0.1956
18461TIP3    H176874   4.671   3.505   3.340  1.0404 -3.6192  0.5286
18461TIP3    H276875   4.815   3.487   3.299  1.4867  2.1290 -1.4389
18462TIP3   OH276876   3.229   4.757   4.132 -0.6680  0.2082 -0.5270
18462TIP3    H176877   3.270   4.812   4.199 -0.3867  0.1370 -0.6397
18462TIP3    H276878   3.164   4.815   4.091  1.7252  1.5377 -2.7789
18463TIP3   OH276879   0.888   1.849  13.669 -0.0761  0.1124 -0.1495
18463TIP3    H176880   0.857   1.922  13.616 -0.3078  0.8602  0.9944
18463TIP3    H276881   0.956   1.808  13.615  0.1131  1.2138 -0.7757
18464TIP3   OH276882   4.974   0.664  10.984  0.2126  0.5445  0.1732
18464TIP3    H176883   4.922   0.633  11.058  1.0096 -1.6128 -0.0757
18464TIP3    H276884   4.928   0.629  10.907  1.0807  0.0389 -0.1362
18465TIP3   OH276885   2.244   3.145  12.774  0.1568 -0.1493  0.4538
18465TIP3    H176886   2.154   3.121  12.749  1.0604 -1.4588 -1.8203
18465TIP3    H276887   2.267   3.083  12.843 -0.2382 -0.7234  0.0812
18466TIP3   OH276888   5.753   0.927   4.379  0.2708  0.4267 -0.4596
18466TIP3    H176889   5.673   0.884   4.411  0.8306 -0.8446 -0.7085
18466TIP3    H276890   5.721   1.002   4.328 -0.7211  0.5954  0.3867
18467TIP3   OH276891   3.002   2.600  16.438 -0.0274 -0.1524  0.1497
18467TIP3    H176892   3.066   2.672  16.440  0.2214 -0.3801  1.2868
18467TIP3    H276893   2.931   2.630  16.494  0.7013 -1.3124  1.7898
18468TIP3   OH276894   0.882   2.406   4.292  0.0323 -0.0956 -0.0161
18468TIP3    H176895   0.905   2.480   4.347  0.9555  1.4973 -2.3959
18468TIP3    H276896   0.923   2.331   4.334 -0.2613  0.8403  2.0359
18469TIP3   OH276897   1.565   4.877   3.884  0.3333  0.0291 -0.5073
18469TIP3    H176898   1.543   4.797   3.930 -0.7399 -1.3884 -3.2454
18469TIP3    H276899   1.650   4.860   3.844  1.2089  1.1930  0.7749
18470TIP3   OH276900   5.875   1.076   3.223 -0.6374 -0.0954 -0.2965
18470TIP3    H176901   5.906   1.153   3.270 -0.6242 -0.3463  0.1174
18470TIP3    H276902   5.784   1.065   3.251 -0.1587 -1.1817  0.9523
18471TIP3   OH276903   0.633   1.710   5.200  0.1922 -0.5286 -0.0636
18471TIP3    H176904   0.588   1.717   5.284  0.6187  2.1067  0.0139
18471TIP3    H276905   0.568   1.739   5.136  0.1974 -1.5591 -0.5573
18472TIP3   OH276906   5.393   2.273   5.251 -0.2448  0.8016  0.4074
18472TIP3    H176907   5.327   2.258   5.183  0.7695  3.0596 -1.1670
18472TIP3    H276908   5.442   2.350   5.222  2.0513  0.2012  2.3365
18473TIP3   OH276909   6.554   6.584  15.412 -0.0731 -0.1205 -0.4683
18473TIP3    H176910   6.623   6.529  15.375  0.7153  0.1732  0.5103
18473TIP3    H276911   6.517   6.630  15.336  0.2785 -0.8556 -1.1012
18474TIP3   OH276912   3.655   5.495   4.966 -0.0287  0.1019  0.0664
18474TIP3    H176913   3.596   5.457   5.031 -1.5279 -0.8074 -1.7167
18474TIP3    H276914   3.724   5.536   5.017 -0.5062 -1.5607  2.2012
18475TIP3   OH276915   5.019   0.237   0.838 -0.2016 -0.3721  0.3597
18475TIP3    H176916   5.079   0.312   0.841  0.3744 -0.7497 -1.1132
18475TIP3    H276917   4.959   0.252   0.911  0.1738  1.3004  0.3681
18476TIP3   OH276918   0.266   1.063   3.037  0.0792  0.3811  0.1710
18476TIP3    H176919   0.205   1.074   2.964  0.6290 -0.0668 -0.3715
18476TIP3    H276920   0.211   1.062   3.115 -0.5434  0.6091 -0.2584
18477TIP3   OH276921   6.570   1.092   0.058 -0.0681  0.4538 -0.1263
18477TIP3    H176922   6.510   1.058  -0.008 -1.1904 -1.7176  1.8664
18477TIP3    H276923   6.655   1.095   0.014 -0.4684 -2.3501 -1.3121
18478TIP3   OH276924   1.553   4.108   4.632  0.1449 -0.3035 -0.5426
18478TIP3    H176925   1.599   4.026   4.653  0.6516 -0.5354 -2.3620
18478TIP3    H276926   1.461   4.090   4.652  0.2782 -1.2674 -0.7181
18479TIP3   OH276927   5.807   2.005  12.763  0.4972 -0.3603  0.2138
18479TIP3    H176928   5.866   2.017  12.688 -0.8811 -1.4909 -1.1232
18479TIP3    H276929   5.720   1.998  12.724 -0.1025 -2.4511  1.7653
18480TIP3   OH276930   5.944   5.886   3.202 -0.0959 -0.4119 -0.8306
18480TIP3    H176931   5.913   5.842   3.123  0.3825 -1.0936 -0.6525
18480TIP3    H276932   5.968   5.814   3.261 -1.0573  0.0832  0.1775
18481TIP3   OH276933   4.036   2.306  15.510  0.1782 -0.3606 -0.2650
18481TIP3    H176934   4.114   2.353  15.481  0.9683 -0.2351  1.8656
18481TIP3    H276935   3.974   2.376  15.533 -0.1380 -0.4492 -0.8166
18482TIP3   OH276936   3.230   3.106  16.009  0.1664  0.0548  0.0521
18482TIP3    H176937   3.142   3.097  16.045 -0.1963 -1.3115 -1.1223
18482TIP3    H276938   3.218   3.143  15.922  1.0061  2.7442  0.9711
18483TIP3   OH276939   4.169   2.126  15.273 -0.0155 -0.0251 -0.5035
18483TIP3    H176940   4.204   2.190  15.211  1.0479  1.7670  1.7433
18483TIP3    H276941   4.076   2.147  15.279  0.2623  1.1966 -0.0262
18484TIP3   OH276942   6.107   5.985  12.673 -0.2336  0.0312 -0.7839
18484TIP3    H176943   6.044   6.043  12.631  0.7669  1.2634 -0.6291
18484TIP3    H276944   6.185   6.038  12.684 -0.3656 -0.2463  2.5017
18485TIP3   OH276945   5.164   4.703  13.171  0.1020  0.7325  0.1561
18485TIP3    H176946   5.205   4.633  13.121  0.7550  0.6886  0.7413
18485TIP3    H276947   5.158   4.776  13.109 -2.1766 -0.3293 -0.9964
18486TIP3   OH276948   2.174   3.727  15.073 -0.3234  0.3980 -0.1815
18486TIP3    H176949   2.099   3.674  15.100  0.4927 -0.4226  0.5575
18486TIP3    H276950   2.224   3.739  15.154  2.0001 -1.7954 -1.1532
18487TIP3   OH276951   0.419   4.306  11.369 -0.5304  0.0166  0.0301
18487TIP3    H176952   0.386   4.227  11.326  0.2388 -0.5714  0.4868
18487TIP3    H276953   0.349   4.370  11.359 -1.5256 -0.9915  0.4138
18488TIP3   OH276954   0.737   6.428   1.196 -0.3278 -0.3212  0.2279
18488TIP3    H176955   0.671   6.359   1.197  0.6610 -1.3579 -1.2045
18488TIP3    H276956   0.820   6.381   1.202  0.3624  0.7328 -0.8031
18489TIP3   OH276957   3.327   0.554   2.490 -0.6873 -0.1802 -0.3147
18489TIP3    H176958   3.241   0.535   2.453 -0.3688 -0.3386 -1.0093
18489TIP3    H276959   3.331   0.504   2.571 -1.4586  0.2780  0.0128
18490TIP3   OH276960   6.283   6.487   4.022 -0.0930 -0.4843  0.7318
18490TIP3    H176961   6.240   6.562   4.062  0.6053  0.9762 -1.0972
18490TIP3    H276962   6.376   6.498   4.044  0.0916 -0.4536 -0.0320
18491TIP3   OH276963   1.506   3.327  14.728  0.2922 -0.0254  0.6117
18491TIP3    H176964   1.458   3.281  14.659  2.1285 -1.3207  0.1263
18491TIP3    H276965   1.438   3.358  14.787 -1.2316 -0.3894 -0.8618
18492TIP3   OH276966   1.219   4.399   0.085  0.0604  0.0695 -0.3488
18492TIP3    H176967   1.174   4.315   0.079  1.4647 -0.6576 -1.3016
18492TIP3    H276968   1.239   4.409   0.178  0.7502 -1.1532 -0.3431
18493TIP3   OH276969   1.254   0.215   5.457 -0.5531  0.2083  0.0360
18493TIP3    H176970   1.341   0.193   5.423  0.6103  2.1742  1.5335
18493TIP3    H276971   1.196   0.150   5.418  1.5018 -0.8760 -1.3997
18494TIP3   OH276972   1.242   4.223   6.099  0.0426 -0.3064  0.4115
18494TIP3    H176973   1.332   4.220   6.132 -0.2823 -2.4545  1.2441
18494TIP3    H276974   1.204   4.140   6.126 -2.4544  0.8585  0.7763
18495TIP3   OH276975   3.020   5.202  14.946 -0.0426  0.3331 -0.5659
18495TIP3    H176976   3.086   5.266  14.919  1.3419 -1.5087 -1.8528
18495TIP3    H276977   2.944   5.254  14.970  1.0220  2.4374 -1.4946
18496TIP3   OH276978   4.302   0.757  13.825  0.5013 -0.1939 -0.3181
18496TIP3    H176979   4.275   0.694  13.758 -0.6995  0.2895 -0.3130
18496TIP3    H276980   4.270   0.719  13.907 -0.4417  0.5293 -0.3435
18497TIP3   OH276981   1.741   6.582  11.696  0.3464  0.3833  0.4912
18497TIP3    H176982   1.713   6.524  11.766 -0.0089  1.1218  0.9701
18497TIP3    H276983   1.744   6.669  11.735 -1.1076  1.0183 -0.7131
18498TIP3   OH276984   0.593   4.953  16.890 -0.0176 -0.2183 -0.1009
18498TIP3    H176985   0.608   5.018  16.959 -0.0017  1.9681 -2.0103
18498TIP3    H276986   0.656   4.977  16.821 -0.7421 -1.6361 -1.3139
18499TIP3   OH276987   6.107   5.154   5.681 -0.6959 -0.6972 -0.0878
18499TIP3    H176988   6.033   5.182   5.734 -2.4129 -1.2645 -2.0215
18499TIP3    H276989   6.108   5.058   5.690  0.1330 -0.6658  0.2866
18500TIP3   OH276990   4.371   0.540  14.477 -0.3371 -0.0051 -0.2669
18500TIP3    H176991   4.364   0.597  14.554  0.1630 -0.3468  0.0388
18500TIP3    H276992   4.329   0.458  14.504 -0.0066 -0.1851 -0.2922
18501TIP3   OH276993   6.211   0.261  12.737  0.0301 -0.0832 -0.4334
18501TIP3    H176994   6.257   0.330  12.786 -2.4495  0.8471  0.7429
18501TIP3    H276995   6.123   0.260  12.774 -0.8224 -2.0337 -2.3210
18502TIP3   OH276996   5.751   5.566  14.197  0.1043  0.0631 -0.3612
18502TIP3    H176997   5.813   5.636  14.177  0.3296  0.1306  0.5465
18502TIP3    H276998   5.741   5.519  14.114  2.6138 -0.9292 -0.1902
18503TIP3   OH276999   6.696   5.324   2.293 -0.1963  0.1126  0.1200
18503TIP3    H177000   6.692   5.229   2.309 -2.2470  0.1079 -0.2195
18503TIP3    H277001   6.607   5.355   2.309  0.7315  2.2412  1.6210
18504TIP3   OH277002   3.782   1.714  16.287 -0.6971 -0.1304  0.3419
18504TIP3    H177003   3.846   1.739  16.354 -0.3142 -0.2700  0.0388
18504TIP3    H277004   3.782   1.787  16.226 -0.7995 -0.1468  0.3231
18505TIP3   OH277005   6.474   3.861  12.316  0.0314 -0.2672 -0.6651
18505TIP3    H177006   6.555   3.842  12.365  0.8259 -1.2170 -2.2673
18505TIP3    H277007   6.406   3.865  12.383  1.2159 -0.6509  0.6091
18506TIP3   OH277008   1.964   0.486  13.753 -0.2138  0.0984  0.3044
18506TIP3    H177009   1.931   0.418  13.812  0.4710  0.6036  1.3206
18506TIP3    H277010   1.926   0.465  13.668 -0.8055 -0.9764  0.8057
18507TIP3   OH277011   3.024   0.118  11.483  0.2787  0.3198 -0.0362
18507TIP3    H177012   2.953   0.058  11.459 -0.8741  1.8697 -0.7244
18507TIP3    H277013   2.999   0.150  11.570  1.2525 -0.6926  0.6316
18508TIP3   OH277014   2.812   0.619   0.933  0.5383  0.8036 -0.4593
18508TIP3    H177015   2.757   0.541   0.934  0.5997  0.7666  0.1498
18508TIP3    H277016   2.840   0.627   0.842  0.6599  0.0222 -0.4971
18509TIP3   OH277017   2.941   5.036  15.286 -0.5213  0.3570  0.6582
18509TIP3    H177018   3.033   5.055  15.268 -0.7001  0.8289  0.2200
18509TIP3    H277019   2.902   5.122  15.304 -1.0663  0.2732 -0.0790
18510TIP3   OH277020   4.676   2.918  13.268  0.1191  0.0976  0.1262
18510TIP3    H177021   4.708   2.848  13.211  1.0984  0.4307  0.2449
18510TIP3    H277022   4.707   2.893  13.356  3.2350  2.1522 -0.2187
18511TIP3   OH277023   3.856   5.483  14.649 -0.2698  0.2276 -0.5148
18511TIP3    H177024   3.782   5.474  14.589  0.0343  1.0101 -1.0234
18511TIP3    H277025   3.815   5.498  14.735 -0.8166  3.7714 -1.2337
18512TIP3   OH277026   2.207   5.476   2.474 -0.1383 -0.4647  0.9019
18512TIP3    H177027   2.255   5.554   2.502 -1.8372  0.7318  0.6449
18512TIP3    H277028   2.239   5.459   2.385 -0.5663  0.6585  0.5152
18513TIP3   OH277029   6.232   0.154  12.487  0.3293  0.3044  0.0287
18513TIP3    H177030   6.204   0.183  12.574 -1.5116 -0.8601 -0.1214
18513TIP3    H277031   6.318   0.114  12.502 -0.2640 -0.5320  1.4661
18514TIP3   OH277032   2.292   2.636   3.845 -0.7519 -0.1209  0.6195
18514TIP3    H177033   2.343   2.589   3.911 -1.6265 -0.7689  0.8557
18514TIP3    H277034   2.321   2.600   3.761 -1.1255 -0.7942  0.7762
18515TIP3   OH277035   6.425   1.951   6.345 -0.4237 -0.1917 -0.0934
18515TIP3    H177036   6.390   2.031   6.307  1.8452  0.8983 -0.0498
18515TIP3    H277037   6.400   1.882   6.283 -0.4579  0.9011 -1.3295
18516TIP3   OH277038   1.583   1.715   1.468 -0.9866  0.8680  0.9351
18516TIP3    H177039   1.501   1.681   1.503 -1.0199 -2.1157 -1.5825
18516TIP3    H277040   1.650   1.686   1.530 -1.3314 -1.6512  0.2155
18517TIP3   OH277041   4.703   2.122   4.123  0.6066  0.1207 -0.1975
18517TIP3    H177042   4.773   2.159   4.069  1.7482  1.0637  1.8091
18517TIP3    H277043   4.748   2.068   4.188 -0.6841 -0.7752 -0.0163
18518TIP3   OH277044   2.009   4.679   5.146 -0.1022 -0.3796  0.0177
18518TIP3    H177045   1.992   4.729   5.226  1.6391  0.3176  0.0011
18518TIP3    H277046   1.966   4.730   5.077  0.9102  0.6415  0.1227
18519TIP3   OH277047   6.409   6.261   1.924  0.3463 -0.2085  0.2800
18519TIP3    H177048   6.412   6.267   1.829 -0.7592 -2.2132  0.0668
18519TIP3    H277049   6.354   6.334   1.952  2.3348  1.6534 -0.3815
18520TIP3   OH277050   4.793   0.623   2.542 -0.1362  0.2858  0.2935
18520TIP3    H177051   4.793   0.712   2.577  0.2049  0.4258 -0.0491
18520TIP3    H277052   4.703   0.593   2.551  0.3293 -0.5340  3.4010
18521TIP3   OH277053   2.155   3.749  16.112  0.1844  0.3278 -0.2877
18521TIP3    H177054   2.191   3.680  16.168  0.2260  2.1113  2.0672
18521TIP3    H277055   2.071   3.715  16.083 -0.4415 -0.2521  1.9620
18522TIP3   OH277056   4.910   0.743   0.956  0.0048  0.7517 -0.3009
18522TIP3    H177057   4.974   0.675   0.976  0.2970  0.7410 -1.2264
18522TIP3    H277058   4.878   0.722   0.869 -1.5469  0.5588  0.2893
18523TIP3   OH277059   4.581   3.798  13.793  0.3883 -0.3356 -0.0977
18523TIP3    H177060   4.517   3.729  13.808 -0.3816  0.7086  1.6122
18523TIP3    H277061   4.635   3.798  13.872  1.4574 -0.0710 -0.8021
18524TIP3   OH277062   0.015   4.603  13.188  0.5037  0.3150  0.1979
18524TIP3    H177063   0.052   4.641  13.109 -2.2966 -0.9670 -1.8841
18524TIP3    H277064   0.058   4.518  13.197  3.1893  1.7256  2.0650
18525TIP3   OH277065   5.082   0.612  17.239 -0.4769  0.2825 -0.1063
18525TIP3    H177066   5.042   0.619  17.152  1.5711 -0.1004 -1.1509
18525TIP3    H277067   5.090   0.518  17.254 -0.4900  0.3518  0.3395
18526TIP3   OH277068   5.824   3.912  10.562  0.0509 -0.1102 -0.3594
18526TIP3    H177069   5.731   3.888  10.567  0.2516 -0.8794 -0.1456
18526TIP3    H277070   5.863   3.872  10.640  0.5872  0.0793 -0.5301
18527TIP3   OH277071   1.206   0.219  16.600 -0.1323 -0.9473  0.2319
18527TIP3    H177072   1.251   0.199  16.683 -0.5609 -0.6773  0.5297
18527TIP3    H277073   1.272   0.266  16.548 -0.3875  0.4044  1.0807
18528TIP3   OH277074   3.363   0.390  15.707 -0.5109 -0.5869 -0.0276
18528TIP3    H177075   3.399   0.474  15.679 -0.4505 -0.4723  0.3917
18528TIP3    H277076   3.440   0.333  15.717 -0.3805 -0.1937  1.3763
18529TIP3   OH277077   2.653   4.626   0.251 -0.3530 -0.4329 -0.2026
18529TIP3    H177078   2.649   4.533   0.273  1.7439 -0.4769  0.1821
18529TIP3    H277079   2.703   4.666   0.321  1.3281  0.4522 -1.8067
18530TIP3   OH277080   1.293   5.698  15.736 -0.4676  0.1295  0.7128
18530TIP3    H177081   1.220   5.755  15.710  0.1044  0.7548  0.4572
18530TIP3    H277082   1.254   5.611  15.743 -0.7773  0.0177 -1.6734
18531TIP3   OH277083   1.889   2.913   3.155  0.0834  0.3745  0.2314
18531TIP3    H177084   1.902   3.008   3.154  1.8814  0.1689 -0.7277
18531TIP3    H277085   1.885   2.890   3.248 -0.7430  1.4047  0.4698
18532TIP3   OH277086   1.559   0.883  12.612 -0.2441  0.1124  0.2180
18532TIP3    H177087   1.569   0.872  12.707 -0.1672  2.4600  0.5433
18532TIP3    H277088   1.647   0.900  12.580 -0.5167  1.3694  0.0724
18533TIP3   OH277089   3.929   4.804  11.081 -0.1081 -0.2283 -0.2028
18533TIP3    H177090   3.971   4.744  11.144  1.9401  0.1619 -1.0877
18533TIP3    H277091   3.956   4.769  10.995  0.3233  1.3753 -0.7478
18534TIP3   OH277092   2.635   0.347   3.289 -0.0558  0.3206  0.1727
18534TIP3    H177093   2.551   0.366   3.246 -1.0679 -3.0732  0.3683
18534TIP3    H277094   2.701   0.363   3.221 -1.1046  0.5945 -0.8010
18535TIP3   OH277095   5.621   0.122   5.433  0.2594  0.5077 -0.1543
18535TIP3    H177096   5.544   0.140   5.487  1.5203  1.0874  1.5320
18535TIP3    H277097   5.586   0.081   5.354 -1.7434  0.4552  0.7070
18536TIP3   OH277098   2.731   5.386   0.118 -0.1850  0.3355  0.1512
18536TIP3    H177099   2.661   5.340   0.164  0.6530  0.8357  2.0078
18536TIP3    H277100   2.708   5.379   0.026 -2.0549 -0.5145  0.6492
18537TIP3   OH277101   2.880   3.982  13.325  0.4206  0.0290  0.1764
18537TIP3    H177102   2.921   3.903  13.359  0.7513 -0.2761 -0.8727
18537TIP3    H277103   2.933   4.004  13.248 -0.3022  0.6703 -0.1447
18538TIP3   OH277104   0.395   2.329  15.384  0.1237 -0.3915  0.1792
18538TIP3    H177105   0.444   2.409  15.366  1.8873 -1.0014  1.8946
18538TIP3    H277106   0.325   2.357  15.444  0.3832 -0.0408  0.3177
18539TIP3   OH277107   3.276   4.737  11.719 -0.7757  0.4527 -0.4318
18539TIP3    H177108   3.232   4.729  11.804 -0.5803  0.1474 -0.3606
18539TIP3    H277109   3.355   4.787  11.737 -0.4651 -0.0664 -0.3359
18540TIP3   OH277110   3.378   0.118  14.522 -0.8123  0.1119 -0.0126
18540TIP3    H177111   3.400   0.025  14.532  0.2918  0.4308  0.7035
18540TIP3    H277112   3.459   0.164  14.543 -1.4337  1.2607 -0.0463
18541TIP3   OH277113   0.231   2.744  15.819  0.4374  0.3968 -0.4251
18541TIP3    H177114   0.215   2.675  15.884  0.3594 -1.2824 -2.1602
18541TIP3    H277115   0.204   2.824  15.863 -0.9065 -0.8421  1.1473
18542TIP3   OH277116   2.696   1.290  12.437 -0.6065  0.1677 -0.6365
18542TIP3    H177117   2.673   1.294  12.344  2.2996  0.3553 -1.4516
18542TIP3    H277118   2.667   1.204  12.466 -0.4676 -0.3794 -2.0623
18543TIP3   OH277119   2.876   4.463  12.703 -0.4344 -0.3286 -0.4224
18543TIP3    H177120   2.824   4.519  12.761  0.5313  0.3537 -0.1766
18543TIP3    H277121   2.814   4.432  12.637 -2.0013 -2.5143  1.8855
18544TIP3   OH277122   6.168   6.739  14.059 -0.6214  0.0921  0.0162
18544TIP3    H177123   6.260   6.758  14.041 -0.3859 -1.5223 -0.6658
18544TIP3    H277124   6.144   6.801  14.127  0.9206  0.6745  0.0737
18545TIP3   OH277125   3.759   0.540  16.424  0.4178  0.1437  0.2138
18545TIP3    H177126   3.705   0.551  16.503  2.7502 -1.2543  2.1513
18545TIP3    H277127   3.830   0.603  16.435  1.5707 -1.0801  0.0138
18546TIP3   OH277128   3.395   5.472   0.734 -0.1347 -0.3274  0.3354
18546TIP3    H177129   3.373   5.449   0.824  0.3210  1.8120  1.0321
18546TIP3    H277130   3.490   5.464   0.730 -0.3250 -3.4145 -0.9028
18547TIP3   OH277131   0.922   2.112   6.392  0.0776  0.1170  0.3298
18547TIP3    H177132   1.010   2.088   6.422  0.2734  1.3458  0.7770
18547TIP3    H277133   0.937   2.168   6.316 -0.2993  0.8169  0.7644
18548TIP3   OH277134   2.997   5.490   4.665  0.1841  0.0467  0.2752
18548TIP3    H177135   3.052   5.449   4.732 -1.7204 -2.3231  0.5133
18548TIP3    H277136   3.032   5.579   4.656  1.2813  0.0470  3.5015
18549TIP3   OH277137   6.412   0.233  11.571  0.3260  0.3035 -0.1714
18549TIP3    H177138   6.494   0.283  11.568  1.1183 -0.9609 -0.1189
18549TIP3    H277139   6.425   0.170  11.641 -0.9470  0.4778  0.2428
18550TIP3   OH277140   5.024   6.222  14.506  0.1926  0.5651 -0.2065
18550TIP3    H177141   5.002   6.291  14.569 -0.1070  1.9794 -1.8187
18550TIP3    H277142   5.095   6.174  14.549 -1.1689  0.3289  1.9896
18551TIP3   OH277143   0.761   4.796  13.893 -0.3620  0.2795 -0.1386
18551TIP3    H177144   0.753   4.724  13.831 -0.5648 -0.0733  0.2957
18551TIP3    H277145   0.743   4.757  13.979 -0.7307  0.8988  0.0718
18552TIP3   OH277146   3.663   0.178   0.506 -0.0109  0.0992 -0.0944
18552TIP3    H177147   3.627   0.256   0.549  1.0576  0.5394  0.0545
18552TIP3    H277148   3.655   0.196   0.413  1.9225  1.2781 -0.1002
18553TIP3   OH277149   5.352   3.391   2.074 -0.2467  0.3188 -0.3850
18553TIP3    H177150   5.271   3.443   2.074 -0.0376  0.6594 -0.7934
18553TIP3    H277151   5.331   3.313   2.023 -0.3036  0.4296 -0.5313
18554TIP3   OH277152   4.099   1.670  17.219  0.2796 -0.0867  0.3160
18554TIP3    H177153   4.155   1.649  17.294  0.2711 -1.2668  0.0059
18554TIP3    H277154   4.131   1.614  17.149 -2.6405 -2.4585  0.7154
18555TIP3   OH277155   5.689   5.739   0.800  0.0951 -0.7668 -0.6304
18555TIP3    H177156   5.759   5.677   0.820  0.0448 -0.2809  1.2293
18555TIP3    H277157   5.719   5.822   0.836 -0.6440 -0.1286 -1.4603
18556TIP3   OH277158   6.264   1.306  15.187  0.2774 -0.7556 -0.7667
18556TIP3    H177159   6.353   1.300  15.222 -0.1052 -1.7962  0.0686
18556TIP3    H277160   6.265   1.254  15.107  0.0480 -2.1318  0.0825
18557TIP3   OH277161   2.043   1.391   5.907  0.3312 -0.2663  0.0024
18557TIP3    H177162   2.090   1.351   5.834  1.6228 -0.1830  0.7592
18557TIP3    H277163   2.099   1.376   5.983  0.0317  1.4569  0.6107
18558TIP3   OH277164   1.850   1.866  12.288  0.0108  0.5164  0.5498
18558TIP3    H177165   1.847   1.927  12.214  0.6411  2.3120  1.9300
18558TIP3    H277166   1.943   1.842  12.296 -0.2454 -0.7838 -0.0587
18559TIP3   OH277167   6.374   1.018  14.945  0.6896  0.2967  0.1829
18559TIP3    H177168   6.461   1.028  14.985  0.2496  0.1676  1.2062
18559TIP3    H277169   6.385   0.949  14.880  1.1917 -0.2433  0.8297
18560TIP3   OH277170   0.547   4.654  15.340  0.7433  0.0756  0.4756
18560TIP3    H177171   0.630   4.694  15.365  1.1684 -0.2516 -0.3771
18560TIP3    H277172   0.481   4.722  15.358  1.4632  1.2702 -1.1051
18561TIP3   OH277173   3.751   4.067  11.777  0.0078  0.6552 -0.2728
18561TIP3    H177174   3.788   3.991  11.732 -0.2611 -0.9202  1.9859
18561TIP3    H277175   3.826   4.114  11.813  0.1014 -1.6599  2.9531
18562TIP3   OH277176   5.749   4.888  14.413 -0.3065 -0.0906  0.3349
18562TIP3    H177177   5.771   4.842  14.332 -0.4529 -0.9724  0.7757
18562TIP3    H277178   5.813   4.958  14.420 -0.7693  0.4737 -0.9262
18563TIP3   OH277179   3.104   6.243   4.055  0.2528  0.2352 -0.2073
18563TIP3    H177180   3.036   6.193   4.099  0.2520 -1.6721 -2.1907
18563TIP3    H277181   3.185   6.218   4.099  0.0690 -0.3470 -0.1860
18564TIP3   OH277182   0.744   0.627   5.697 -0.5835 -0.3615  0.0801
18564TIP3    H177183   0.830   0.660   5.722 -1.2983 -0.1306  2.5644
18564TIP3    H277184   0.762   0.550   5.643  1.1973 -0.6397  1.0022
18565TIP3   OH277185   4.921   1.295  11.769  0.1705  0.5015  0.2004
18565TIP3    H177186   4.860   1.356  11.726  1.3816  0.4588 -1.6804
18565TIP3    H277187   4.864   1.233  11.815 -1.1659  1.3296 -0.2875
18566TIP3   OH277188   0.520   6.620   5.142 -0.4315  0.4569 -0.1335
18566TIP3    H177189   0.494   6.695   5.089 -2.0899  0.4462  0.6023
18566TIP3    H277190   0.445   6.561   5.139 -1.0903  0.9203  3.0154
18567TIP3   OH277191   5.801   4.377   2.184 -0.0717  0.1932  0.2908
18567TIP3    H177192   5.759   4.306   2.137  0.0730  0.9725 -1.0745
18567TIP3    H277193   5.890   4.380   2.149 -0.7075  2.4275 -1.3505
18568TIP3   OH277194   3.947   0.804  15.877  0.4495  0.4513  0.2544
18568TIP3    H177195   3.919   0.816  15.787  0.3268  0.0404  0.2323
18568TIP3    H277196   3.972   0.891  15.907  2.0733  0.3516 -0.6992
18569TIP3   OH277197   1.125   4.143  16.479  0.2007  0.2227 -0.5204
18569TIP3    H177198   1.156   4.231  16.461  1.9000 -0.3804 -0.8096
18569TIP3    H277199   1.198   4.102  16.527  0.2666 -1.6040 -2.0786
18570TIP3   OH277200   2.303   6.495   1.536 -0.0151 -0.3490 -0.1750
18570TIP3    H177201   2.330   6.436   1.606  1.1059  0.5415  0.1812
18570TIP3    H277202   2.213   6.470   1.516 -0.7158 -0.0371  2.2317
18571TIP3   OH277203   3.547   3.901   2.681 -0.0555 -0.8693 -0.0367
18571TIP3    H177204   3.625   3.922   2.629 -0.1870 -0.4377 -0.0675
18571TIP3    H277205   3.474   3.932   2.627 -0.1736 -0.1122  0.5512
18572TIP3   OH277206   3.087   2.751  12.176  0.1901  0.0861 -0.3644
18572TIP3    H177207   3.158   2.801  12.216 -0.7314 -0.0082  1.4950
18572TIP3    H277208   3.026   2.817  12.143 -0.4476  0.2317  1.0299
18573TIP3   OH277209   3.739   0.630  14.841  0.0051 -0.3112  0.3744
18573TIP3    H177210   3.748   0.707  14.784  0.9736 -0.7586 -0.1057
18573TIP3    H277211   3.786   0.654  14.921 -1.5134  0.3892  1.1081
18574TIP3   OH277212   4.109   5.973   3.394 -0.0632  0.7401  0.2704
18574TIP3    H177213   4.090   6.009   3.481  1.6942 -2.0365  1.9481
18574TIP3    H277214   4.162   6.041   3.352  0.7503  1.3773  2.1754
18575TIP3   OH277215   3.309   2.450   3.147  0.3706  0.5397  0.0635
18575TIP3    H177216   3.257   2.388   3.198  0.2548 -0.3747 -1.1083
18575TIP3    H277217   3.305   2.416   3.057 -0.9865  3.0724 -0.9307
18576TIP3   OH277218   0.549   4.027   1.871 -0.1807  0.3494  0.3647
18576TIP3    H177219   0.509   3.950   1.831 -0.5392  1.0011 -0.5662
18576TIP3    H277220   0.642   4.019   1.851 -0.2539  0.2921  0.0403
18577TIP3   OH277221   5.243   1.525   5.498 -0.1682 -0.2183 -0.2167
18577TIP3    H177222   5.259   1.487   5.585  0.3354  0.7101  0.1104
18577TIP3    H277223   5.316   1.495   5.445  1.8621  2.5089  0.7877
18578TIP3   OH277224   0.046   4.854   5.099 -0.3484  0.2254 -0.4525
18578TIP3    H177225  -0.045   4.873   5.124  0.5423  3.0022  1.1179
18578TIP3    H277226   0.060   4.765   5.131 -1.6773  0.8165  2.1527
18579TIP3   OH277227   6.158   3.608  16.086  0.0268  0.4465 -0.0006
18579TIP3    H177228   6.142   3.537  16.148  1.0252  0.3143  0.1273
18579TIP3    H277229   6.116   3.579  16.005 -0.1282 -0.0014  0.2371
18580TIP3   OH277230   5.494   3.085   1.166 -0.5178  0.4275 -0.0436
18580TIP3    H177231   5.427   3.106   1.101 -1.2256 -3.5304 -0.8668
18580TIP3    H277232   5.453   3.021   1.223  1.4023  0.7641  1.8422
18581TIP3   OH277233   1.130   2.313  13.528  0.3019  0.7141 -0.5465
18581TIP3    H177234   1.131   2.353  13.441 -0.5828 -0.1538 -0.9932
18581TIP3    H277235   1.036   2.300  13.547  0.4802  0.9516  0.5660
18582TIP3   OH277236   6.092   3.089   1.535  0.2016 -0.1341  0.1823
18582TIP3    H177237   6.051   3.154   1.592  0.9937  0.3489  0.2213
18582TIP3    H277238   6.172   3.131   1.505 -1.0486  0.3674 -2.7780
18583TIP3   OH277239   4.674   2.241  16.334 -0.2905  0.1387  0.2020
18583TIP3    H177240   4.622   2.174  16.289  0.0115 -0.3744  0.6018
18583TIP3    H277241   4.743   2.192  16.378  2.5035  1.0060 -2.7954
18584TIP3   OH277242   4.319   0.308  12.143 -0.0635 -0.2682  0.5743
18584TIP3    H177243   4.249   0.255  12.183 -1.9148  1.9709  0.5133
18584TIP3    H277244   4.276   0.389  12.117  2.5717  1.1864  0.3846
18585TIP3   OH277245   5.071   2.042  14.657  0.1785  0.2928  0.7367
18585TIP3    H177246   5.165   2.055  14.653  0.0397  1.1097 -1.2566
18585TIP3    H277247   5.057   1.954  14.622  0.1004  0.9477 -0.9549
18586TIP3   OH277248   0.040   5.730   5.446  0.1259  0.0842 -0.0658
18586TIP3    H177249   0.088   5.685   5.377  0.5482 -0.2258  0.4292
18586TIP3    H277250  -0.050   5.732   5.415 -0.0075 -1.5753  0.1389
18587TIP3   OH277251   2.281   2.621  10.900  0.3680  0.4582  0.1155
18587TIP3    H177252   2.257   2.657  10.815 -1.8150  1.5393  1.1196
18587TIP3    H277253   2.269   2.527  10.890  0.0211  0.5845 -0.7518
18588TIP3   OH277254   4.846   3.863  15.974  0.2479 -0.1997 -0.2523
18588TIP3    H177255   4.819   3.877  15.884 -2.6046  0.2456  0.5885
18588TIP3    H277256   4.921   3.922  15.986 -1.5762  2.5144 -1.3433
18589TIP3   OH277257   2.584   3.108   0.205 -0.3524 -0.0782 -0.1393
18589TIP3    H177258   2.489   3.115   0.214 -0.3695  1.6778 -1.2266
18589TIP3    H277259   2.618   3.149   0.285 -0.5110 -0.0667 -0.0771
18590TIP3   OH277260   1.202   0.439  16.870 -0.1446  0.0218  0.1185
18590TIP3    H177261   1.296   0.426  16.876 -0.0310  0.7214 -0.1594
18590TIP3    H277262   1.178   0.484  16.950  0.4847  4.0177 -1.7068
18591TIP3   OH277263   0.871   4.016   0.291  0.4864 -0.1799 -0.2575
18591TIP3    H177264   0.800   4.057   0.342  0.3454 -0.0319 -0.5705
18591TIP3    H277265   0.866   3.924   0.315  1.2269  0.0714  0.9574
18592TIP3   OH277266   3.228   4.132  11.758  0.1847 -0.1711  0.1184
18592TIP3    H177267   3.295   4.145  11.825  0.6362 -1.7732  0.0140
18592TIP3    H277268   3.257   4.054  11.710 -0.4892  0.5186 -1.5034
18593TIP3   OH277269   5.159   1.598  13.886  0.1581 -0.0379 -0.1983
18593TIP3    H177270   5.231   1.637  13.936 -0.2819 -1.0072  1.2494
18593TIP3    H277271   5.201   1.529  13.834  0.6413  1.0685 -1.3417
18594TIP3   OH277272   3.662   6.209   3.445 -0.3823 -0.0650  0.2780
18594TIP3    H177273   3.704   6.141   3.498  0.7434  0.5706  0.2303
18594TIP3    H277274   3.617   6.264   3.509  1.4243  1.0189  0.6898
18595TIP3   OH277275   4.973   2.215  16.040 -0.2657 -0.1574 -0.3573
18595TIP3    H177276   5.052   2.244  15.994  1.0185 -1.1943  1.1106
18595TIP3    H277277   4.918   2.178  15.971 -0.5532  2.6284 -1.7778
18596TIP3   OH277278   5.714   1.173   1.761  0.0001 -1.2659  0.3349
18596TIP3    H177279   5.791   1.181   1.819  0.2326  0.2648 -0.1391
18596TIP3    H277280   5.659   1.248   1.785 -0.7600 -1.6511 -0.1922
18597TIP3   OH277281   6.693   4.395   0.560  0.4431 -0.3432 -0.5039
18597TIP3    H177282   6.651   4.417   0.643 -0.3397  0.4009 -1.0783
18597TIP3    H277283   6.725   4.306   0.573 -0.8861 -0.7636  0.1496
18598TIP3   OH277284   5.706   2.578   0.927 -0.2368  0.6619 -0.2352
18598TIP3    H177285   5.647   2.521   0.879 -1.0602  1.6976 -0.4847
18598TIP3    H277286   5.649   2.644   0.967  0.6524  1.1267  0.3097
18599TIP3   OH277287   4.961   4.214   4.105  0.2879  0.2473  0.2901
18599TIP3    H177288   4.901   4.141   4.093 -4.1209  3.3024  1.1626
18599TIP3    H277289   4.969   4.252   4.017 -0.6855  0.8495  0.4366
18600TIP3   OH277290   3.470   2.545   4.102 -0.5887 -0.2089  0.1139
18600TIP3    H177291   3.516   2.576   4.024 -0.5846 -1.1935 -0.2846
18600TIP3    H277292   3.443   2.625   4.148  0.4348  0.3754 -0.2841
18601TIP3   OH277293   3.607   4.378  15.408 -0.2700  0.3539  0.2498
18601TIP3    H177294   3.549   4.371  15.332  1.4610 -0.9861 -1.0315
18601TIP3    H277295   3.572   4.314  15.470  0.7398 -1.7591 -1.2242
18602TIP3   OH277296   0.722   3.064   3.056  0.0014  0.2812 -0.1677
18602TIP3    H177297   0.689   3.064   2.966 -0.7380  0.2030  0.1017
18602TIP3    H277298   0.745   2.972   3.072 -0.6945  0.1366  0.0216
18603TIP3   OH277299   3.334   1.759   0.279  0.2830 -0.2136 -0.1778
18603TIP3    H177300   3.264   1.809   0.237 -0.6267 -1.0345  0.3200
18603TIP3    H277301   3.299   1.736   0.365  1.4932  0.0610  0.4098
18604TIP3   OH277302   3.829   2.871  17.214 -0.3838 -0.0273  0.6115
18604TIP3    H177303   3.910   2.820  17.213  0.2462  0.9571  0.2892
18604TIP3    H277304   3.815   2.893  17.307  0.9219  1.6291  0.4619
18605TIP3   OH277305   6.527   5.297  11.315 -0.2727 -0.0611  0.4695
18605TIP3    H177306   6.481   5.373  11.349 -2.5693 -1.8681  1.7177
18605TIP3    H277307   6.482   5.277  11.233 -0.5470 -0.8169  0.7987
18606TIP3   OH277308   4.858   5.350   1.146 -0.6876 -0.2262 -0.1176
18606TIP3    H177309   4.783   5.341   1.088 -0.8639  1.0038 -0.1092
18606TIP3    H277310   4.914   5.416   1.104 -0.3632 -0.0050  0.6422
18607TIP3   OH277311   2.990   1.495   2.875  0.1387  0.1249  0.0923
18607TIP3    H177312   3.014   1.581   2.841  2.4572 -0.8798 -1.0216
18607TIP3    H277313   2.937   1.513   2.953  0.8134  2.5429  0.0440
18608TIP3   OH277314   4.821   2.018   2.269 -0.2487 -0.1013  0.0383
18608TIP3    H177315   4.881   2.055   2.204  0.2080 -3.6957 -1.7965
18608TIP3    H277316   4.734   2.049   2.242  0.2069  0.6663 -0.5939
18609TIP3   OH277317   2.841   4.853  15.084 -0.2725 -0.4035  0.4217
18609TIP3    H177318   2.756   4.820  15.113 -1.6316  3.1637  0.9372
18609TIP3    H277319   2.868   4.913  15.153  3.5499 -2.5100  1.0590
18610TIP3   OH277320   1.468   5.532   1.268  0.2340 -0.1628  0.0743
18610TIP3    H177321   1.466   5.457   1.208 -0.6799  1.0049 -1.4191
18610TIP3    H277322   1.387   5.580   1.250 -0.0678  0.2605  2.2632
18611TIP3   OH277323   6.755   5.381   1.506 -0.1623 -0.8993 -0.6469
18611TIP3    H177324   6.694   5.437   1.553  1.2652  1.4022 -1.3457
18611TIP3    H277325   6.709   5.356   1.426 -1.7712 -2.9804  0.8349
18612TIP3   OH277326   4.045   3.740  10.760 -0.1687 -0.4411 -0.1146
18612TIP3    H177327   3.980   3.804  10.730 -0.9156  0.1857  2.5188
18612TIP3    H277328   4.063   3.686  10.683 -0.0150  2.4720 -2.3168
18613TIP3   OH277329   4.707   1.995  16.004 -0.3184 -0.7985 -0.9152
18613TIP3    H177330   4.793   2.029  16.029 -0.5340 -1.2057  0.4474
18613TIP3    H277331   4.698   1.913  16.053 -1.8198 -0.3613 -0.4023
18614TIP3   OH277332   1.376   5.663   5.357  0.0645  0.1792  0.2955
18614TIP3    H177333   1.362   5.753   5.327 -1.9196 -0.4212 -0.8121
18614TIP3    H277334   1.426   5.671   5.438 -1.2905  2.3833  0.9952
18615TIP3   OH277335   6.453   5.458   2.350  0.2516  0.3215 -0.1288
18615TIP3    H177336   6.365   5.421   2.361 -0.1245  0.9300 -1.0173
18615TIP3    H277337   6.485   5.467   2.440  1.2366 -4.0529  0.1979
18616TIP3   OH277338   2.892   4.583  11.958 -0.2484  0.7629 -0.4599
18616TIP3    H177339   2.988   4.582  11.958 -0.2076 -0.7526  1.5629
18616TIP3    H277340   2.868   4.577  11.866  1.6000  0.5822 -0.9624
18617TIP3   OH277341   6.362   6.593  15.623  0.1248 -0.0102 -0.5192
18617TIP3    H177342   6.413   6.603  15.542  1.3797  0.5533  0.3021
18617TIP3    H277343   6.365   6.680  15.663 -0.8576 -0.1773 -0.0735
18618TIP3   OH277344   6.165   6.459  12.711  0.1088 -0.2251  0.2661
18618TIP3    H177345   6.092   6.403  12.738  0.7030 -0.7191  0.8655
18618TIP3    H277346   6.124   6.542  12.688 -0.5702 -0.2218  1.4113
18619TIP3   OH277347   1.901   1.887  16.345 -0.3608 -0.1562 -0.2950
18619TIP3    H177348   1.860   1.804  16.370 -0.9663  0.2276  0.0304
18619TIP3    H277349   1.837   1.927  16.286  0.1306 -0.1148 -0.8139
18620TIP3   OH277350   2.643   0.944  16.032 -0.3243 -0.5268 -0.5067
18620TIP3    H177351   2.673   0.857  16.005 -0.6244 -0.4445 -1.1263
18620TIP3    H277352   2.609   0.984  15.951  2.2306  1.1904 -0.8407
18621TIP3   OH277353   3.923   5.445  16.413  0.1441  0.0858 -0.7770
18621TIP3    H177354   3.993   5.464  16.477 -0.5729 -0.3423  0.1547
18621TIP3    H277355   3.943   5.357  16.382 -0.4709 -0.3954  0.1611
18622TIP3   OH277356   1.351   0.744  15.061 -0.1973  0.3467 -0.2779
18622TIP3    H177357   1.294   0.749  14.984 -1.7192 -1.2678  0.6612
18622TIP3    H277358   1.396   0.660  15.051 -0.4223  0.1144  0.5831
18623TIP3   OH277359   3.442   0.252   4.990  0.3852  0.1426 -0.3916
18623TIP3    H177360   3.379   0.281   5.055  0.6399  2.1927 -1.0002
18623TIP3    H277361   3.401   0.175   4.950 -2.1144  1.7814 -1.2357
18624TIP3   OH277362   4.668   5.987   3.471  0.1750 -0.2404 -0.5140
18624TIP3    H177363   4.594   6.047   3.467 -0.2442 -0.6168  0.9510
18624TIP3    H277364   4.630   5.900   3.460  0.2445 -0.5003  0.9584
18625TIP3   OH277365   4.974   3.492   5.371 -0.2821  0.3534 -0.8431
18625TIP3    H177366   4.981   3.410   5.420  0.3463  1.1046  0.3647
18625TIP3    H277367   4.944   3.465   5.284  0.7350 -1.2467 -0.7400
18626TIP3   OH277368   2.977   5.162   5.340  0.2317  0.1130  0.4048
18626TIP3    H177369   3.062   5.200   5.362  0.9971 -0.7460 -0.9398
18626TIP3    H277370   2.966   5.179   5.247 -0.2724 -1.2858  0.1809
18627TIP3   OH277371   1.668   1.582   6.141  0.2125  0.5670  0.5299
18627TIP3    H177372   1.763   1.594   6.138  0.0390  3.4949  2.6686
18627TIP3    H277373   1.656   1.489   6.164  2.4233 -0.2899 -1.4101
18628TIP3   OH277374   5.572   0.720  16.246 -0.7512  0.5441  0.2612
18628TIP3    H177375   5.531   0.708  16.160 -0.5619  1.7232 -0.0045
18628TIP3    H277376   5.651   0.666  16.242 -1.2997 -0.2718  0.1047
18629TIP3   OH277377   4.197   3.175   2.283  0.2353 -0.1830 -0.2649
18629TIP3    H177378   4.219   3.260   2.245 -1.3274  0.9318  1.1611
18629TIP3    H277379   4.109   3.188   2.320 -0.9342 -3.0186 -1.7519
18630TIP3   OH277380   4.607   1.975  11.365  0.3552 -0.7343  0.4130
18630TIP3    H177381   4.632   1.931  11.447 -1.7326 -1.2403  0.8488
18630TIP3    H277382   4.541   1.917  11.326 -0.2171  0.5262 -0.5661
18631TIP3   OH277383   0.460   3.674   4.651  0.0179  0.1889  0.0839
18631TIP3    H177384   0.551   3.644   4.645  0.0901  0.6216 -1.6922
18631TIP3    H277385   0.461   3.740   4.720  1.4442  1.3545 -0.9655
18632TIP3   OH277386   0.954   2.401   5.505  0.2699  0.7397  0.3021
18632TIP3    H177387   1.006   2.327   5.475 -0.1720  0.0010  1.2850
18632TIP3    H277388   0.978   2.412   5.597  2.6308  3.8342 -0.5328
18633TIP3   OH277389   5.463   2.645  15.285 -0.6203 -0.4373 -0.0998
18633TIP3    H177390   5.424   2.721  15.241 -0.2591  0.7548  1.5030
18633TIP3    H277391   5.391   2.583  15.295 -1.7227  0.9736  1.2049
18634TIP3   OH277392   0.235   6.695   5.675  0.7020 -0.1894 -0.7849
18634TIP3    H177393   0.146   6.726   5.692  0.7367  0.0160 -0.9692
18634TIP3    H277394   0.291   6.764   5.712  0.8029 -0.9620  0.5740
18635TIP3   OH277395   1.539   3.050  12.791 -0.0212  0.1299 -0.4250
18635TIP3    H177396   1.607   3.042  12.857 -0.7324 -0.9727  0.1948
18635TIP3    H277397   1.493   2.966  12.792 -0.2912  0.2134 -2.0646
18636TIP3   OH277398   6.434   4.620  16.155 -0.2590 -0.4499 -0.1517
18636TIP3    H177399   6.463   4.613  16.246  1.3231  0.6958 -0.5249
18636TIP3    H277400   6.384   4.539  16.139 -0.8356 -0.5284  1.8016
18637TIP3   OH277401   6.785   3.047  13.236 -0.1402 -0.1664 -0.1297
18637TIP3    H177402   6.791   2.993  13.157  1.1815  0.8350 -0.7734
18637TIP3    H277403   6.777   3.137  13.202  1.4960  0.3825  0.8312
18638TIP3   OH277404   4.517   0.819  16.729  0.2283 -0.3678  0.5697
18638TIP3    H177405   4.578   0.890  16.752  0.9619 -0.6178 -0.5073
18638TIP3    H277406   4.494   0.779  16.812  0.8999  0.2561  1.0703
18639TIP3   OH277407   5.641   1.319   3.089  0.5912 -0.1099 -0.1084
18639TIP3    H177408   5.648   1.414   3.075 -0.4359  0.2202  1.2715
18639TIP3    H277409   5.646   1.309   3.184 -3.1125 -0.9860  0.1618
18640TIP3   OH277410   6.635   1.075  15.026  0.5372  0.0091 -0.2621
18640TIP3    H177411   6.711   1.099  14.974  1.9711 -1.2169  1.1807
18640TIP3    H277412   6.668   1.065  15.115 -1.2445 -0.8170  0.3637
18641TIP3   OH277413   3.530   0.885  11.392 -0.7296 -0.0017  0.4430
18641TIP3    H177414   3.570   0.971  11.404 -3.0617  1.1126  0.8204
18641TIP3    H277415   3.492   0.888  11.304 -0.9971 -0.5613  0.5349
18642TIP3   OH277416   3.035   1.370  14.286  0.3175 -0.5398  0.3916
18642TIP3    H177417   2.991   1.301  14.237 -1.5401  0.0835  1.0833
18642TIP3    H277418   3.064   1.329  14.367  2.0244 -1.2022 -0.5035
18643TIP3   OH277419   2.285   4.867  10.863  0.2035 -0.1603 -0.4922
18643TIP3    H177420   2.195   4.863  10.896  0.2480 -1.2664 -0.4716
18643TIP3    H277421   2.278   4.916  10.781 -0.7119 -1.7128 -1.3759
18644TIP3   OH277422   5.329   6.299   5.677  0.1787  0.2513 -0.1436
18644TIP3    H177423   5.419   6.288   5.709  0.8048  2.1661 -1.1010
18644TIP3    H277424   5.340   6.319   5.584 -1.3583 -1.0301 -0.6479
18645TIP3   OH277425   4.501   1.403  16.830  0.4992  0.7926 -0.0458
18645TIP3    H177426   4.550   1.400  16.912  0.3613  0.9344  0.0423
18645TIP3    H277427   4.474   1.494  16.821  1.2599  0.9536 -0.6924
18646TIP3   OH277428   6.148   0.397  14.199 -0.2382 -0.1846  0.6329
18646TIP3    H177429   6.195   0.316  14.182  1.2565 -0.0762  3.5963
18646TIP3    H277430   6.065   0.368  14.238 -1.0663 -0.2990 -1.1492
18647TIP3   OH277431   0.224   2.082  14.316 -0.0841  0.2130  0.1909
18647TIP3    H177432   0.170   2.128  14.379 -0.0100  0.4126  0.1084
18647TIP3    H277433   0.310   2.074  14.358 -0.4409 -0.9944  0.7415
18648TIP3   OH277434   3.025   4.865   5.240  0.1458  0.0602 -0.2283
18648TIP3    H177435   3.004   4.773   5.223 -0.5844  0.5681 -2.3931
18648TIP3    H277436   2.941   4.905   5.262  0.4387  0.2731  0.5505
18649TIP3   OH277437   5.863   4.053   4.382  0.6241 -0.5530  0.3242
18649TIP3    H177438   5.803   4.125   4.401 -1.4571 -1.9473 -0.5958
18649TIP3    H277439   5.806   3.980   4.357  2.7240 -1.5183 -2.1161
18650TIP3   OH277440   2.772   4.744   3.198 -0.3698 -0.1407  0.1571
18650TIP3    H177441   2.843   4.798   3.164  0.4317 -0.6045  1.0438
18650TIP3    H277442   2.767   4.767   3.291 -2.0051  0.5598 -0.0577
18651TIP3   OH277443   3.509   2.096  12.893 -0.0302 -0.0834  0.0724
18651TIP3    H177444   3.507   2.001  12.881  0.4272 -0.0139 -0.6104
18651TIP3    H277445   3.598   2.115  12.920 -0.3327  0.0744  0.9864
18652TIP3   OH277446   1.521   4.276  10.700  0.1086 -0.0158  0.2731
18652TIP3    H177447   1.450   4.226  10.661 -0.0731  0.7929 -0.4775
18652TIP3    H277448   1.594   4.214  10.707  0.3976 -0.0548 -2.0797
18653TIP3   OH277449   1.679   2.591  17.112  0.4564  0.0252  0.2136
18653TIP3    H177450   1.653   2.637  17.192  0.7999  0.5975  0.0006
18653TIP3    H277451   1.735   2.653  17.065  0.4827 -0.4070 -0.3409
18654TIP3   OH277452   0.346   2.389   2.149  0.1671  0.0922  0.2681
18654TIP3    H177453   0.351   2.295   2.164 -1.4141 -0.0495  0.1650
18654TIP3    H277454   0.393   2.428   2.222  1.3792 -0.7688 -0.0124
18655TIP3   OH277455   0.284   6.514  12.108  0.2632 -0.6440  0.0639
18655TIP3    H177456   0.249   6.494  12.021 -0.4891 -0.1806  0.2444
18655TIP3    H277457   0.354   6.577  12.092 -0.9917  0.7935 -0.1245
18656TIP3   OH277458   1.344   3.925  15.640 -0.0748 -1.0861  0.0261
18656TIP3    H177459   1.433   3.892  15.652  0.0689 -0.7353 -0.0914
18656TIP3    H277460   1.351   4.020  15.645 -0.4067 -1.0432 -0.2119
18657TIP3   OH277461   1.637   2.103  16.756 -0.0687  1.0309  0.1710
18657TIP3    H177462   1.683   2.088  16.674  0.0778  0.2875  0.3863
18657TIP3    H277463   1.704   2.098  16.823 -0.3842  0.3856  0.4470
18658TIP3   OH277464   2.324   3.496  15.222  0.4380 -0.7484 -0.5488
18658TIP3    H177465   2.349   3.519  15.311  1.8947 -1.3510 -0.7807
18658TIP3    H277466   2.252   3.434  15.233  0.8366 -1.0861  0.2310
18659TIP3   OH277467   0.182   3.599  13.000 -0.0360 -0.2084 -0.0268
18659TIP3    H177468   0.127   3.536  12.954  1.3325 -1.1754 -0.4216
18659TIP3    H277469   0.196   3.670  12.937  1.6741 -1.4357 -1.0976
18660TIP3   OH277470   4.110   2.855   5.624  0.4390 -0.4817  0.2426
18660TIP3    H177471   4.198   2.838   5.657  1.1888 -0.7599 -1.7522
18660TIP3    H277472   4.106   2.808   5.541 -0.8951  1.1237 -0.6594
18661TIP3   OH277473   2.223   4.947   5.937 -0.2194  0.4292  0.0845
18661TIP3    H177474   2.174   4.895   6.001  2.4881 -1.4905  0.7996
18661TIP3    H277475   2.308   4.961   5.978  0.5493  1.9419 -1.8499
18662TIP3   OH277476   0.871   1.637  14.190  0.1097  0.1096  0.6030
18662TIP3    H177477   0.906   1.573  14.127 -0.0539 -0.3755  0.9942
18662TIP3    H277478   0.814   1.694  14.139 -0.0668 -0.3176  0.3225
18663TIP3   OH277479   4.277   1.087   6.342  0.9311  0.8152 -0.2466
18663TIP3    H177480   4.255   0.994   6.333  2.6957 -0.0019  2.6919
18663TIP3    H277481   4.203   1.132   6.302 -0.2919 -1.8124 -1.2196
18664TIP3   OH277482   5.158   2.293   4.758  0.1333 -0.3666 -0.6226
18664TIP3    H177483   5.155   2.357   4.686 -3.0957  0.8428  0.4050
18664TIP3    H277484   5.086   2.232   4.739 -0.3207 -0.4322  1.1693
18665TIP3   OH277485   0.012   5.245  16.181  0.3915 -0.4556  0.5820
18665TIP3    H177486  -0.022   5.333  16.202  1.5048  0.4988 -1.3994
18665TIP3    H277487  -0.020   5.228  16.093  0.8178 -1.7407  0.6636
18666TIP3   OH277488   0.030   4.410   2.282  0.0728  0.1034  0.4235
18666TIP3    H177489  -0.063   4.434   2.285 -0.2539 -0.9094 -0.6748
18666TIP3    H277490   0.030   4.319   2.254  1.4424  0.3874 -0.6073
18667TIP3   OH277491   3.198   4.977  17.033 -0.3456 -0.3747 -0.5944
18667TIP3    H177492   3.199   5.005  16.942  4.5345 -1.3298 -1.1026
18667TIP3    H277493   3.162   4.888  17.030 -0.8027 -0.1673 -1.5044
18668TIP3   OH277494   5.321   6.324   3.954  0.5180 -0.1347  0.0531
18668TIP3    H177495   5.391   6.311   3.890 -0.3324 -1.7723 -0.6000
18668TIP3    H277496   5.292   6.235   3.975 -2.3249  0.5159 -0.7790
18669TIP3   OH277497   5.076   0.486  13.001  0.2740 -0.0921 -0.3288
18669TIP3    H177498   5.141   0.510  13.067 -1.0507  2.3287  0.1947
18669TIP3    H277499   5.091   0.548  12.929 -1.5811  0.6744 -0.0928
18670TIP3   OH277500   4.919   1.157  14.669 -0.6254  0.6345 -0.0757
18670TIP3    H177501   4.873   1.221  14.616  0.4403  0.0091 -1.8286
18670TIP3    H277502   4.894   1.072  14.633 -1.2554  0.0649  1.5786
18671TIP3   OH277503   4.148   3.431   2.009 -0.2081  0.7491  0.2540
18671TIP3    H177504   4.220   3.370   2.027 -0.3542  0.7934  1.0249
18671TIP3    H277505   4.168   3.467   1.922 -0.2051 -0.5204 -0.2935
18672TIP3   OH277506   4.708   0.019   6.141 -0.4673 -0.0141 -0.6438
18672TIP3    H177507   4.694   0.099   6.091  0.1716 -0.3019 -1.2942
18672TIP3    H277508   4.803   0.009   6.145 -0.5063 -0.0978  0.4795
18673TIP3   OH277509   3.113   5.791   0.610  0.1919  0.8900 -0.0157
18673TIP3    H177510   3.122   5.729   0.538 -0.2766 -0.0342  0.6926
18673TIP3    H277511   3.029   5.835   0.594  0.1681  0.8052 -0.1209
18674TIP3   OH277512   4.335   4.832  11.188 -0.1249 -0.3422 -0.1035
18674TIP3    H177513   4.279   4.906  11.163 -1.0134 -1.0358 -0.2286
18674TIP3    H277514   4.369   4.799  11.105  2.4196  1.4873  0.0725
18675TIP3   OH277515   6.045   3.050  15.961  0.6419 -0.1071 -0.0786
18675TIP3    H177516   5.952   3.029  15.955  1.1358 -2.3341 -0.7843
18675TIP3    H277517   6.057   3.122  15.899 -0.4542 -0.3635 -0.6181
18676TIP3   OH277518   1.742   5.982   4.040  0.4474 -0.2055 -0.2132
18676TIP3    H177519   1.706   6.070   4.047  0.6273 -0.2146  1.0293
18676TIP3    H277520   1.833   5.991   4.069  0.3493 -0.8682  0.3203
18677TIP3   OH277521   5.646   3.208  15.294 -0.3853  0.5282 -0.4790
18677TIP3    H177522   5.706   3.210  15.369 -0.4588 -0.3121 -0.3901
18677TIP3    H277523   5.703   3.218  15.218 -0.2416  0.7428 -0.3448
18678TIP3   OH277524   4.001   6.543   0.883  0.1944 -0.0329 -0.1884
18678TIP3    H177525   3.932   6.582   0.937  2.3129  2.8658  0.6949
18678TIP3    H277526   4.070   6.521   0.945  0.9269 -0.8808 -1.2677
18679TIP3   OH277527   1.907   2.066   2.773  0.2780  0.1304  0.3946
18679TIP3    H177528   1.898   2.161   2.776  2.3846  0.3531  1.3013
18679TIP3    H277529   1.988   2.048   2.820  0.5152 -2.0349 -0.7101
18680TIP3   OH277530   5.061   0.597  12.310 -0.1310  0.0125 -0.1082
18680TIP3    H177531   5.022   0.642  12.234  1.5975  0.3651 -0.8414
18680TIP3    H277532   5.107   0.522  12.272 -0.6579 -0.7832  0.8048
18681TIP3   OH277533   4.615   6.636   5.969  0.2290  0.2499  0.1351
18681TIP3    H177534   4.529   6.669   5.944 -0.4037 -0.8610  0.7439
18681TIP3    H277535   4.638   6.685   6.047 -0.2432 -0.0384  0.4587
18682TIP3   OH277536   5.147   6.765  12.490  0.7136  0.0615  0.3118
18682TIP3    H177537   5.098   6.843  12.516 -0.5902 -0.3989 -0.6546
18682TIP3    H277538   5.216   6.798  12.434  0.2998  0.5500  0.0801
18683TIP3   OH277539   6.569   6.557   2.613 -0.0775  0.0539 -0.1840
18683TIP3    H177540   6.590   6.580   2.703  0.2700  2.2605 -0.7664
18683TIP3    H277541   6.527   6.471   2.619 -0.0330  0.1352  2.0566
18684TIP3   OH277542   1.634   0.108   1.341 -0.0582 -0.2714 -0.2643
18684TIP3    H177543   1.650   0.202   1.332  1.4924 -0.5483 -0.7388
18684TIP3    H277544   1.666   0.070   1.259 -1.2439 -1.1697 -0.3477
18685TIP3   OH277545   1.111   5.979   2.340 -0.1256  0.4180 -0.4928
18685TIP3    H177546   1.016   5.988   2.331 -0.5720 -3.2424 -1.2376
18685TIP3    H277547   1.147   6.023   2.263 -1.2470  1.4175 -0.4638
18686TIP3   OH277548   0.343   0.044  12.322  0.2208  0.0784  0.4916
18686TIP3    H177549   0.405  -0.021  12.292  1.6734  2.1501 -1.3324
18686TIP3    H277550   0.389   0.090  12.393  0.5136  1.0722 -0.3062
18687TIP3   OH277551   4.238   0.904   4.801  0.0381  0.3456  0.0216
18687TIP3    H177552   4.148   0.928   4.824 -0.5954 -0.9344 -1.0062
18687TIP3    H277553   4.279   0.882   4.884 -0.8539  0.1218  0.4146
18688TIP3   OH277554   2.055   0.095   5.527 -0.2235  0.2618 -0.0140
18688TIP3    H177555   2.015   0.095   5.440 -1.6001  0.5177  0.5924
18688TIP3    H277556   2.109   0.016   5.528  0.0302  0.3944 -1.1845
18689TIP3   OH277557   0.605   0.930   3.233 -0.1784  0.0285  0.2045
18689TIP3    H177558   0.615   0.882   3.315  0.4468  0.6249  0.4824
18689TIP3    H277559   0.629   0.867   3.165  0.4133 -0.1266  0.5507
18690TIP3   OH277560   5.436   3.517   5.382 -0.0291 -0.0414  0.5509
18690TIP3    H177561   5.367   3.564   5.334  0.9187  0.1952 -0.6324
18690TIP3    H277562   5.398   3.499   5.468 -2.2944 -1.5769 -0.6529
18691TIP3   OH277563   6.022   5.733   5.255  0.5478 -0.7154 -0.5726
18691TIP3    H177564   6.076   5.778   5.190  0.6512  0.1928  0.1286
18691TIP3    H277565   5.995   5.653   5.211 -0.0968  0.2768 -2.0548
18692TIP3   OH277566   5.733   1.034   2.174  0.0700  0.1042 -0.0502
18692TIP3    H177567   5.817   0.991   2.193 -0.2985 -1.1420 -1.1113
18692TIP3    H277568   5.719   1.092   2.249  1.1623 -0.7549  0.8623
18693TIP3   OH277569   3.589   3.815   3.248  0.4597  0.4381 -0.3853
18693TIP3    H177570   3.632   3.896   3.275  0.2867  0.2321  0.5343
18693TIP3    H277571   3.502   3.844   3.218 -0.8213  0.3592  2.8062
18694TIP3   OH277572   2.798   0.048   5.851 -0.2579  0.0591  0.5476
18694TIP3    H177573   2.890   0.055   5.875  0.1610 -0.1268 -0.9292
18694TIP3    H277574   2.754   0.018   5.931  1.0230 -0.3032  1.1314
18695TIP3   OH277575   6.198   6.309  14.096  0.2875 -0.2643  0.4081
18695TIP3    H177576   6.120   6.364  14.094 -0.9604 -1.9508 -1.1222
18695TIP3    H277577   6.221   6.303  14.189 -0.4385  1.5171  0.7394
18696TIP3   OH277578   4.659   4.220   0.783  0.3800  0.3221 -0.2508
18696TIP3    H177579   4.725   4.192   0.719  0.9017 -0.7054  0.7170
18696TIP3    H277580   4.576   4.185   0.749  0.7428 -0.7417 -0.0691
18697TIP3   OH277581   2.349   4.613  11.637  0.8199  0.3950 -0.4539
18697TIP3    H177582   2.431   4.586  11.676  0.8613  1.0305 -0.0925
18697TIP3    H277583   2.294   4.639  11.711 -0.7483 -2.6314 -0.3925
18698TIP3   OH277584   5.641   5.390   1.988  0.8032 -0.1984 -0.4197
18698TIP3    H177585   5.715   5.370   2.046 -0.3700 -1.8486  0.5887
18698TIP3    H277586   5.627   5.310   1.938  0.6666  0.6250 -1.7556
18699TIP3   OH277587   3.244   6.125  11.241 -0.1831  0.1892  0.4598
18699TIP3    H177588   3.175   6.183  11.209 -0.3409  0.4235  1.1993
18699TIP3    H277589   3.236   6.128  11.336  0.1849 -0.5913  0.5283
18700TIP3   OH277590   0.966   5.843   3.468  0.0813  0.1614 -0.3455
18700TIP3    H177591   0.898   5.788   3.507  1.2148 -0.4687  0.8379
18700TIP3    H277592   0.935   5.932   3.483  0.2866 -0.0648  1.7496
18701TIP3   OH277593   4.206   4.782  14.942  0.4807  0.2626 -0.0146
18701TIP3    H177594   4.218   4.774  14.847  0.1801 -0.0208 -0.0312
18701TIP3    H277595   4.229   4.873  14.962  2.0980 -0.1031 -0.1231
18702TIP3   OH277596   2.612   1.532   2.938  0.0787  0.0419 -0.1898
18702TIP3    H177597   2.650   1.551   2.852 -1.3674  0.0666 -0.8567
18702TIP3    H277598   2.677   1.477   2.982  0.9290  0.2002 -1.2111
18703TIP3   OH277599   5.186   4.939  13.021 -0.0131 -0.0819  0.7519
18703TIP3    H177600   5.229   5.017  13.056 -0.8084  1.2659 -1.1388
18703TIP3    H277601   5.098   4.941  13.058 -0.1288  0.0866  0.4684
18704TIP3   OH277602   3.576   4.600   2.165  0.2401  0.3443  0.2234
18704TIP3    H177603   3.602   4.625   2.076 -2.0108 -2.4883 -1.4206
18704TIP3    H277604   3.485   4.628   2.173  0.7527  1.6292  2.1628
18705TIP3   OH277605   6.233   3.195  11.551  0.3009  0.0901 -0.1928
18705TIP3    H177606   6.235   3.193  11.646  1.5545  0.9105 -0.1646
18705TIP3    H277607   6.273   3.280  11.528 -1.7054  0.7706 -1.4183
18706TIP3   OH277608   1.190   4.756   3.139  0.5281  0.2256  0.0816
18706TIP3    H177609   1.145   4.794   3.064 -0.3295 -1.3967 -0.2535
18706TIP3    H277610   1.211   4.831   3.194 -2.0032  1.1436 -0.0614
18707TIP3   OH277611   3.435   0.857   0.237  0.1830  0.1169  0.4098
18707TIP3    H177612   3.360   0.898   0.278 -1.4324 -0.7680 -1.4843
18707TIP3    H277613   3.468   0.922   0.174  0.1361  0.0102  0.2724
18708TIP3   OH277614   3.480   3.661  13.457  0.3189  0.3876 -0.0505
18708TIP3    H177615   3.456   3.636  13.547  1.4655 -0.9510 -0.0757
18708TIP3    H277616   3.543   3.594  13.430  1.0326  1.5460 -1.3724
18709TIP3   OH277617   2.561   1.779   2.552 -0.5729 -0.4055  0.7820
18709TIP3    H177618   2.542   1.870   2.572 -0.0129 -0.0484 -0.2265
18709TIP3    H277619   2.557   1.774   2.456  0.5281 -1.1631  0.7494
18710TIP3   OH277620   3.899   5.969   1.650 -0.2025  0.6070  1.1177
18710TIP3    H177621   3.912   5.935   1.561 -0.5443 -0.5440  1.5016
18710TIP3    H277622   3.967   6.036   1.660 -0.3836  1.0070 -0.1330
18711TIP3   OH277623   5.051   0.504  15.512  0.3617  0.0554  0.8171
18711TIP3    H177624   4.976   0.520  15.569  0.8783 -0.4561  1.6663
18711TIP3    H277625   5.060   0.584  15.461 -0.0161  0.5877  1.5721
18712TIP3   OH277626   1.118   4.465   5.056  0.0826 -0.4532  0.2591
18712TIP3    H177627   1.084   4.552   5.078 -0.8365 -0.7210 -0.0540
18712TIP3    H277628   1.207   4.481   5.026 -0.4275  0.5056 -0.8122
18713TIP3   OH277629   4.654   3.831   0.764 -0.0610  0.0205 -0.2256
18713TIP3    H177630   4.644   3.742   0.797 -0.4885 -0.2199 -0.9734
18713TIP3    H277631   4.585   3.840   0.699 -1.0566  1.4647  0.9955
18714TIP3   OH277632   2.904   3.836   1.643 -0.1429 -0.5957  0.5041
18714TIP3    H177633   2.977   3.785   1.607 -0.7059 -2.0639  1.3462
18714TIP3    H277634   2.871   3.886   1.569  0.9121 -0.8828 -0.1891
18715TIP3   OH277635   4.416   3.611   5.247 -0.5430 -0.8682 -0.3403
18715TIP3    H177636   4.487   3.548   5.235 -0.7776 -1.2222  0.0901
18715TIP3    H277637   4.460   3.694   5.264 -0.1797 -1.4770  2.0821
18716TIP3   OH277638   5.206   2.958   6.779  0.2427  0.3555  0.0570
18716TIP3    H177639   5.229   2.983   6.869 -0.8207  0.2241  0.3771
18716TIP3    H277640   5.252   3.021   6.724  0.4731  0.7728  0.7175
18717TIP3   OH277641   6.007   2.192   5.363 -0.0393  0.6950 -0.3384
18717TIP3    H177642   5.924   2.211   5.405 -0.7546 -1.0138 -0.8682
18717TIP3    H277643   5.988   2.117   5.306  2.0343 -0.2837  0.1622
18718TIP3   OH277644   5.481   6.182   0.801  0.2551  0.3755 -0.0049
18718TIP3    H177645   5.507   6.136   0.721 -1.3415  0.6908 -0.7322
18718TIP3    H277646   5.415   6.125   0.841  0.9189  0.2991  1.0133
18719TIP3   OH277647   2.762   4.430  14.886  0.1567  0.1680 -0.6063
18719TIP3    H177648   2.699   4.405  14.954 -0.7154  0.1404 -1.4176
18719TIP3    H277649   2.709   4.460  14.813  1.0868  0.0918 -1.3349
18720TIP3   OH277650   3.294   0.411  12.352  0.3179 -0.1257  0.3825
18720TIP3    H177651   3.247   0.335  12.387 -0.3173 -0.6724 -1.5395
18720TIP3    H277652   3.383   0.403  12.386  0.4631 -2.1563 -0.3882
18721TIP3   OH277653   3.778   0.531   0.664 -0.6550  0.6826  0.1180
18721TIP3    H177654   3.765   0.446   0.707 -2.3648  1.4854  1.3277
18721TIP3    H277655   3.701   0.543   0.610 -1.6280  2.4105  1.7421
18722TIP3   OH277656   2.080   4.510   2.341  0.2885  0.1555 -0.5807
18722TIP3    H177657   2.078   4.414   2.337 -1.3086 -0.0259  1.9274
18722TIP3    H277658   2.162   4.530   2.385 -0.5018 -0.2990  1.2047
18723TIP3   OH277659   2.747   0.263  14.322  0.0182 -0.4190  0.2147
18723TIP3    H177660   2.659   0.277  14.286  0.6248 -2.3991 -2.3498
18723TIP3    H277661   2.735   0.196  14.389 -0.8005  1.6029  2.1990
18724TIP3   OH277662   5.291   4.080  13.819 -0.0697  0.4870 -0.7316
18724TIP3    H177663   5.326   3.993  13.798  0.0157  0.1813  0.5971
18724TIP3    H277664   5.318   4.095  13.910  0.4052  2.1524 -1.1239
18725TIP3   OH277665   6.395   0.289   0.993 -0.5508 -0.6574  0.8815
18725TIP3    H177666   6.324   0.239   0.952  0.9891 -0.7966 -1.8129
18725TIP3    H277667   6.363   0.379   0.994 -0.5553 -0.6088 -0.9363
18726TIP3   OH277668   6.133   5.052  16.333 -0.4118  0.1177 -0.1468
18726TIP3    H177669   6.087   5.129  16.368  0.2893  0.1435  0.7641
18726TIP3    H277670   6.182   5.086  16.258 -0.3284  0.5117  0.0796
18727TIP3   OH277671   4.386   1.862   4.111 -0.2203 -0.3851  0.1752
18727TIP3    H177672   4.388   1.903   4.025 -0.0084  1.1636  0.8744
18727TIP3    H277673   4.420   1.774   4.097  1.6963  0.4827 -1.0175
18728TIP3   OH277674   3.506   5.274   2.963 -0.0711 -0.3312  0.3069
18728TIP3    H177675   3.415   5.295   2.941  0.5925  0.4619 -2.0688
18728TIP3    H277676   3.516   5.300   3.054 -2.0087  0.2880  0.3849
18729TIP3   OH277677   6.283   2.266   5.298 -0.2126 -0.5990  0.4530
18729TIP3    H177678   6.281   2.332   5.367 -0.1903  2.0599 -1.9181
18729TIP3    H277679   6.199   2.221   5.306 -1.1883  1.1864  0.8818
18730TIP3   OH277680   4.591   0.431   0.583 -0.3901 -0.2131  0.2553
18730TIP3    H177681   4.615   0.468   0.668 -1.4858 -0.2073  0.5848
18730TIP3    H277682   4.673   0.400   0.545  0.1218 -0.1445  1.2850
18731TIP3   OH277683   3.690   4.087   0.202 -0.2483 -0.7742  0.1268
18731TIP3    H177684   3.685   4.004   0.249 -4.1274 -0.7975 -0.0434
18731TIP3    H277685   3.721   4.150   0.268  1.9250 -2.0991  0.4638
18732TIP3   OH277686   4.823   6.424  11.624  0.2988  0.2685  0.5724
18732TIP3    H177687   4.778   6.430  11.539  0.5097 -0.5740  0.3939
18732TIP3    H277688   4.890   6.492  11.620  1.2881 -0.7329 -0.5468
18733TIP3   OH277689   6.385   1.373  12.446  0.3572 -0.3490  0.2524
18733TIP3    H177690   6.363   1.281  12.431  0.4097 -0.2281 -0.5823
18733TIP3    H277691   6.310   1.422  12.413  0.5584 -0.0684  0.2079
18734TIP3   OH277692   5.302   5.233  14.418  0.2849  0.2967 -0.9693
18734TIP3    H177693   5.323   5.226  14.325  0.1876 -0.6003 -0.9348
18734TIP3    H277694   5.208   5.219  14.423 -0.0432  2.2995 -0.9187
18735TIP3   OH277695   5.916   5.565  13.416  0.0193  0.2920  0.1327
18735TIP3    H177696   5.935   5.562  13.322  0.1570  0.4391  0.1548
18735TIP3    H277697   5.952   5.649  13.445 -1.8894  1.2492 -0.0889
18736TIP3   OH277698   4.802   3.122  13.548  0.6021 -0.4366  0.0200
18736TIP3    H177699   4.754   3.144  13.468 -1.2562  0.5467  1.3238
18736TIP3    H277700   4.892   3.150  13.530 -0.0748  1.1011 -1.2195
18737TIP3   OH277701   6.653   3.666   6.339  0.4404  0.1435 -1.0291
18737TIP3    H177702   6.623   3.670   6.430 -1.2948 -1.3211 -1.4894
18737TIP3    H277703   6.733   3.613   6.343 -0.4118 -1.1506 -0.5000
18738TIP3   OH277704   5.001   3.408   1.735  0.7574 -0.0872  0.1186
18738TIP3    H177705   5.053   3.470   1.684  0.9646  0.6877  1.2220
18738TIP3    H277706   4.928   3.461   1.769  0.6546 -0.5692  0.6638
18739TIP3   OH277707   0.499   6.587   1.202  0.2604 -0.1159  0.7918
18739TIP3    H177708   0.499   6.645   1.279  0.8083 -0.2793  0.9234
18739TIP3    H277709   0.589   6.555   1.197  0.2112 -0.1638  0.1222
18740TIP3   OH277710   4.540   2.923  15.614 -0.5240 -0.3066  0.0069
18740TIP3    H177711   4.630   2.918  15.584 -0.5234  0.0697 -0.0661
18740TIP3    H277712   4.541   2.992  15.681 -0.3857 -1.5955  1.3873
18741TIP3   OH277713   0.909   5.484  15.476 -0.3559 -0.1071  0.6387
18741TIP3    H177714   0.911   5.514  15.567  2.1352 -1.1850  1.0156
18741TIP3    H277715   0.986   5.525  15.436  1.2126 -3.1360  0.2859
18742TIP3   OH277716   0.833   5.864   5.548  0.3796  0.1870  0.1260
18742TIP3    H177717   0.775   5.939   5.562  0.5235  0.4180 -0.4798
18742TIP3    H277718   0.787   5.810   5.483 -0.3724 -0.9591  1.5645
18743TIP3   OH277719   2.880   2.315  16.084  0.2860 -0.9063  0.0607
18743TIP3    H177720   2.917   2.336  16.170 -0.3696  0.3030  0.0790
18743TIP3    H277721   2.828   2.393  16.061 -0.0860 -1.4812 -1.1321
18744TIP3   OH277722   3.053   2.672  14.375 -0.9280  0.2309 -0.6738
18744TIP3    H177723   2.971   2.684  14.421 -0.6639 -1.3563  0.2827
18744TIP3    H277724   3.028   2.631  14.292 -1.1492  0.3821 -0.6831
18745TIP3   OH277725   5.375   3.275   4.675  0.1486 -0.0125 -0.3508
18745TIP3    H177726   5.437   3.237   4.613 -0.4532 -1.3242 -0.1792
18745TIP3    H277727   5.427   3.337   4.726  0.6048  1.3226 -2.3234
18746TIP3   OH277728   1.477   0.321   2.576  0.0726 -0.7376  0.3213
18746TIP3    H177729   1.392   0.315   2.533  0.2641  0.4206 -0.2570
18746TIP3    H277730   1.479   0.410   2.613  1.3362 -0.4484 -0.3728
18747TIP3   OH277731   3.042   0.791  11.638  0.2393 -0.1422  0.3229
18747TIP3    H177732   3.108   0.721  11.642 -0.7682 -1.0958  1.2529
18747TIP3    H277733   3.093   0.872  11.634  1.5172 -0.7796  1.9754
18748TIP3   OH277734   4.646   2.179   1.767  0.2787 -0.0296 -0.1779
18748TIP3    H177735   4.613   2.095   1.735  1.3718 -0.0371 -1.3779
18748TIP3    H277736   4.740   2.176   1.749  0.6074  0.8089  1.2513
18749TIP3   OH277737   2.530   3.309  15.138 -0.4879 -0.4175  0.0217
18749TIP3    H177738   2.488   3.323  15.054  1.5314  0.5199 -0.8918
18749TIP3    H277739   2.485   3.368  15.198 -1.3907 -0.4933 -0.5579
18750TIP3   OH277740   1.605   2.308  15.088 -0.1421  0.1768 -0.1201
18750TIP3    H177741   1.575   2.221  15.114  3.1034 -1.2362 -0.5676
18750TIP3    H277742   1.621   2.353  15.171  0.1212 -0.4443  0.1799
18751TIP3   OH277743   0.509   3.563  15.063 -0.0581 -0.1997 -0.1265
18751TIP3    H177744   0.497   3.553  14.968 -1.7450 -0.2532  0.0493
18751TIP3    H277745   0.556   3.485  15.090 -0.1132 -0.4904 -0.8482
18752TIP3   OH277746   0.263   4.038  12.962  0.4003  0.2797 -0.8741
18752TIP3    H177747   0.358   4.038  12.949  0.7507  0.3911  1.2724
18752TIP3    H277748   0.252   4.060  13.054 -1.5629 -3.4735 -0.0329
18753TIP3   OH277749   2.970   5.195   1.776 -0.2840  0.5267  0.6613
18753TIP3    H177750   2.978   5.261   1.708  1.4820  0.6927  0.9876
18753TIP3    H277751   2.935   5.118   1.730 -0.9573  1.2169 -0.0142
18754TIP3   OH277752   4.552   0.860  14.279 -0.1945  0.5200  0.2341
18754TIP3    H177753   4.462   0.829  14.275  0.5029 -1.7236  0.3610
18754TIP3    H277754   4.598   0.792  14.329  1.4350  1.9452  0.7651
18755TIP3   OH277755   1.062   1.869  11.915  0.1510  0.0859 -0.6056
18755TIP3    H177756   1.062   1.858  11.820  2.0129 -0.6788 -0.5576
18755TIP3    H277757   1.070   1.963  11.928 -0.8215  0.2603 -1.1859
18756TIP3   OH277758   0.138   3.833   4.970 -0.0148 -0.3831  0.1836
18756TIP3    H177759   0.096   3.752   4.939 -1.9091 -0.1901  2.0027
18756TIP3    H277760   0.203   3.804   5.034 -0.1126 -0.5183  0.2221
18757TIP3   OH277761   4.937   5.050  15.707 -0.2032  0.4456  0.3448
18757TIP3    H177762   4.955   4.976  15.764 -0.0433  0.5282  0.4028
18757TIP3    H277763   5.018   5.101  15.708  0.1686 -0.1016 -0.7944
18758TIP3   OH277764   2.233   3.955   4.461 -0.5325  0.1009  0.0418
18758TIP3    H177765   2.178   3.984   4.534  0.6179 -1.2401  1.5304
18758TIP3    H277766   2.184   3.980   4.383 -1.7606  1.7300  1.2466
18759TIP3   OH277767   2.009   4.907  13.703 -0.2438 -0.0066 -0.0116
18759TIP3    H177768   1.985   4.949  13.620 -1.3999 -0.6317 -0.0102
18759TIP3    H277769   2.102   4.885  13.692 -0.9581 -2.5303 -2.2445
18760TIP3   OH277770   0.817   3.281   2.557  0.1543 -0.6703 -0.1151
18760TIP3    H177771   0.728   3.318   2.554  0.2739  0.0625  2.7499
18760TIP3    H277772   0.867   3.335   2.497 -0.6175  1.1951  0.8413
18761TIP3   OH277773   3.623   6.589  13.581  0.0681 -0.0331 -0.4924
18761TIP3    H177774   3.543   6.571  13.531  0.4296  1.1424 -1.5331
18761TIP3    H277775   3.592   6.626  13.663 -0.4632  0.6015 -0.9674
18762TIP3   OH277776   3.116   5.104   4.557 -0.3592  0.0388 -0.3887
18762TIP3    H177777   3.153   5.160   4.625  0.7116  0.0782 -0.9927
18762TIP3    H277778   3.163   5.128   4.477  1.1733 -2.6912 -0.4318
18763TIP3   OH277779   4.910   5.052  12.236  0.2237 -0.0285 -0.6530
18763TIP3    H177780   4.946   5.051  12.147  0.4715  1.2988 -0.5897
18763TIP3    H277781   4.978   5.010  12.290  1.4336  1.8268 -0.6468
18764TIP3   OH277782   1.318   0.540   2.657  0.3641 -0.1318 -0.2322
18764TIP3    H177783   1.350   0.629   2.673  0.9767 -0.1406 -1.2682
18764TIP3    H277784   1.307   0.536   2.562 -1.3735 -0.6132 -0.0347
18765TIP3   OH277785   5.168   1.815   1.004  0.1110 -0.0674  0.0577
18765TIP3    H177786   5.148   1.728   0.969 -1.0758  0.3036 -0.2424
18765TIP3    H277787   5.104   1.873   0.962  1.4582  1.1182 -0.4616
18766TIP3   OH277788   4.886   4.689  13.072 -0.1661  0.0721  0.2480
18766TIP3    H177789   4.894   4.784  13.079 -0.3539  0.2606 -1.6210
18766TIP3    H277790   4.817   4.666  13.134 -0.6310  1.2467  0.1922
18767TIP3   OH277791   5.553   1.431  14.107  0.1118 -0.1648  0.0199
18767TIP3    H177792   5.612   1.357  14.090 -1.3269 -1.2516 -0.4552
18767TIP3    H277793   5.610   1.501  14.138  1.6389 -1.1828 -0.3997
18768TIP3   OH277794   5.395   0.841  13.169  0.2251 -0.0491 -0.2563
18768TIP3    H177795   5.469   0.844  13.229  2.5443 -1.0264 -2.8550
18768TIP3    H277796   5.379   0.932  13.145  1.4565  0.1035 -0.5786
18769TIP3   OH277797   0.540   4.616  11.486  0.4916  0.4685  0.0540
18769TIP3    H177798   0.633   4.620  11.508  0.3408  0.3476  0.7445
18769TIP3    H277799   0.495   4.624  11.570 -0.1558  1.7551 -0.3841
18770TIP3   OH277800   0.075   5.695  13.724  0.0548 -0.7672 -0.2362
18770TIP3    H177801   0.071   5.605  13.757 -1.7690  0.3199  2.9355
18770TIP3    H277802  -0.016   5.718  13.708  0.6992 -0.6352 -5.0090
18771TIP3   OH277803   0.576   2.049   4.446  0.7047 -0.5754 -0.0382
18771TIP3    H177804   0.609   2.088   4.364  1.8792 -1.7658 -0.1680
18771TIP3    H277805   0.638   1.979   4.465 -0.7141 -1.6553  0.7816
18772TIP3   OH277806   6.704   3.514   4.923 -0.1045  0.1437  0.4175
18772TIP3    H177807   6.639   3.505   4.993  0.1673 -0.4503  0.6011
18772TIP3    H277808   6.764   3.440   4.936  0.1517  0.2297 -0.2277
18773TIP3   OH277809   0.392   6.693  15.682  0.6223  0.1456  0.2455
18773TIP3    H177810   0.412   6.654  15.767 -0.6826 -1.8793 -0.2931
18773TIP3    H277811   0.313   6.745  15.696  0.5952  0.0746  0.3525
18774TIP3   OH277812   1.160   5.882  15.316  0.2475  0.3021  0.0373
18774TIP3    H177813   1.143   5.789  15.332 -0.5658  0.7768  2.2859
18774TIP3    H277814   1.115   5.928  15.387  0.5983  2.4441 -1.0233
18775TIP3   OH277815   6.191   2.823  16.767  0.1371  0.2309  0.1251
18775TIP3    H177816   6.264   2.769  16.798 -0.1820 -1.0859 -1.2942
18775TIP3    H277817   6.217   2.849  16.678 -0.3708  1.2049  0.2527
18776TIP3   OH277818   0.873   6.496   5.058  0.2079 -0.6685  0.0873
18776TIP3    H177819   0.782   6.469   5.074  0.0973 -0.1818  0.2804
18776TIP3    H277820   0.903   6.532   5.141  0.0098  0.7962 -0.4551
18777TIP3   OH277821   6.174   0.388   1.460  0.4837 -0.6239  0.6662
18777TIP3    H177822   6.112   0.316   1.466 -0.1059 -0.1645  0.1895
18777TIP3    H277823   6.175   0.411   1.367  0.8986 -0.2215  0.7686
18778TIP3   OH277824   6.803   5.538  16.297  0.3957  0.2886  0.6002
18778TIP3    H177825   6.893   5.564  16.276  0.6117 -1.8262 -1.5429
18778TIP3    H277826   6.810   5.499  16.384  1.6094 -0.0036  0.3986
18779TIP3   OH277827   5.002   0.858  15.229 -0.3014 -0.1127 -0.6983
18779TIP3    H177828   5.061   0.846  15.155 -0.8840 -0.6200 -1.0961
18779TIP3    H277829   4.924   0.898  15.191 -1.4883 -2.3661 -0.8014
18780TIP3   OH277830   1.853   3.434  11.602 -0.5784  0.3980  0.3406
18780TIP3    H177831   1.888   3.376  11.535 -1.6440  0.8359 -0.6294
18780TIP3    H277832   1.835   3.377  11.677 -1.4002 -0.4957 -0.5160
18781TIP3   OH277833   0.572   4.338  14.401  0.2806 -0.3507 -0.3049
18781TIP3    H177834   0.656   4.319  14.442 -0.4455 -1.7462  0.6085
18781TIP3    H277835   0.507   4.321  14.469 -0.8577 -1.2182 -1.5422
18782TIP3   OH277836   3.662   4.850  12.447  0.4183 -0.4934  0.1063
18782TIP3    H177837   3.728   4.919  12.461 -0.6702  1.7751 -4.0472
18782TIP3    H277838   3.706   4.787  12.390 -0.0272 -0.6408 -0.0782
18783TIP3   OH277839   0.794   6.060   4.597 -0.2553 -0.4327 -0.0736
18783TIP3    H177840   0.790   5.966   4.578 -1.2813 -0.2641 -0.7755
18783TIP3    H277841   0.855   6.095   4.531 -1.2016 -0.3571 -0.9242
18784TIP3   OH277842   5.789   5.936  13.409 -0.1316 -0.2647 -0.0354
18784TIP3    H177843   5.794   5.884  13.330  0.8686 -2.2178  1.2443
18784TIP3    H277844   5.702   5.917  13.445  0.8892 -2.6652  1.3921
18785TIP3   OH277845   4.028   5.445   5.242  0.3732  0.1670 -0.0474
18785TIP3    H177846   4.102   5.463   5.299 -1.4314  1.5419  2.0383
18785TIP3    H277847   4.058   5.376   5.183  2.4712 -1.1378  2.3938
18786TIP3   OH277848   0.147   1.476  12.492  0.3402  0.0726  0.5806
18786TIP3    H177849   0.083   1.445  12.428 -1.3354 -0.3103  2.3292
18786TIP3    H277850   0.231   1.450  12.456 -0.3930  1.1319 -2.1163
18787TIP3   OH277851   5.364   2.859   1.267  0.3344 -0.7131  0.1091
18787TIP3    H177852   5.286   2.806   1.281 -1.0043  1.6410  2.5911
18787TIP3    H277853   5.387   2.892   1.354  1.7866  1.7157 -1.0716
18788TIP3   OH277854   5.887   1.386   0.778 -0.8451 -0.1198  0.7432
18788TIP3    H177855   5.810   1.442   0.787  0.5432  1.5747  5.8048
18788TIP3    H277856   5.855   1.297   0.792 -2.0697  0.3683  1.1463
18789TIP3   OH277857   3.471   0.449  11.780  0.7472 -0.5384 -0.6052
18789TIP3    H177858   3.472   0.494  11.696  2.2671 -1.6233 -1.2053
18789TIP3    H277859   3.492   0.517  11.844  4.4672 -0.5281 -1.6274
18790TIP3   OH277860   0.118   5.119   5.037  0.1875  0.1646  0.1051
18790TIP3    H177861   0.212   5.123   5.022  0.0102  1.5640 -0.8452
18790TIP3    H277862   0.099   5.025   5.045  1.5239 -0.1978 -0.6231
18791TIP3   OH277863   3.249   0.485   3.801 -0.6045 -0.4180 -0.1603
18791TIP3    H177864   3.284   0.413   3.748  2.7447  0.5490  0.4944
18791TIP3    H277865   3.227   0.552   3.737  0.4567 -0.4277 -0.5623
18792TIP3   OH277866   3.303   4.363   4.809 -0.2161  0.1852  0.1702
18792TIP3    H177867   3.350   4.336   4.888  1.7283  0.6643 -0.7880
18792TIP3    H277868   3.338   4.449   4.787 -1.3551  0.4484 -0.7426
18793TIP3   OH277869   0.149   6.602   6.677  0.4787 -0.6886 -0.0576
18793TIP3    H177870   0.152   6.662   6.602 -2.2044 -2.6739 -1.9286
18793TIP3    H277871   0.071   6.629   6.726  0.8877 -0.8773  0.7041
18794TIP3   OH277872   1.221   6.082   1.965 -0.7203  0.1437 -0.0681
18794TIP3    H177873   1.139   6.096   1.917 -0.1410  4.1688 -0.1601
18794TIP3    H277874   1.207   6.124   2.049  0.4889 -1.3199  0.9255
18795TIP3   OH277875   2.481   6.503  17.087 -0.7001  0.0613 -0.6825
18795TIP3    H177876   2.401   6.499  17.035 -1.3163  0.8047  0.1735
18795TIP3    H277877   2.531   6.575  17.050 -0.4576 -0.3450 -1.1600
18796TIP3   OH277878   1.231   6.587   0.202  0.2549  0.4900  0.2921
18796TIP3    H177879   1.243   6.567   0.109  2.5345 -1.9458  1.0148
18796TIP3    H277880   1.299   6.651   0.222  2.1280 -1.5764  0.9405
18797TIP3   OH277881   3.548   2.891   6.024 -0.2617 -0.2712  0.3557
18797TIP3    H177882   3.621   2.944   6.056  0.1710 -0.7423  0.1644
18797TIP3    H277883   3.556   2.894   5.929 -1.7953  1.4806  0.2329
18798TIP3   OH277884   5.255   2.455  11.212  0.7899 -0.1080 -0.2202
18798TIP3    H177885   5.307   2.506  11.275  2.2717 -0.8715 -0.7837
18798TIP3    H277886   5.298   2.472  11.128 -0.1732 -0.3984 -0.7748
18799TIP3   OH277887   2.462   1.238   3.062  0.0625  0.2487 -0.0908
18799TIP3    H177888   2.433   1.329   3.065 -1.6059 -0.2306 -0.4676
18799TIP3    H277889   2.485   1.224   2.970 -0.1857  0.1399 -0.1355
18800TIP3   OH277890   0.618   2.313  10.810 -0.8838 -0.0321 -0.0242
18800TIP3    H177891   0.648   2.403  10.824  0.6770 -0.5822  0.4339
18800TIP3    H277892   0.670   2.261  10.871 -0.0217 -1.5093 -1.8929
18801TIP3   OH277893   3.096   0.261   4.207 -0.0029 -0.1575 -0.3796
18801TIP3    H177894   3.096   0.324   4.134 -0.8341 -1.0624 -1.1964
18801TIP3    H277895   3.181   0.217   4.200  0.7933  1.1694  0.4961
18802TIP3   OH277896   3.683   1.498  17.223  0.2619  0.2211 -0.2585
18802TIP3    H177897   3.716   1.460  17.305 -0.9132  0.9762  0.5914
18802TIP3    H277898   3.756   1.488  17.161  1.6808  0.8034  1.2343
18803TIP3   OH277899   6.280   4.131   1.622 -0.0838  0.3813 -0.1878
18803TIP3    H177900   6.352   4.069   1.624  0.1316  0.4183 -3.2008
18803TIP3    H277901   6.266   4.150   1.529 -3.1386  1.3624  0.3418
18804TIP3   OH277902   5.679   1.608   4.704 -0.3483 -0.4900 -0.1287
18804TIP3    H177903   5.762   1.574   4.738 -1.0237 -1.2661  0.7715
18804TIP3    H277904   5.702   1.645   4.618  1.3804  1.4265  1.0514
18805TIP3   OH277905   1.424   3.431   5.558  0.3735 -0.1002 -0.0834
18805TIP3    H177906   1.404   3.512   5.606  0.4058 -0.6999  0.9854
18805TIP3    H277907   1.361   3.429   5.486 -2.3057 -0.9914  2.0890
18806TIP3   OH277908   0.419   2.590   5.363 -0.4655 -0.2592 -0.2107
18806TIP3    H177909   0.446   2.673   5.403  0.5466 -0.9531  0.6027
18806TIP3    H277910   0.411   2.530   5.436 -0.1923 -1.1440 -0.8919
18807TIP3   OH277911   4.265   0.609  12.467  0.0958 -0.3913  0.2537
18807TIP3    H177912   4.314   0.692  12.466 -0.7125  0.3751  4.2552
18807TIP3    H277913   4.288   0.569  12.551 -2.5188 -2.2769  0.1938
18808TIP3   OH277914   1.172   2.119  17.147 -0.0308 -0.2166 -0.3590
18808TIP3    H177915   1.244   2.100  17.086 -0.2761 -0.3082 -0.6219
18808TIP3    H277916   1.110   2.047  17.134 -0.2831 -0.0103 -0.3065
18809TIP3   OH277917   4.963   1.961  13.875 -0.0073 -0.2216 -0.8035
18809TIP3    H177918   4.969   1.901  13.950 -0.3949  0.0725 -0.5326
18809TIP3    H277919   4.960   2.048  13.914  1.0665  0.0146 -1.2232
18810TIP3   OH277920   4.003   1.924  14.529  0.3462 -0.4149  0.9930
18810TIP3    H177921   4.063   1.921  14.604  2.0924  1.7457 -0.1985
18810TIP3    H277922   4.060   1.922  14.452 -0.8499  3.0443 -0.2011
18811TIP3   OH277923   2.862   1.097  14.215  0.1741  0.1416 -0.3196
18811TIP3    H177924   2.793   1.148  14.258 -0.9139  0.1726 -1.9908
18811TIP3    H277925   2.884   1.147  14.136 -0.5197 -1.6218 -1.7088
18812TIP3   OH277926   3.515   6.385   5.963  0.3074 -0.9115 -0.0714
18812TIP3    H177927   3.583   6.451   5.973  1.0240 -1.7038  0.4015
18812TIP3    H277928   3.561   6.307   5.931 -0.5130 -1.2015 -0.5709
18813TIP3   OH277929   6.002   4.807  16.051  0.3154  0.0360  0.3394
18813TIP3    H177930   6.022   4.882  15.996  1.8263 -0.4432  0.1958
18813TIP3    H277931   6.087   4.774  16.079 -0.3941  0.7334  3.6720
18814TIP3   OH277932   5.739   6.069  12.677  0.3042  0.2076 -0.4814
18814TIP3    H177933   5.809   6.126  12.645 -0.3414  1.6500  0.5745
18814TIP3    H277934   5.662   6.094  12.627  0.2753 -0.6040 -0.8618
18815TIP3   OH277935   1.805   1.638  12.642  0.5677 -0.7795 -0.5564
18815TIP3    H177936   1.899   1.656  12.642  0.0025  2.8726 -0.8453
18815TIP3    H277937   1.785   1.613  12.552  0.9678  0.6176 -1.0577
18816TIP3   OH277938   1.950   6.580   5.478  0.4608  0.0510  0.0013
18816TIP3    H177939   2.014   6.646   5.452 -0.9465  1.3095 -0.4409
18816TIP3    H277940   1.960   6.510   5.414  1.0193  0.4762 -0.3819
18817TIP3   OH277941   5.020   2.511  10.891  0.1678 -0.4216  0.4378
18817TIP3    H177942   4.994   2.460  10.815  1.4876  2.3599 -2.1343
18817TIP3    H277943   5.116   2.513  10.887  0.2277  0.6128  1.5587
18818TIP3   OH277944   1.583   0.244   2.290 -0.0746  0.2348  0.1529
18818TIP3    H177945   1.632   0.233   2.209 -0.4434 -1.6482  0.1423
18818TIP3    H277946   1.491   0.240   2.263 -0.2005 -0.1925  0.6298
18819TIP3   OH277947   3.482   4.370   3.104 -0.2711  0.3964 -0.0462
18819TIP3    H177948   3.577   4.361   3.102 -0.2682  0.4839 -0.2176
18819TIP3    H277949   3.463   4.446   3.049 -0.3519  1.0999  0.9192
18820TIP3   OH277950   0.275   1.495  14.219 -0.4143  0.0982  0.7248
18820TIP3    H177951   0.359   1.538  14.201 -0.2135 -0.0590  1.2674
18820TIP3    H277952   0.299   1.407  14.248 -0.8563 -1.1096 -2.1572
18821TIP3   OH277953   3.683   3.941  12.568  0.0805 -0.1555  0.1437
18821TIP3    H177954   3.694   3.990  12.487  0.7270 -1.5016 -0.6241
18821TIP3    H277955   3.593   3.959  12.595  0.1142  0.9524 -0.4206
18822TIP3   OH277956   2.998   0.539  13.685 -0.8667 -0.6299  0.2633
18822TIP3    H177957   3.024   0.454  13.721  0.6656 -0.1238  0.4028
18822TIP3    H277958   2.942   0.577  13.753  0.0851 -0.6844  1.0990
18823TIP3   OH277959   5.733   4.068   2.168  0.2770  0.0328 -0.6903
18823TIP3    H177960   5.795   4.064   2.095  1.8359  0.9887  0.5214
18823TIP3    H277961   5.784   4.102   2.241 -1.5441  0.2509  0.5452
18824TIP3   OH277962   5.214   6.355  11.149 -0.0791  0.7120 -0.1159
18824TIP3    H177963   5.127   6.335  11.185 -0.1259  0.9075 -0.1205
18824TIP3    H277964   5.206   6.443  11.113  0.6739  1.5285  1.6435
18825TIP3   OH277965   6.719   0.416   4.264  0.0208  0.7781 -0.2279
18825TIP3    H177966   6.730   0.336   4.212  1.5307  1.5475 -1.1917
18825TIP3    H277967   6.706   0.385   4.353 -2.3575 -0.5875 -0.9668
18826TIP3   OH277968   4.658   6.393  13.686 -0.1844 -0.5448  0.1337
18826TIP3    H177969   4.743   6.349  13.681  1.9608  3.1267  0.7233
18826TIP3    H277970   4.663   6.463  13.620 -3.0500 -0.5700 -0.2508
18827TIP3   OH277971   3.242   5.319  15.280  0.3258 -0.4404 -0.3647
18827TIP3    H177972   3.242   5.269  15.362  2.3119 -1.3561 -0.8809
18827TIP3    H277973   3.328   5.303  15.242  1.2146  3.5276 -0.4883
18828TIP3   OH277974   4.703   4.436  11.383  0.7098 -0.4077  0.4623
18828TIP3    H177975   4.630   4.458  11.441  1.9337 -1.1196  2.3804
18828TIP3    H277976   4.708   4.509  11.322 -1.0670  0.0510  0.8179
18829TIP3   OH277977   0.867   4.429  14.029 -0.1974 -0.4999 -0.1438
18829TIP3    H177978   0.882   4.460  14.119  0.9734 -1.3292 -0.0330
18829TIP3    H277979   0.877   4.334  14.035  0.0417 -0.5475 -1.1851
18830TIP3   OH277980   1.402   2.937  13.395 -0.6461 -0.3553 -0.0973
18830TIP3    H177981   1.336   2.868  13.388  0.8447 -1.7904 -0.8357
18830TIP3    H277982   1.384   2.979  13.479 -0.9936 -2.3570  0.9060
18831TIP3   OH277983   6.201   0.656   4.153  0.2101 -0.2219  0.7780
18831TIP3    H177984   6.184   0.676   4.245 -2.7819  0.1329  0.2280
18831TIP3    H277985   6.190   0.740   4.108  2.8744 -0.1177  0.1501
18832TIP3   OH277986   3.215   2.505   6.969  0.2216  0.6249  0.0207
18832TIP3    H177987   3.232   2.595   6.941  0.9553  0.5849  0.3404
18832TIP3    H277988   3.160   2.469   6.900  1.4247  0.7527 -1.0364
18833TIP3   OH277989   2.046   4.096  12.320  1.0253 -0.7955  0.1328
18833TIP3    H177990   1.956   4.103  12.353  1.1594 -0.1180  0.3690
18833TIP3    H277991   2.100   4.132  12.390  1.3372  0.3646 -0.6713
18834TIP3   OH277992   5.661   3.259   2.950  0.3395  0.6681 -0.0317
18834TIP3    H177993   5.719   3.256   3.026 -0.0562  1.0105  0.2866
18834TIP3    H277994   5.573   3.264   2.987 -0.0650 -1.6372 -0.4743
18835TIP3   OH277995   5.463   5.849  11.600  0.1051  0.6389  0.0634
18835TIP3    H177996   5.382   5.900  11.597 -1.0228 -1.0592 -0.0334
18835TIP3    H277997   5.532   5.913  11.616 -1.3785  2.0336  1.1498
18836TIP3   OH277998   6.178   1.205  14.918 -0.3028 -0.5910  0.7658
18836TIP3    H177999   6.260   1.158  14.902  0.2922  0.5860  0.2452
18836TIP3    H278000   6.119   1.174  14.849  1.5535  2.7808 -2.6887
18837TIP3   OH278001   3.833   4.029   2.913 -0.1570  0.6359 -0.2997
18837TIP3    H178002   3.750   4.024   2.960 -0.8080 -1.4812 -1.5296
18837TIP3    H278003   3.892   4.076   2.972 -1.8865  1.1261  1.1058
18838TIP3   OH278004   1.315   1.773  15.569  0.9216 -0.4115 -0.1791
18838TIP3    H178005   1.277   1.741  15.487 -0.2532 -0.6844  0.4641
18838TIP3    H278006   1.407   1.791  15.547  0.5787 -0.2994 -1.5986
18839TIP3   OH278007   1.565   0.646   0.561  0.7325  0.5574  0.4126
18839TIP3    H178008   1.659   0.642   0.550  0.7484 -0.8356  0.9266
18839TIP3    H278009   1.538   0.722   0.509  2.1260  1.0117  0.3153
18840TIP3   OH278010   3.860   5.771   3.527  0.7505 -0.1249  0.1076
18840TIP3    H178011   3.939   5.732   3.489  2.0342  1.6743  0.7775
18840TIP3    H278012   3.851   5.728   3.612  0.9507 -0.4181 -0.0159
18841TIP3   OH278013   4.462   3.221  14.543  0.0370  0.1618  0.0275
18841TIP3    H178014   4.440   3.152  14.480  0.2577  0.2515 -0.1510
18841TIP3    H278015   4.442   3.182  14.628 -1.1083  0.3548 -0.1354
18842TIP3   OH278016   2.099   1.574  15.700  0.3131  0.1612  0.0933
18842TIP3    H178017   2.027   1.618  15.655  0.6368  0.1795 -0.4149
18842TIP3    H278018   2.067   1.560  15.788  0.2063  1.4456  0.2832
18843TIP3   OH278019   4.485   2.360   0.267  0.0114 -0.4309  0.2864
18843TIP3    H178020   4.479   2.275   0.311  1.1310 -0.8873 -0.4035
18843TIP3    H278021   4.567   2.397   0.299  0.2730 -0.2779 -0.5534
18844TIP3   OH278022   3.475   4.549  17.052  0.0074 -0.0773 -0.0504
18844TIP3    H178023   3.420   4.564  17.130 -1.6523 -0.6953 -1.0624
18844TIP3    H278024   3.514   4.463  17.066  0.0292 -0.0156  0.2775
18845TIP3   OH278025   6.257   0.796   3.335 -0.1029  0.2135  0.1530
18845TIP3    H178026   6.315   0.835   3.401 -1.1768 -0.2893  1.4573
18845TIP3    H278027   6.168   0.818   3.365 -0.6332 -0.3865 -0.9068
18846TIP3   OH278028   2.136   4.128   2.785 -0.0946 -0.3841  0.3910
18846TIP3    H178029   2.180   4.200   2.832  1.2817  0.8245 -2.5117
18846TIP3    H278030   2.076   4.091   2.850  0.0007  2.6028  2.4030
18847TIP3   OH278031   6.501   4.992   3.093  0.2014 -0.0701 -0.3081
18847TIP3    H178032   6.444   4.959   3.163 -0.4607 -1.8187 -1.6018
18847TIP3    H278033   6.581   5.017   3.138 -0.9073  0.7786  1.3333
18848TIP3   OH278034   3.737   0.422   1.761 -0.1167  0.5352 -0.2393
18848TIP3    H178035   3.826   0.390   1.776 -0.0598 -0.0299 -1.6273
18848TIP3    H278036   3.687   0.344   1.738 -0.5529  1.0889 -1.2427
18849TIP3   OH278037   0.290   5.386  14.173  0.6221  0.0092  0.8585
18849TIP3    H178038   0.297   5.481  14.175  0.0209  0.0526  1.4868
18849TIP3    H278039   0.373   5.354  14.209  1.1217  0.2745 -0.0478
18850TIP3   OH278040   5.401   1.623  10.724  0.2698 -0.1375  0.6791
18850TIP3    H178041   5.353   1.642  10.643 -1.5264  1.3147  2.0011
18850TIP3    H278042   5.459   1.698  10.735  0.1310 -0.0744  0.9912
18851TIP3   OH278043   0.034   0.369  14.204 -0.2090  0.0835 -0.3988
18851TIP3    H178044   0.114   0.392  14.155 -1.9885  4.7972 -1.6609
18851TIP3    H278045   0.044   0.414  14.288 -1.8690  1.6850 -0.9977
18852TIP3   OH278046   0.022   0.092   5.249 -0.3536  0.2783 -0.0050
18852TIP3    H178047   0.079   0.071   5.323 -0.6869 -0.5139  0.0415
18852TIP3    H278048   0.026   0.187   5.242  1.2836  0.2142 -0.2646
18853TIP3   OH278049   0.698   0.961   0.519 -0.4429  0.1739 -0.5514
18853TIP3    H178050   0.717   0.867   0.509  0.4750  0.1718  1.0298
18853TIP3    H278051   0.753   0.989   0.592 -0.9293  1.8942 -0.8190
18854TIP3   OH278052   4.305   4.984  10.578 -0.1299  0.2814 -0.0413
18854TIP3    H178053   4.377   4.921  10.583  0.2626  0.6009 -1.4571
18854TIP3    H278054   4.239   4.948  10.637  1.5568  0.5251  2.1541
18855TIP3   OH278055   4.842   5.792   2.317  0.0137  0.4990  0.0517
18855TIP3    H178056   4.798   5.877   2.312 -1.6831 -0.3743 -0.2686
18855TIP3    H278057   4.835   5.755   2.229  1.7131  0.4601 -0.1067
18856TIP3   OH278058   5.601   0.568   2.228  0.0977 -0.1537  0.2262
18856TIP3    H178059   5.516   0.606   2.206  0.3771  0.3505 -0.0067
18856TIP3    H278060   5.660   0.601   2.161  0.2074 -1.6303 -0.4525
18857TIP3   OH278061   2.908   2.685   3.425  0.3798  0.4565  0.0031
18857TIP3    H178062   2.859   2.607   3.452 -0.3244  1.1908  0.9275
18857TIP3    H278063   2.960   2.656   3.350  1.0250 -1.2020  1.0362
18858TIP3   OH278064   5.419   6.647   1.226 -0.7982  0.1494  0.4016
18858TIP3    H178065   5.424   6.558   1.261 -1.1474 -0.4293 -0.9767
18858TIP3    H278066   5.348   6.688   1.275 -1.1874 -0.6017  0.4773
18859TIP3   OH278067   3.858   5.070  15.053 -0.1811 -0.4721  0.5755
18859TIP3    H178068   3.795   4.999  15.059  0.3021 -1.0476 -0.8711
18859TIP3    H278069   3.826   5.126  14.982 -0.4190  0.6405  1.5220
18860TIP3   OH278070   2.696   2.469   3.986  0.3235 -0.1518  0.1716
18860TIP3    H178071   2.786   2.467   4.018  0.8869 -0.7763 -1.3459
18860TIP3    H278072   2.703   2.446   3.893 -1.3885 -0.0780 -0.0108
18861TIP3   OH278073   0.465   3.884   1.093  0.1054  0.3420 -0.4333
18861TIP3    H178074   0.526   3.915   1.026 -1.3418  1.5540 -1.2509
18861TIP3    H278075   0.398   3.952   1.098 -1.7774 -1.4194 -0.3518
18862TIP3   OH278076   3.325   5.290   3.735 -0.1744  0.2339 -0.7687
18862TIP3    H178077   3.309   5.287   3.829 -3.0306 -0.5502 -1.1650
18862TIP3    H278078   3.331   5.383   3.714  2.1774  0.3908  0.3545
18863TIP3   OH278079   6.391   0.957  16.070 -0.0504 -0.6402  0.5533
18863TIP3    H178080   6.316   1.002  16.030 -0.4606  0.1067  2.0547
18863TIP3    H278081   6.419   0.894  16.005 -0.6648  0.5123 -0.8921
18864TIP3   OH278082   3.940   1.470  15.620 -0.3380 -0.3622 -0.0475
18864TIP3    H178083   3.887   1.452  15.542 -0.2084 -0.5510 -0.0916
18864TIP3    H278084   4.030   1.450  15.593  0.2666  2.9930 -1.0430
18865TIP3   OH278085   6.169   0.012   1.174 -0.5134 -0.4456  0.0010
18865TIP3    H178086   6.095   0.056   1.216 -0.9308 -1.3806  0.2878
18865TIP3    H278087   6.163   0.037   1.082 -0.6234  0.2438  0.1930
18866TIP3   OH278088   2.860   3.584  13.265  0.4170  0.1126  0.5376
18866TIP3    H178089   2.855   3.609  13.357 -0.0204  1.8609  0.0839
18866TIP3    H278090   2.951   3.600  13.240  0.4193  0.1287  0.5561
18867TIP3   OH278091   6.475   3.792   3.116  0.4409 -0.0631  0.7131
18867TIP3    H178092   6.486   3.846   3.195  1.3041  2.3709 -0.9671
18867TIP3    H278093   6.564   3.770   3.089  0.1331 -1.2910  0.6308
18868TIP3   OH278094   0.715   4.913   3.668 -0.4765  0.1830 -0.2091
18868TIP3    H178095   0.729   4.987   3.608  1.2480 -0.8904 -1.2251
18868TIP3    H278096   0.707   4.837   3.610  2.3053 -1.0514  0.8670
18869TIP3   OH278097   2.134   6.446   2.650 -0.0658  0.3477  0.1519
18869TIP3    H178098   2.190   6.510   2.693  0.3212 -0.8809  1.5338
18869TIP3    H278099   2.074   6.417   2.719 -0.8064 -0.1425 -0.6805
18870TIP3   OH278100   1.514   4.889   3.265  0.6748  0.3976  0.9729
18870TIP3    H178101   1.539   4.982   3.264  1.1227  0.2960 -0.5747
18870TIP3    H278102   1.590   4.843   3.230 -0.8913 -0.1032 -2.1673
18871TIP3   OH278103   5.932   6.121  14.077  0.0353 -0.6689 -0.9711
18871TIP3    H178104   5.893   6.066  14.145  1.2107 -1.4148 -0.8748
18871TIP3    H278105   6.021   6.089  14.069  1.0075  1.7021 -0.3897
18872TIP3   OH278106   5.502   5.232  13.988  0.0551 -0.0412  0.1266
18872TIP3    H178107   5.531   5.140  13.982  2.2098  0.6165 -0.5578
18872TIP3    H278108   5.491   5.247  14.081  1.4904 -0.5351  0.4152
18873TIP3   OH278109   1.120   6.144  12.835 -0.7828 -0.2765 -0.0157
18873TIP3    H178110   1.120   6.061  12.883  0.7797 -0.6169 -0.5607
18873TIP3    H278111   1.105   6.210  12.903  1.0577 -0.7775  0.9531
18874TIP3   OH278112   3.318   3.291  13.723 -0.0329  0.5575  0.3322
18874TIP3    H178113   3.392   3.232  13.736  0.1755  0.7255 -0.0578
18874TIP3    H278114   3.243   3.244  13.758  0.1043 -0.0131 -0.1149
18875TIP3   OH278115   4.331   1.080   3.950 -0.2255 -0.5016 -0.2198
18875TIP3    H178116   4.258   1.100   4.009 -0.7207 -1.2063 -0.5857
18875TIP3    H278117   4.341   0.985   3.954  1.2697 -0.3525  0.5104
18876TIP3   OH278118   3.880   4.675  14.995 -0.3841 -0.2730 -0.0108
18876TIP3    H178119   3.865   4.582  15.012 -1.0377  0.2691  2.7605
18876TIP3    H278120   3.948   4.701  15.057  0.1884  1.0317 -1.1084
18877TIP3   OH278121   1.916   2.855   5.762  0.0024  0.3640  0.3844
18877TIP3    H178122   1.976   2.784   5.738 -0.6263  0.1206 -0.5269
18877TIP3    H278123   1.970   2.933   5.764  0.4296  0.0807 -0.0156
18878TIP3   OH278124   4.754   2.431   5.993  0.4773  0.6064  0.1768
18878TIP3    H178125   4.664   2.401   5.979  0.8650 -0.1947 -0.7173
18878TIP3    H278126   4.747   2.497   6.062 -0.8933  1.1439 -0.4497
18879TIP3   OH278127   4.339   4.392   4.905  0.3464  0.0762  0.4944
18879TIP3    H178128   4.417   4.360   4.860  0.3060 -0.8100  1.0315
18879TIP3    H278129   4.330   4.335   4.981  0.4215  1.5338  1.6498
18880TIP3   OH278130   1.017   6.058   5.228 -0.2283 -0.2506 -0.3305
18880TIP3    H178131   1.079   6.121   5.192 -1.1171  0.2019 -1.1247
18880TIP3    H278132   1.057   5.973   5.210 -0.1370  0.0061 -1.4721
18881TIP3   OH278133   2.359   3.304  14.939 -0.4388  0.4964  0.1574
18881TIP3    H178134   2.290   3.246  14.970 -1.0309  1.6197  1.0437
18881TIP3    H278135   2.316   3.389  14.929  0.8319  1.2690  0.9192
18882TIP3   OH278136   6.009   5.302   2.806 -0.1294 -0.2774  0.1650
18882TIP3    H178137   5.987   5.256   2.887 -0.9640 -0.5529 -0.2052
18882TIP3    H278138   5.929   5.296   2.753 -0.2325  1.5119  0.0566
18883TIP3   OH278139   6.147   2.122  12.699 -0.3038  0.5305 -0.2693
18883TIP3    H178140   6.062   2.163  12.685  0.1819  1.5124 -0.4698
18883TIP3    H278141   6.151   2.108  12.794 -0.1684  1.6788 -0.0971
18884TIP3   OH278142   3.785   3.373   3.854 -0.6894  0.2479 -0.6909
18884TIP3    H178143   3.695   3.394   3.878 -0.7050  0.7891 -1.2218
18884TIP3    H278144   3.832   3.370   3.938 -1.8604 -3.4593  0.0410
18885TIP3   OH278145   3.221   4.586  15.710 -0.1849 -0.6174 -0.1777
18885TIP3    H178146   3.183   4.605  15.624 -2.2251 -2.5923  0.1908
18885TIP3    H278147   3.181   4.651  15.768  0.4933  0.1415 -0.5440
18886TIP3   OH278148   5.613   0.593   2.722 -0.2434  0.4917  0.3693
18886TIP3    H178149   5.528   0.598   2.678 -0.4863 -1.4462  0.5386
18886TIP3    H278150   5.675   0.570   2.654 -0.0316  0.8386  0.4421
18887TIP3   OH278151   5.628   5.107  12.359 -0.1415 -0.0191  0.0100
18887TIP3    H178152   5.707   5.138  12.316  1.4928 -2.6862  0.8709
18887TIP3    H278153   5.641   5.127  12.452 -0.3039 -0.7802  0.2043
18888TIP3   OH278154   5.385   4.593   4.190 -0.0336  0.4753 -0.9267
18888TIP3    H178155   5.341   4.654   4.250  0.8006  1.4618 -1.2811
18888TIP3    H278156   5.467   4.637   4.169  0.6944 -0.8945 -1.0224
18889TIP3   OH278157   2.928   5.362   1.077 -0.2580 -0.0188 -0.2988
18889TIP3    H178158   2.922   5.321   0.991 -2.2775 -0.3381 -0.0619
18889TIP3    H278159   2.909   5.454   1.062 -0.9129 -0.1286 -0.1703
18890TIP3   OH278160   3.710   5.658  14.951 -0.4840 -0.4721 -0.4492
18890TIP3    H178161   3.668   5.691  14.872 -0.7197 -0.2554 -0.2379
18890TIP3    H278162   3.650   5.592  14.985 -0.6437 -0.1872 -0.1659
18891TIP3   OH278163   6.339   1.919  12.640 -0.2462 -0.6094  0.0989
18891TIP3    H178164   6.279   1.993  12.653  0.1982 -0.1787 -0.2780
18891TIP3    H278165   6.426   1.956  12.658 -0.0995 -1.2670  0.7929
18892TIP3   OH278166   6.652   5.719   5.259  0.1563 -0.3416  0.3194
18892TIP3    H178167   6.644   5.659   5.184 -0.6835  1.5291 -1.1742
18892TIP3    H278168   6.570   5.707   5.307  0.2328 -0.7948  0.3396
18893TIP3   OH278169   6.125   1.515   3.460 -0.0875 -0.2205  0.7701
18893TIP3    H178170   6.123   1.444   3.525 -0.2120  0.1608  1.1903
18893TIP3    H278171   6.151   1.592   3.511 -2.6448  0.6512  0.9041
18894TIP3   OH278172   2.626   5.564  14.562 -0.0077 -0.3615 -0.4067
18894TIP3    H178173   2.532   5.578  14.558  0.0833  0.2013 -0.7602
18894TIP3    H278174   2.661   5.620  14.493  0.4102 -2.2049 -1.7937
18895TIP3   OH278175   6.597   2.245   2.471  0.3387 -0.2544  0.3296
18895TIP3    H178176   6.686   2.276   2.459  0.7614 -0.7139  2.0432
18895TIP3    H278177   6.564   2.231   2.382  1.6753  0.6898 -0.3458
18896TIP3   OH278178   6.383   5.673  17.006 -0.1102  0.0107  0.0284
18896TIP3    H178179   6.461   5.652  17.058 -0.7666 -0.6176  0.7911
18896TIP3    H278180   6.315   5.614  17.040 -1.0496  0.8889 -0.2805
18897TIP3   OH278181   5.848   2.737  10.993 -0.5182  0.4637 -0.0100
18897TIP3    H178182   5.808   2.664  10.947 -0.1313 -0.3701  0.9371
18897TIP3    H278183   5.923   2.761  10.939 -1.1374  0.7312 -0.7630
18898TIP3   OH278184   3.453   4.173   0.057 -0.3734 -0.1692  0.3656
18898TIP3    H178185   3.394   4.100   0.043 -1.3613 -0.2143  3.8581
18898TIP3    H278186   3.535   4.133   0.085  0.1170  0.0160 -0.7505
18899TIP3   OH278187   1.305   4.931  14.099  0.2524 -0.1069  0.1847
18899TIP3    H178188   1.304   4.990  14.175 -1.0915 -0.0595  0.1608
18899TIP3    H278189   1.244   4.971  14.037  0.7710 -0.5392 -0.6175
18900TIP3   OH278190   2.184   6.261  15.880 -0.1387  0.5353 -0.1866
18900TIP3    H178191   2.148   6.342  15.917  0.1726  1.1972 -1.2902
18900TIP3    H278192   2.149   6.192  15.936 -2.5972  1.2035 -0.7675
18901TIP3   OH278193   4.083   4.425   1.984 -0.5731  0.3204  0.3553
18901TIP3    H178194   4.148   4.424   1.913 -1.6866 -1.2647 -0.7111
18901TIP3    H278195   4.129   4.386   2.058  0.3941  1.3534  0.3227
18902TIP3   OH278196   2.992   0.892  12.355  0.6516  0.6037 -0.3378
18902TIP3    H178197   3.070   0.888  12.411  0.3096  0.0781  0.1157
18902TIP3    H278198   2.995   0.810  12.305 -0.4616 -0.2064  0.8574
18903TIP3   OH278199   1.263   2.950   4.248  0.0802 -0.8053  0.3424
18903TIP3    H178200   1.302   2.870   4.283 -0.2721 -0.5255  1.3915
18903TIP3    H278201   1.238   3.001   4.325 -0.9825 -0.3074 -0.3003
18904TIP3   OH278202   0.041   2.676  15.356 -0.5803 -0.0315 -0.3805
18904TIP3    H178203  -0.005   2.756  15.383  0.2359  0.2930  0.0882
18904TIP3    H278204   0.122   2.707  15.317 -0.2848 -0.6306 -0.2552
18905TIP3   OH278205   2.125   5.054  12.277  0.4054 -0.1517 -0.5485
18905TIP3    H178206   2.114   5.149  12.270 -1.1017 -0.1829  0.9315
18905TIP3    H278207   2.219   5.040  12.265  0.7214  1.5634 -0.3257
18906TIP3   OH278208   2.262   0.857  15.149 -0.4317 -0.2083  0.3043
18906TIP3    H178209   2.243   0.925  15.084  1.4463  0.5482  0.4777
18906TIP3    H278210   2.196   0.871  15.217 -0.2286  1.3199  0.2379
18907TIP3   OH278211   2.833   5.062   1.146  0.0109 -0.1477 -0.1095
18907TIP3    H178212   2.832   5.094   1.236 -0.5032 -0.8453  0.1384
18907TIP3    H278213   2.925   5.064   1.121  0.0674  0.9340  0.1045
18908TIP3   OH278214   5.229   6.316   4.935 -0.1730  0.1587 -0.3146
18908TIP3    H178215   5.214   6.362   5.017  0.2696  1.3200 -0.8655
18908TIP3    H278216   5.156   6.342   4.879 -0.9088 -1.2520 -0.0509
18909TIP3   OH278217   2.423   5.141  11.034 -0.6470  0.0688  0.3145
18909TIP3    H178218   2.374   5.072  10.989  0.7160 -0.5786 -0.2316
18909TIP3    H278219   2.412   5.121  11.127  0.0841 -1.1694  0.1600
18910TIP3   OH278220   5.271   2.988   3.945  1.3350  0.8585  0.0127
18910TIP3    H178221   5.329   3.063   3.955  0.2253  1.6150  1.0195
18910TIP3    H278222   5.255   2.957   4.034  0.1369  0.7339 -0.2225
18911TIP3   OH278223   2.847   4.539  13.981 -0.1560  0.2098 -0.1281
18911TIP3    H178224   2.826   4.614  14.038  1.9069 -0.5245  1.7204
18911TIP3    H278225   2.770   4.482  13.988 -0.5385  0.8043  0.7891
18912TIP3   OH278226   3.605   0.898  11.974  0.2603  0.1100 -0.0364
18912TIP3    H178227   3.666   0.866  11.907 -1.2722 -1.2932 -0.8534
18912TIP3    H278228   3.581   0.819  12.023 -0.2985  0.7638  0.7596
18913TIP3   OH278229   6.644   1.349   2.399  0.2693 -0.6773 -0.2844
18913TIP3    H178230   6.619   1.333   2.308 -1.6541 -0.2396  0.1278
18913TIP3    H278231   6.735   1.321   2.403 -0.1062 -2.4008 -1.9107
18914TIP3   OH278232   6.125   3.252  15.116 -0.2981 -0.4707 -0.1774
18914TIP3    H178233   6.199   3.193  15.099 -1.1208 -1.4774 -0.3811
18914TIP3    H278234   6.063   3.200  15.167  0.5392  1.3867  3.0360
18915TIP3   OH278235   1.566   3.131   1.305  0.1750  0.3387 -0.6544
18915TIP3    H178236   1.648   3.083   1.288  0.4695  0.6133 -0.0477
18915TIP3    H278237   1.570   3.207   1.247 -0.0952 -0.1463 -1.3122
18916TIP3   OH278238   2.387   6.170   5.300  0.1423  0.4821 -0.4155
18916TIP3    H178239   2.410   6.078   5.305 -2.1315 -0.1293  0.1646
18916TIP3    H278240   2.328   6.176   5.225 -2.2936  0.7543  1.3968
18917TIP3   OH278241   0.224   1.167  17.095 -0.3454 -0.0945  0.3665
18917TIP3    H178242   0.314   1.143  17.074  0.4411  0.1889  3.1248
18917TIP3    H278243   0.202   1.234  17.031  2.2188  1.4603  0.9801
18918TIP3   OH278244   0.787   1.821  11.076 -0.6811  0.3403  0.6316
18918TIP3    H178245   0.865   1.834  11.023  0.0549 -0.3983  1.4951
18918TIP3    H278246   0.714   1.840  11.017  0.1112 -0.1096 -0.5364
18919TIP3   OH278247   0.470   2.207   5.473  0.8950 -0.0351 -0.6068
18919TIP3    H178248   0.487   2.133   5.532 -0.4064 -0.9850 -1.3706
18919TIP3    H278249   0.555   2.224   5.432  1.2827 -0.9173 -0.2156
18920TIP3   OH278250   3.493   0.270  13.253 -0.4978  0.3284  0.1640
18920TIP3    H178251   3.458   0.265  13.342  1.5594 -3.0276  0.9609
18920TIP3    H278252   3.420   0.301  13.200 -1.5608  3.3052  3.0423
18921TIP3   OH278253   0.755   4.464  15.343 -0.5058  0.0280 -0.6130
18921TIP3    H178254   0.694   4.457  15.416  0.8139  2.7141  0.8731
18921TIP3    H278255   0.705   4.509  15.275 -0.7603  0.5041 -0.1199
18922TIP3   OH278256   0.007   6.792   5.750 -0.1195 -0.1655  0.1325
18922TIP3    H178257  -0.034   6.752   5.826 -0.1011  0.7879  0.6594
18922TIP3    H278258  -0.049   6.867   5.730  1.6177  1.4805  1.1896
18923TIP3   OH278259   1.701   1.444   4.645 -0.2311  0.4294 -0.4817
18923TIP3    H178260   1.733   1.370   4.594 -0.7744 -0.7424  0.8022
18923TIP3    H278261   1.642   1.405   4.710 -1.7057  2.1593 -0.7023
18924TIP3   OH278262   0.802   6.151   5.398 -0.8582 -0.0756 -0.0809
18924TIP3    H178263   0.861   6.093   5.349 -0.7565 -1.2424  1.3488
18924TIP3    H278264   0.717   6.108   5.393 -1.3226  0.9254 -1.0296
18925TIP3   OH278265   3.447   6.103   1.734  0.0079 -0.3380  0.3406
18925TIP3    H178266   3.355   6.124   1.753  0.3524  0.0868  1.6110
18925TIP3    H278267   3.497   6.162   1.790  1.1050  0.6323 -1.5716
18926TIP3   OH278268   5.053   0.442  15.899  0.1319  0.0885  0.5821
18926TIP3    H178269   5.100   0.362  15.925  0.5083 -0.4744 -1.5903
18926TIP3    H278270   5.118   0.493  15.850 -0.4971  1.0719  0.7478
18927TIP3   OH278271   5.322   1.619   2.027  0.1007  0.1116 -0.2358
18927TIP3    H178272   5.258   1.591   1.962  1.0789  0.0851 -1.2141
18927TIP3    H278273   5.295   1.707   2.052 -0.5452 -0.0564 -0.3270
18928TIP3   OH278274   5.751   5.779  15.198 -0.9653  0.5389 -0.1586
18928TIP3    H178275   5.772   5.694  15.237 -0.0945  1.1804  0.8383
18928TIP3    H278276   5.754   5.840  15.272 -0.0348  1.6732 -1.1023
18929TIP3   OH278277   2.909   3.918  14.820  0.4851 -0.0160 -0.3167
18929TIP3    H178278   2.993   3.954  14.848  0.2712  0.4107 -0.2126
18929TIP3    H278279   2.931   3.845  14.763  0.9384 -0.8499  0.8863
18930TIP3   OH278280   1.617   3.554  11.590  0.5786  0.2190 -0.0432
18930TIP3    H178281   1.702   3.509  11.583  0.4570  0.0916 -0.7337
18930TIP3    H278282   1.640   3.646  11.604  0.8285  0.0920  0.4075
18931TIP3   OH278283   3.285   4.260  14.523  0.5393 -0.3898  0.3767
18931TIP3    H178284   3.190   4.260  14.517  0.5919  0.6067 -1.0187
18931TIP3    H278285   3.304   4.289  14.612 -0.4451 -0.6349  0.6821
18932TIP3   OH278286   2.363   0.166  13.589 -0.0037 -0.6922  0.5646
18932TIP3    H178287   2.300   0.149  13.520 -0.3667 -0.4398  0.8253
18932TIP3    H278288   2.324   0.128  13.668  0.4712 -1.1075  0.6066
18933TIP3   OH278289   0.901   0.300   3.312  0.1211  0.2170 -0.1357
18933TIP3    H178290   0.859   0.227   3.360  0.6950  1.4595  2.4613
18933TIP3    H278291   0.983   0.315   3.359 -0.5145  3.2634  0.2211
18934TIP3   OH278292   2.173   3.082  15.013  0.0744 -0.7187  0.0485
18934TIP3    H178293   2.125   3.043  14.941  0.1952 -0.3867 -0.2167
18934TIP3    H278294   2.152   3.028  15.089  1.7931 -2.5441 -0.6714
18935TIP3   OH278295   5.458   4.102  14.733  0.1449 -0.1926  0.1555
18935TIP3    H178296   5.365   4.080  14.729  0.2138 -0.2527 -2.1888
18935TIP3    H278297   5.499   4.045  14.668  1.6589  0.6402  0.3334
18936TIP3   OH278298   5.572   5.210   4.654 -0.3474 -0.1725 -0.1173
18936TIP3    H178299   5.637   5.204   4.584  0.4056  1.2337  0.4174
18936TIP3    H278300   5.500   5.259   4.615  0.1321  0.7353  0.1105
18937TIP3   OH278301   4.834   1.199  16.427  0.6166 -0.0502  0.1997
18937TIP3    H178302   4.761   1.139  16.445  0.1556  0.3159 -0.4359
18937TIP3    H278303   4.876   1.211  16.513  1.0925 -1.7427  0.2607
18938TIP3   OH278304   1.022   3.292   5.481  0.2175  0.4591  0.7157
18938TIP3    H178305   1.028   3.309   5.575  0.9418  0.4373  0.6750
18938TIP3    H278306   0.938   3.332   5.455 -0.0649  0.3197  1.3957
18939TIP3   OH278307   3.860   2.058   0.453 -0.4661 -0.1033  0.6708
18939TIP3    H178308   3.874   2.090   0.364  1.3055 -0.0506  0.9316
18939TIP3    H278309   3.768   2.076   0.470 -0.3318  1.9109 -0.3550
18940TIP3   OH278310   1.500   1.627   0.595 -0.3662 -0.1648  0.0329
18940TIP3    H178311   1.526   1.535   0.589  0.0868  0.0392 -1.6402
18940TIP3    H278312   1.409   1.627   0.566 -0.6089 -0.1754  0.7784
18941TIP3   OH278313   2.977   5.114   3.423 -0.1686 -0.6381 -0.4506
18941TIP3    H178314   2.941   5.040   3.374 -0.1124 -0.0224 -1.4586
18941TIP3    H278315   3.071   5.112   3.405 -0.2583  0.0769 -1.0608
18942TIP3   OH278316   6.613   5.443  17.117  0.2577  0.2533 -0.5922
18942TIP3    H178317   6.652   5.358  17.139 -1.3961 -0.3371  0.2094
18942TIP3    H278318   6.666   5.507  17.165  0.6029 -0.4675  0.0070
18943TIP3   OH278319   0.478   2.825  16.889  0.2127 -0.5668 -0.0792
18943TIP3    H178320   0.469   2.908  16.842  2.7204 -1.2624 -2.0014
18943TIP3    H278321   0.411   2.829  16.958 -0.4800  2.5444 -0.7821
18944TIP3   OH278322   1.188   0.396  15.679  0.1529 -0.0893  0.5734
18944TIP3    H178323   1.229   0.325  15.728  0.7035 -1.3175 -1.5744
18944TIP3    H278324   1.226   0.391  15.592 -0.7727  2.0472 -0.0308
18945TIP3   OH278325   3.675   4.456  11.426  0.2193 -0.3711 -0.4000
18945TIP3    H178326   3.606   4.397  11.395 -1.3159  0.2712  1.5736
18945TIP3    H278327   3.684   4.520  11.355 -0.9863 -0.6522 -0.8362
18946TIP3   OH278328   3.386   2.436   5.475  0.0937  0.1914  0.2576
18946TIP3    H178329   3.358   2.349   5.446  0.8372  0.3236 -0.9381
18946TIP3    H278330   3.363   2.493   5.402  0.8221  0.7727  0.4784
18947TIP3   OH278331   6.797   0.152   4.203 -0.2754 -0.0939 -0.5932
18947TIP3    H178332   6.888   0.171   4.227 -0.3690  1.2055 -1.1971
18947TIP3    H278333   6.803   0.090   4.131  0.1516  0.2988 -0.8999
18948TIP3   OH278334   0.568   0.081   6.455  0.1029  0.6091  0.0705
18948TIP3    H178335   0.497   0.122   6.503  0.2619  0.2642  0.6139
18948TIP3    H278336   0.627   0.153   6.433  0.5188  0.6466  1.2489
18949TIP3   OH278337   2.165   3.807  16.733  0.2229 -0.1008 -0.3411
18949TIP3    H178338   2.210   3.840  16.811  1.1428 -0.0004 -0.8997
18949TIP3    H278339   2.137   3.885  16.687  0.8536 -0.1203 -0.7731
18950TIP3   OH278340   4.383   1.979   2.011 -0.0299  0.2201 -0.0592
18950TIP3    H178341   4.331   1.906   2.044  0.4986 -0.0959  0.0852
18950TIP3    H278342   4.449   1.939   1.956  1.0186  0.4600  0.9834
18951TIP3   OH278343   1.900   4.622  12.648 -0.3207 -0.0339  0.6031
18951TIP3    H178344   1.891   4.527  12.652  0.0777 -0.2044 -1.5029
18951TIP3    H278345   1.992   4.636  12.628 -0.2592  0.8407  1.4399
18952TIP3   OH278346   4.658   4.922  12.290  0.0833  0.0510 -0.1132
18952TIP3    H178347   4.740   4.958  12.257  0.2287 -0.4392 -0.2926
18952TIP3    H278348   4.601   4.998  12.302  0.6014  0.4059  0.1249
18953TIP3   OH278349   0.241   3.549   3.095 -0.5810  0.0065  0.0434
18953TIP3    H178350   0.336   3.538   3.096 -0.7513 -1.9667 -0.6560
18953TIP3    H278351   0.224   3.623   3.154  1.3255 -0.0826  0.7642
18954TIP3   OH278352   1.780   6.246   2.431  0.0219 -0.3205 -0.1412
18954TIP3    H178353   1.741   6.170   2.389 -0.8230  0.5997 -1.0829
18954TIP3    H278354   1.780   6.314   2.363  1.4704  0.3100  0.4297
18955TIP3   OH278355   4.713   1.636  12.472 -0.0695  0.0752  0.6809
18955TIP3    H178356   4.646   1.602  12.413 -1.6649 -0.9137  2.9205
18955TIP3    H278357   4.686   1.727  12.489 -0.3959 -0.0613  0.9173
18956TIP3   OH278358   1.705   5.179   3.639  0.1707  0.2952  0.4927
18956TIP3    H178359   1.754   5.128   3.703 -0.8203 -1.6262 -0.1992
18956TIP3    H278360   1.613   5.161   3.659 -0.1643 -0.1555 -1.2692
18957TIP3   OH278361   1.723   1.181   1.100  0.0512 -0.6877  0.3292
18957TIP3    H178362   1.758   1.257   1.054  1.3175 -0.2308  1.9540
18957TIP3    H278363   1.678   1.130   1.033 -1.0486  1.6152 -0.7520
18958TIP3   OH278364   1.862   1.446  16.490 -0.1599 -0.6147 -0.0987
18958TIP3    H178365   1.800   1.458  16.562 -2.2128 -4.0468 -1.0479
18958TIP3    H278366   1.806   1.431  16.413  1.9522  0.6457 -2.0075
18959TIP3   OH278367   1.319   6.729  13.609 -0.7127  0.0053  0.2156
18959TIP3    H178368   1.260   6.802  13.625 -0.8992 -0.0044 -0.4017
18959TIP3    H278369   1.306   6.707  13.516  0.0442 -0.1807  0.1455
18960TIP3   OH278370   4.723   2.623  13.224  0.0143 -0.1642 -0.7184
18960TIP3    H178371   4.696   2.534  13.200  1.1481 -0.6048 -0.4015
18960TIP3    H278372   4.770   2.612  13.307 -0.6614  0.8640 -0.1720
18961TIP3   OH278373   1.994   2.036   3.233  0.5660 -0.7336 -0.5891
18961TIP3    H178374   2.062   2.043   3.167  0.8644 -0.5458 -0.2641
18961TIP3    H278375   1.986   1.942   3.250 -1.0539 -1.0023 -2.4714
18962TIP3   OH278376   1.371   1.148   6.046 -0.5001  0.1327  0.1915
18962TIP3    H178377   1.379   1.053   6.054 -0.5275  0.1156  0.0118
18962TIP3    H278378   1.402   1.168   5.958  0.5812  0.4194  0.6222
18963TIP3   OH278379   6.489   1.824   2.616  0.4883  0.3648  0.2767
18963TIP3    H178380   6.534   1.742   2.599 -2.0076 -1.1691  0.4559
18963TIP3    H278381   6.458   1.816   2.707 -0.3601  1.1907  0.0828
18964TIP3   OH278382   1.267   5.271   3.342  0.6325 -0.5310 -0.0488
18964TIP3    H178383   1.307   5.186   3.325  0.4462 -0.3078 -1.7505
18964TIP3    H278384   1.271   5.317   3.258  0.0365  0.8504  0.6445
18965TIP3   OH278385   2.392   4.600  10.087 -0.1007  0.1342  0.1266
18965TIP3    H178386   2.453   4.592  10.161  0.6917  3.1903 -0.1008
18965TIP3    H278387   2.320   4.540  10.110  2.1439 -2.3841  1.1589
18966TIP3   OH278388   5.787   4.162  10.436  0.1893 -0.1153  0.0673
18966TIP3    H178389   5.855   4.155  10.369  0.1134  0.8169 -0.1215
18966TIP3    H278390   5.794   4.080  10.486  0.7586 -0.4802 -0.5917
18967TIP3   OH278391   1.005   4.931  11.841  0.1002  0.3205 -0.3768
18967TIP3    H178392   0.997   5.026  11.846  0.7749  0.3745 -0.1119
18967TIP3    H278393   1.041   4.906  11.926 -0.2569 -0.1957 -0.3730
18968TIP3   OH278394   1.888   3.582   0.475 -0.0364 -0.1024  0.1261
18968TIP3    H178395   1.814   3.520   0.474  0.1906 -0.3975  0.7182
18968TIP3    H278396   1.850   3.664   0.445 -0.1646 -0.7011 -1.4346
18969TIP3   OH278397   4.699   4.384   3.960 -0.0615 -0.0173 -0.0545
18969TIP3    H178398   4.777   4.385   4.016  0.3826 -2.5385 -0.4874
18969TIP3    H278399   4.729   4.422   3.877  0.2601  0.4662  0.2786
18970TIP3   OH278400   3.234   1.096  12.649 -0.4392 -0.5175 -0.1161
18970TIP3    H178401   3.230   1.085  12.744 -1.5524 -1.3873 -0.2439
18970TIP3    H278402   3.221   1.009  12.613  1.3745 -0.4487 -1.0883
18971TIP3   OH278403   4.965   4.153  14.946  0.4867  0.0094 -0.6176
18971TIP3    H178404   4.988   4.071  14.990  1.3661 -0.1079 -1.2845
18971TIP3    H278405   4.872   4.143  14.924  0.0201  0.0528  1.1457
18972TIP3   OH278406   4.729   4.535  13.632  0.0325  0.3549  0.4986
18972TIP3    H178407   4.653   4.592  13.649  0.2093  0.4753  0.9117
18972TIP3    H278408   4.702   4.450  13.666 -0.3440  0.1089 -0.3861
18973TIP3   OH278409   6.068   3.450   5.342  0.1617  0.0877  0.2264
18973TIP3    H178410   6.149   3.449   5.394 -0.2553 -1.4975  0.8960
18973TIP3    H278411   5.998   3.439   5.406 -0.7273  2.5732 -0.2198
18974TIP3   OH278412   5.786   2.764  15.691  0.3323 -0.5111 -0.1904
18974TIP3    H178413   5.761   2.747  15.781  2.3195 -1.7511  0.1925
18974TIP3    H278414   5.750   2.691  15.641 -0.4584 -0.0127 -0.3721
18975TIP3   OH278415   4.379   3.859  11.150  0.0499 -0.2960 -0.0340
18975TIP3    H178416   4.329   3.840  11.071  0.3575  0.9083 -0.5327
18975TIP3    H278417   4.449   3.794  11.151  1.7206  1.3633 -2.2496
18976TIP3   OH278418   5.220   0.642  11.932 -0.4513 -0.0979 -0.0224
18976TIP3    H178419   5.262   0.651  12.018 -1.7640 -1.3897  0.7893
18976TIP3    H278420   5.263   0.566  11.892 -0.3337  0.0745 -0.2271
18977TIP3   OH278421   1.663   3.613  15.435  0.3517 -1.2087 -0.1361
18977TIP3    H178422   1.679   3.561  15.356 -2.5777 -1.9031 -0.3718
18977TIP3    H278423   1.713   3.694  15.421  0.8304 -1.8005 -2.1543
18978TIP3   OH278424   4.448   5.040  11.840 -0.4368  0.1648 -0.6489
18978TIP3    H178425   4.478   5.090  11.916  0.0909  2.0659 -2.0061
18978TIP3    H278426   4.446   4.949  11.869  0.5052  0.7413  1.3777
18979TIP3   OH278427   5.098   0.614   5.697  0.2472  0.7918 -0.2864
18979TIP3    H178428   5.101   0.654   5.610  1.1930 -0.2217 -0.7327
18979TIP3    H278429   5.004   0.605   5.716  0.0332  0.7702 -1.3060
18980TIP3   OH278430   5.938   0.198  16.452  0.1345  0.0601  0.0247
18980TIP3    H178431   5.963   0.110  16.425  1.1009  0.1298  0.6337
18980TIP3    H278432   5.890   0.184  16.534 -0.6719  0.0296 -0.4427
18981TIP3   OH278433   3.355   5.628   4.971  0.1544  0.1592  0.6840
18981TIP3    H178434   3.290   5.693   4.943 -1.8444 -1.3191  1.6290
18981TIP3    H278435   3.436   5.655   4.928 -1.4682  1.0910 -2.0777
18982TIP3   OH278436   5.272   2.268   1.799  0.3808 -0.1973  0.3409
18982TIP3    H178437   5.330   2.295   1.728 -2.8498 -2.8966 -3.7792
18982TIP3    H278438   5.199   2.329   1.796 -1.1541 -1.9887 -0.7877
18983TIP3   OH278439   1.021   3.068  11.628 -0.3360  0.8585  0.3285
18983TIP3    H178440   1.071   3.139  11.669  0.3223  1.0768 -0.7990
18983TIP3    H278441   1.078   3.036  11.558 -0.8732 -0.3976  0.4407
18984TIP3   OH278442   0.779   2.297  12.530  0.3406  0.7213  0.1384
18984TIP3    H178443   0.855   2.352  12.548  0.1331  0.8946  0.4888
18984TIP3    H278444   0.707   2.358  12.518  0.2527  0.5566 -0.1823
18985TIP3   OH278445   6.296   2.556   6.587 -0.2854  0.4366 -0.4228
18985TIP3    H178446   6.340   2.571   6.504  0.8646 -0.8208 -0.0820
18985TIP3    H278447   6.239   2.481   6.570  0.3588 -0.1703  0.0460
18986TIP3   OH278448   3.115   0.805   2.971 -0.3323 -0.3312 -0.1084
18986TIP3    H178449   3.164   0.732   2.934 -1.0219 -0.9725  0.2037
18986TIP3    H278450   3.038   0.813   2.915 -0.1478  0.3199 -0.2802
18987TIP3   OH278451   2.755   6.476   0.847 -0.6639 -0.5977  0.3957
18987TIP3    H178452   2.820   6.478   0.918  1.4609  0.8752 -1.4512
18987TIP3    H278453   2.783   6.402   0.792  0.0158  0.5275 -0.8330
18988TIP3   OH278454   1.027   3.808  14.294 -0.3356 -0.0602  0.1406
18988TIP3    H178455   1.042   3.772  14.207  1.4440  2.5199 -0.7383
18988TIP3    H278456   0.933   3.800  14.307 -0.8437  0.5063 -2.5578
18989TIP3   OH278457   2.915   5.921   5.860  0.1546 -0.3835 -0.1025
18989TIP3    H178458   2.847   5.940   5.796  2.9332 -0.2668 -3.3466
18989TIP3    H278459   2.976   5.995   5.853  1.4483 -1.2501  1.3652
18990TIP3   OH278460   2.962   2.641  13.418 -0.2765  0.3798  0.3008
18990TIP3    H178461   3.014   2.585  13.476 -0.3854 -1.0743 -0.9586
18990TIP3    H278462   2.903   2.688  13.477 -4.0657 -4.7736  1.2769
18991TIP3   OH278463   1.816   2.291   1.547  1.0689 -0.1127  0.2264
18991TIP3    H178464   1.731   2.285   1.591  1.3406 -0.5252  0.7058
18991TIP3    H278465   1.811   2.228   1.476  0.9836 -0.1684  0.2814
18992TIP3   OH278466   3.223   0.099  15.211 -0.3530 -0.2095 -0.1094
18992TIP3    H178467   3.262   0.176  15.169  0.4675 -1.1942 -1.2215
18992TIP3    H278468   3.130   0.105  15.191 -0.1829  0.1119 -0.8474
18993TIP3   OH278469   3.582   2.610  16.766  0.2232 -0.4521 -0.2131
18993TIP3    H178470   3.489   2.603  16.787 -0.0918  0.2724 -1.2959
18993TIP3    H278471   3.626   2.609  16.851 -0.7275 -1.3501  0.2878
18994TIP3   OH278472   4.688   6.732  12.534 -0.2116 -0.2170  0.2266
18994TIP3    H178473   4.658   6.728  12.624  0.1296  3.0026  0.5907
18994TIP3    H278474   4.609   6.742  12.482 -0.2255  1.3778  0.5282
18995TIP3   OH278475   3.518   4.647  14.134 -0.4372 -0.3275  0.1296
18995TIP3    H178476   3.440   4.590  14.135 -0.9501  0.3476 -0.4186
18995TIP3    H278477   3.486   4.729  14.097  0.3975  0.1749  0.5283
18996TIP3   OH278478   1.348   1.334  16.649  1.0194 -0.0726 -0.0947
18996TIP3    H178479   1.318   1.296  16.731  3.8755 -1.6016  0.4017
18996TIP3    H278480   1.384   1.419  16.673  2.5933 -0.8494  0.4983
18997TIP3   OH278481   3.667   5.018   3.039 -0.0958 -0.5961 -0.4460
18997TIP3    H178482   3.640   4.984   3.124  2.5623 -1.6719  0.0910
18997TIP3    H278483   3.594   5.071   3.009 -0.6661  0.8970  3.0986
18998TIP3   OH278484   4.992   6.276   1.783 -0.0518 -0.0096 -0.0831
18998TIP3    H178485   5.054   6.330   1.832 -0.7462 -0.2037  1.0538
18998TIP3    H278486   5.023   6.187   1.797 -0.8911 -0.1558  0.9878
18999TIP3   OH278487   0.820   2.029   0.541 -0.5610 -0.3132  0.4138
18999TIP3    H178488   0.746   2.066   0.589  0.0063 -0.7957  1.7007
18999TIP3    H278489   0.827   2.083   0.462 -0.5268  1.5669  1.6428
19000TIP3   OH278490   5.309   2.157   5.832  0.6924 -0.8745 -0.1866
19000TIP3    H178491   5.316   2.168   5.926  1.3774 -0.6826 -0.2559
19000TIP3    H278492   5.378   2.211   5.795 -0.5824  0.3386 -0.8962
19001TIP3   OH278493   5.771   3.097  16.143  0.0347  0.2532  0.0748
19001TIP3    H178494   5.751   3.074  16.052  1.0326 -1.1507  0.1701
19001TIP3    H278495   5.851   3.049  16.162 -0.7149 -0.3069  2.0263
19002TIP3   OH278496   2.035   3.683   5.496  0.0396 -0.4203 -0.0679
19002TIP3    H178497   2.040   3.599   5.544 -2.0733  0.7285  2.3941
19002TIP3    H278498   2.055   3.749   5.562  2.6909  1.0947 -2.1850
19003TIP3   OH278499   0.794   3.390   6.382  0.3559  0.1069  0.2751
19003TIP3    H178500   0.878   3.435   6.391  0.8150 -0.6121 -0.3148
19003TIP3    H278501   0.816   3.306   6.342 -0.7399  0.2235 -0.6228
19004TIP3   OH278502   2.510   3.972  16.752 -0.3147 -0.0590  0.3528
19004TIP3    H178503   2.462   3.953  16.672 -0.3667 -1.2145  0.6427
19004TIP3    H278504   2.504   3.892  16.804  3.1786 -0.8601 -0.2163
19005TIP3   OH278505   2.613   2.681   6.024 -0.7051 -0.3388  0.5145
19005TIP3    H178506   2.703   2.659   6.045 -0.2872 -2.1689 -2.6213
19005TIP3    H278507   2.601   2.770   6.058  1.3872 -0.9950  3.2730
19006TIP3   OH278508   2.043   0.909  17.044  1.0686  0.4685  0.2438
19006TIP3    H178509   2.032   0.911  16.949  1.1057  1.2519  0.2495
19006TIP3    H278510   1.958   0.882  17.078  1.1004  0.0297 -0.0126
19007TIP3   OH278511   1.553   4.888   1.249  0.2126  0.1751  0.2553
19007TIP3    H178512   1.579   4.952   1.183 -1.2749 -0.4653 -1.0421
19007TIP3    H278513   1.464   4.915   1.274 -1.1343 -2.1682 -1.5233
19008TIP3   OH278514   6.806   0.526   1.630 -0.0794  0.3493  0.1323
19008TIP3    H178515   6.754   0.458   1.588 -0.5894  1.7659 -1.6349
19008TIP3    H278516   6.790   0.514   1.724 -1.5169 -0.8735 -0.2344
19009TIP3   OH278517   0.126   3.768   3.259  0.2870  0.2070  0.1031
19009TIP3    H178518   0.187   3.819   3.312 -1.2031  0.6116  1.5466
19009TIP3    H278519   0.040   3.805   3.281 -0.6466 -1.5541 -0.4099
19010TIP3   OH278520   4.552   0.648   5.747  0.1846 -0.3377  0.0050
19010TIP3    H178521   4.476   0.589   5.749 -0.7408  0.8360  0.5925
19010TIP3    H278522   4.561   0.677   5.837 -0.1428  1.3502 -0.4772
19011TIP3   OH278523   5.188   3.389   0.515 -0.2453 -0.0549 -0.2016
19011TIP3    H178524   5.282   3.408   0.509 -0.2282 -0.2092 -0.4478
19011TIP3    H278525   5.150   3.469   0.550 -0.1980  0.5013 -1.3760
19012TIP3   OH278526   6.342   0.863  16.932 -0.4721 -0.0580 -0.0365
19012TIP3    H178527   6.380   0.892  17.015 -0.1912 -1.3959  0.3307
19012TIP3    H278528   6.383   0.919  16.866 -2.5341  2.7253  0.8774
19013TIP3   OH278529   2.991   5.747  11.306 -0.2076  0.3800 -0.0927
19013TIP3    H178530   3.020   5.760  11.396  1.2953  0.8582 -0.6019
19013TIP3    H278531   2.993   5.834  11.267 -2.9459  0.5381 -0.0571
19014TIP3   OH278532   2.675   5.607   1.888 -0.3426  0.2780 -0.3022
19014TIP3    H178533   2.749   5.548   1.906 -0.2690  0.2111 -0.8185
19014TIP3    H278534   2.716   5.691   1.867 -0.3975  0.1293 -1.0117
19015TIP3   OH278535   6.476   3.818  11.772  0.0409 -0.1395 -0.3686
19015TIP3    H178536   6.553   3.847  11.722  0.4473 -0.2640  0.1663
19015TIP3    H278537   6.450   3.736  11.729  0.3104 -0.1808 -0.4603
19016TIP3   OH278538   2.081   6.532   1.712  0.2067  0.3044  0.0096
19016TIP3    H178539   2.073   6.606   1.652 -2.0157 -0.2636 -0.5149
19016TIP3    H278540   2.055   6.456   1.660  3.4610 -1.1241  0.2040
19017TIP3   OH278541   3.133   3.078   3.880 -1.1396 -0.4582 -0.1070
19017TIP3    H178542   3.128   3.128   3.799  0.4925  1.1930  0.7381
19017TIP3    H278543   3.073   3.005   3.867 -2.0544  0.5910 -2.1926
19018TIP3   OH278544   5.244   3.362   2.739  0.3596  0.0000  0.0087
19018TIP3    H178545   5.225   3.270   2.756  0.1280  0.3404  1.7694
19018TIP3    H278546   5.271   3.364   2.647 -0.1234 -1.7353 -0.2163
19019TIP3   OH278547   5.164   1.553   4.980  0.2749 -0.0314  0.2067
19019TIP3    H178548   5.137   1.594   5.062  0.8300  0.8165 -0.0111
19019TIP3    H278549   5.258   1.536   4.992 -0.2354 -2.9276  0.9614
19020TIP3   OH278550   4.330   3.177  15.528 -0.3331  0.3063 -0.0493
19020TIP3    H178551   4.414   3.222  15.541 -0.6940  1.2328 -0.8377
19020TIP3    H278552   4.283   3.231  15.465 -1.1675 -0.6918 -0.3143
19021TIP3   OH278553   0.961   0.624   2.346 -0.9533  0.2920 -0.3761
19021TIP3    H178554   0.980   0.551   2.404 -0.1612 -0.1414 -1.1477
19021TIP3    H278555   0.899   0.678   2.395 -0.7262 -0.3322  0.6392
19022TIP3   OH278556   6.638   6.550   2.865 -0.0523  0.0124 -0.2837
19022TIP3    H178557   6.591   6.505   2.935  0.8012  1.2168  1.0994
19022TIP3    H278558   6.729   6.523   2.875  0.0442 -0.0295 -1.1366
19023TIP3   OH278559   1.180   1.794  14.419 -0.7389 -0.3142 -0.1395
19023TIP3    H178560   1.232   1.773  14.341  2.3837  0.8053  1.4425
19023TIP3    H278561   1.101   1.834  14.386  0.9044  1.0235 -2.7511
19024TIP3   OH278562   4.703   4.272   4.623  0.6308  0.7105 -0.3884
19024TIP3    H178563   4.654   4.328   4.563  0.1133  0.2000 -0.4501
19024TIP3    H278564   4.686   4.183   4.593  0.4010  0.4491  0.4788
19025TIP3   OH278565   6.361   0.704   0.116  0.4731  0.3626  0.0809
19025TIP3    H178566   6.435   0.654   0.149 -0.3154  0.0354  1.4284
19025TIP3    H278567   6.330   0.755   0.191 -0.9117  0.1797 -0.3326
19026TIP3   OH278568   2.383   5.423  15.798 -0.4100 -0.3169  0.4384
19026TIP3    H178569   2.434   5.466  15.730 -1.7317  0.1827 -0.2542
19026TIP3    H278570   2.444   5.360  15.837  0.8775  0.5983 -0.0307
19027TIP3   OH278571   6.276   3.480   3.694 -0.1325 -0.5835  0.0479
19027TIP3    H178572   6.263   3.574   3.703 -0.9471 -0.6275 -0.5986
19027TIP3    H278573   6.270   3.463   3.600  1.5175 -1.0762  0.0027
19028TIP3   OH278574   0.132   5.399  11.445 -0.2012 -0.0441  0.1304
19028TIP3    H178575   0.169   5.472  11.494  0.2519  0.8253 -1.4300
19028TIP3    H278576   0.038   5.402  11.465 -0.6425  2.5763 -1.7801
19029TIP3   OH278577   6.751   2.456   6.145 -0.1188 -0.1466  0.5136
19029TIP3    H178578   6.731   2.538   6.101  2.5131 -0.3294 -1.2105
19029TIP3    H278579   6.846   2.455   6.154 -0.0290 -3.0378  0.3703
19030TIP3   OH278580   5.959   4.215  15.143 -0.6062  1.0845  0.2219
19030TIP3    H178581   5.887   4.239  15.085 -0.0028 -0.2330 -1.1401
19030TIP3    H278582   6.027   4.279  15.124 -0.8379  1.3629  0.3302
19031TIP3   OH278583   2.708   4.759   3.915  0.2837  0.2477 -0.5491
19031TIP3    H178584   2.747   4.745   4.001 -0.0243  1.4798 -0.2001
19031TIP3    H278585   2.774   4.726   3.854 -0.3512 -2.6911  0.1563
19032TIP3   OH278586   4.162   2.632  10.556 -0.4410 -0.7627  0.1748
19032TIP3    H178587   4.191   2.723  10.570 -1.8382 -0.2909  0.1773
19032TIP3    H278588   4.120   2.634  10.470 -1.0069 -1.2678  0.4379
19033TIP3   OH278589   6.415   2.088   5.839 -0.4423  0.0196  0.3172
19033TIP3    H178590   6.333   2.083   5.888  0.4272  0.8161  1.9313
19033TIP3    H278591   6.390   2.122   5.754 -1.6787  1.1045  1.0799
19034TIP3   OH278592   5.265   0.454  16.132 -0.0007  0.4078 -0.3099
19034TIP3    H178593   5.259   0.505  16.213  1.6997 -0.5316  0.4619
19034TIP3    H278594   5.218   0.506  16.067 -0.4975  1.6983  1.0340
19035TIP3   OH278595   0.167   0.783  14.480 -0.1114 -0.3937  0.1409
19035TIP3    H178596   0.221   0.748  14.551  0.5993 -2.2886 -1.2363
19035TIP3    H278597   0.109   0.846  14.523  1.8570  0.2835  1.9877
19036TIP3   OH278598   1.096   1.996   2.974 -0.3930  0.7053  0.1738
19036TIP3    H178599   1.183   2.002   2.935 -0.2624  0.0095  0.3478
19036TIP3    H278600   1.078   1.902   2.978 -1.1249  0.8433  0.1986
19037TIP3   OH278601   4.688   6.557   3.143 -0.2361 -0.2971 -0.4967
19037TIP3    H178602   4.644   6.640   3.126  0.1897 -0.4640 -2.6329
19037TIP3    H278603   4.638   6.518   3.215 -3.1846 -0.1877 -2.3328
19038TIP3   OH278604   2.376   3.008  15.760  0.0076 -0.1537  0.2610
19038TIP3    H178605   2.392   2.914  15.748  0.9137 -0.0550  0.6267
19038TIP3    H278606   2.363   3.019  15.854  4.2622  0.6482  0.9640
19039TIP3   OH278607   4.350   1.445   4.014 -0.2959  0.0030 -0.6440
19039TIP3    H178608   4.398   1.514   4.060 -0.7582  0.5074 -0.9111
19039TIP3    H278609   4.330   1.482   3.928 -1.4571 -0.0630 -0.4210
19040TIP3   OH278610   3.472   6.591  15.765 -0.2186 -0.2423  0.0658
19040TIP3    H178611   3.567   6.598  15.774 -0.0959  0.5522 -1.4845
19040TIP3    H278612   3.439   6.677  15.789 -0.3206  0.2076 -1.5720
19041TIP3   OH278613   5.742   0.030   1.689 -0.2924  0.1052 -0.4475
19041TIP3    H178614   5.687   0.076   1.626 -0.1053 -1.1548 -1.5810
19041TIP3    H278615   5.743  -0.061   1.658 -0.0948 -0.5361  1.3116
19042TIP3   OH278616   3.862   6.647  12.635 -0.1884 -0.0661 -0.4337
19042TIP3    H178617   3.921   6.670  12.564  1.2264 -0.9120  0.4232
19042TIP3    H278618   3.831   6.730  12.670  0.0193  0.3693 -1.2718
19043TIP3   OH278619   5.052   4.634  14.576 -0.0625  0.2790 -0.0779
19043TIP3    H178620   5.076   4.722  14.603  0.8789  0.1225 -0.3823
19043TIP3    H278621   5.063   4.581  14.656 -2.8142  0.7880  0.7454
19044TIP3   OH278622   1.938   5.488   5.363 -0.2785 -0.4435  0.0976
19044TIP3    H178623   1.977   5.468   5.448 -2.1344 -1.3181  0.8122
19044TIP3    H278624   2.010   5.522   5.310  1.1063 -0.7078  1.7389
19045TIP3   OH278625   0.290   4.622   1.967  0.0689  0.1218  0.2471
19045TIP3    H178626   0.292   4.551   2.031  0.6900  0.6455  0.8176
19045TIP3    H278627   0.290   4.578   1.882  1.9143 -0.5628  0.5681
19046TIP3   OH278628   3.636   1.532  13.368 -0.3567 -0.0775  0.4213
19046TIP3    H178629   3.579   1.569  13.435 -0.6698 -0.8964  0.6281
19046TIP3    H278630   3.685   1.463  13.414  0.1318  0.0030  0.0331
19047TIP3   OH278631   0.760   3.703   3.418 -0.2515 -0.4293 -0.0375
19047TIP3    H178632   0.853   3.684   3.429  0.1452  1.1933 -0.3416
19047TIP3    H278633   0.749   3.717   3.324 -0.7461 -0.2872  0.0377
19048TIP3   OH278634   3.058   5.669  14.757  0.1404  0.2712  0.1263
19048TIP3    H178635   3.043   5.681  14.663  2.4052  1.7417 -0.1392
19048TIP3    H278636   3.051   5.757  14.794  0.4158 -0.1127  1.1306
19049TIP3   OH278637   6.453   1.037   1.231  0.0874  0.0640  0.6217
19049TIP3    H178638   6.492   0.991   1.157  0.4407  1.4614 -0.0834
19049TIP3    H278639   6.362   1.007   1.233  0.1891 -0.3057 -0.0995
19050TIP3   OH278640   2.735   1.441   0.167  0.0973 -0.4977 -0.4572
19050TIP3    H178641   2.798   1.511   0.185 -2.1865  1.8278 -0.7885
19050TIP3    H278642   2.746   1.379   0.239  2.4837 -0.0167 -0.3400
19051TIP3   OH278643   0.418   2.543   0.887  0.0221  0.4472 -0.0113
19051TIP3    H178644   0.356   2.511   0.953 -0.7407  0.0854 -0.8958
19051TIP3    H278645   0.415   2.478   0.817  2.4288 -0.3284  0.4897
19052TIP3   OH278646   1.135   2.357  16.744  0.3327 -0.1448  0.7356
19052TIP3    H178647   1.100   2.393  16.662 -2.1230  0.2833  1.8585
19052TIP3    H278648   1.207   2.415  16.767 -0.4399  1.1518  0.0433
19053TIP3   OH278649   3.032   2.916   2.147  0.4923 -0.1437  0.0116
19053TIP3    H178650   2.965   2.950   2.207  2.0314 -1.3066  2.5914
19053TIP3    H278651   3.095   2.988   2.138 -0.2994  0.4230 -1.1835
19054TIP3   OH278652   4.014   0.178  13.332 -0.5612 -0.0877  0.1680
19054TIP3    H178653   3.978   0.265  13.348  0.4109  0.5700 -1.0238
19054TIP3    H278654   3.943   0.131  13.288 -0.5883  0.6297 -0.5962
19055TIP3   OH278655   0.713   3.265   1.645 -0.5023  0.5437  0.3811
19055TIP3    H178656   0.750   3.290   1.561 -0.8344  0.6575  0.2639
19055TIP3    H278657   0.654   3.192   1.625  2.3289 -2.1213  1.0616
19056TIP3   OH278658   4.439   2.379   4.624 -0.3126  0.8835 -0.6557
19056TIP3    H178659   4.424   2.433   4.546 -0.4378  0.6567 -0.7897
19056TIP3    H278660   4.523   2.337   4.610  0.3241  1.9076 -0.0481
19057TIP3   OH278661   5.882   4.803   1.563  0.3293 -0.6419 -0.1785
19057TIP3    H178662   5.853   4.861   1.493 -0.7484 -0.8560  0.0708
19057TIP3    H278663   5.807   4.745   1.579  1.3905 -2.1404 -0.4569
19058TIP3   OH278664   0.092   1.136   4.810  0.1246  0.3003  0.7169
19058TIP3    H178665   0.186   1.123   4.826  0.4412  0.2348 -0.9639
19058TIP3    H278666   0.076   1.092   4.726 -1.3760  0.5010  0.8697
19059TIP3   OH278667   2.731   1.664  12.633  0.0740 -0.1274  0.0015
19059TIP3    H178668   2.734   1.748  12.678 -1.3976 -0.3492  0.5632
19059TIP3    H278669   2.817   1.655  12.593  0.0619  1.8970 -0.5540
19060TIP3   OH278670   4.645   3.222  14.313 -0.6402 -0.7966  0.0870
19060TIP3    H178671   4.640   3.228  14.408  1.7794 -0.0027  0.2161
19060TIP3    H278672   4.691   3.140  14.297  3.3114  1.2502 -0.1123
19061TIP3   OH278673   5.582   6.731   2.729 -0.3804 -0.1885 -0.3052
19061TIP3    H178674   5.511   6.764   2.785  1.7255  2.1390  1.2290
19061TIP3    H278675   5.651   6.705   2.791  1.1325  0.1801 -1.7699
19062TIP3   OH278676   6.195   1.733  13.440 -0.2619  0.1985  0.0535
19062TIP3    H178677   6.176   1.695  13.526 -1.9426 -1.3138 -0.9456
19062TIP3    H278678   6.112   1.770  13.411  0.6639  2.1814 -0.2689
19063TIP3   OH278679   2.284   0.187   5.732  0.0688 -0.2857 -0.1596
19063TIP3    H178680   2.204   0.236   5.745  0.7365  0.4958  1.2465
19063TIP3    H278681   2.289   0.173   5.637 -1.2872  0.3532 -0.3455
19064TIP3   OH278682   2.081   1.705  16.972  0.1012  1.0152 -0.1521
19064TIP3    H178683   2.070   1.797  16.950  0.8033  1.5134  1.4910
19064TIP3    H278684   2.151   1.675  16.913 -1.0593  1.1344 -1.6508
19065TIP3   OH278685   2.743   5.414   5.021 -0.3217 -0.1149 -0.2447
19065TIP3    H178686   2.762   5.508   5.025 -0.5819 -0.0347 -0.9006
19065TIP3    H278687   2.728   5.396   4.929  0.6230 -0.9823 -0.2497
19066TIP3   OH278688   4.491   6.358   5.978  0.1886 -0.5266  0.4175
19066TIP3    H178689   4.470   6.265   5.985 -0.4393 -0.4114  0.1843
19066TIP3    H278690   4.431   6.401   6.039  0.6713 -0.3025  0.7326
19067TIP3   OH278691   4.080   2.772   2.116 -0.3288  0.1738  0.5028
19067TIP3    H178692   4.031   2.843   2.157 -1.9870  1.2904 -2.9845
19067TIP3    H278693   4.145   2.816   2.062 -1.0398 -0.9102 -1.3244
19068TIP3   OH278694   2.950   2.215  13.264 -0.4999  0.0552 -0.0207
19068TIP3    H178695   2.919   2.298  13.228  0.7517  0.1710 -0.8870
19068TIP3    H278696   2.938   2.152  13.193 -0.5509 -0.3061  0.3053
19069TIP3   OH278697   5.647   6.320  17.157 -0.1987  0.0819 -0.4333
19069TIP3    H178698   5.614   6.235  17.129  0.9787  0.1917 -2.3458
19069TIP3    H278699   5.742   6.312  17.152  0.0314  0.8550  1.5271
19070TIP3   OH278700   6.430   0.526   4.529 -0.2358 -0.0289  0.1080
19070TIP3    H178701   6.520   0.543   4.556 -0.7309  1.5936  0.9154
19070TIP3    H278702   6.432   0.523   4.434  0.6878 -0.1669  0.1288
19071TIP3   OH278703   5.947   3.806   0.390 -0.6718 -0.0828  0.6112
19071TIP3    H178704   5.988   3.835   0.309  0.2859 -0.1616  1.0457
19071TIP3    H278705   5.920   3.886   0.434 -0.5289  0.0033  0.5428
19072TIP3   OH278706   2.510   6.190   3.273  0.3768 -1.1794 -0.2586
19072TIP3    H178707   2.446   6.126   3.304  0.3925 -1.5434 -0.9485
19072TIP3    H278708   2.552   6.147   3.198  0.0418 -0.1751 -1.0454
19073TIP3   OH278709   4.851   5.099  14.010  0.2647  0.3823 -0.4699
19073TIP3    H178710   4.930   5.119  14.062  1.0138 -0.3019 -1.3151
19073TIP3    H278711   4.877   5.027  13.954 -0.9115  0.3086 -0.9422
19074TIP3   OH278712   2.811   1.307   2.390  0.3364 -0.3558  0.1469
19074TIP3    H178713   2.796   1.213   2.390  0.9604 -0.4626  0.2812
19074TIP3    H278714   2.899   1.317   2.426  1.6481  0.0396 -2.8556
19075TIP3   OH278715   6.423   2.277  16.626  0.0903 -0.1738 -0.1060
19075TIP3    H178716   6.470   2.266  16.709  0.0781 -0.4916 -0.1420
19075TIP3    H278717   6.331   2.283  16.651  0.0502 -0.6938 -0.1328
19076TIP3   OH278718   4.097   3.622  10.530 -0.3819 -0.1647  0.7667
19076TIP3    H178719   4.112   3.538  10.488  0.0992 -0.4539  1.4899
19076TIP3    H278720   4.078   3.682  10.458 -2.9735 -1.3264  0.3516
19077TIP3   OH278721   1.600   5.783  13.487  0.3441 -0.2687  0.3773
19077TIP3    H178722   1.516   5.739  13.474 -0.1698  0.5656  0.8187
19077TIP3    H278723   1.585   5.873  13.459  0.7184  0.2254  1.6849
19078TIP3   OH278724   6.333   3.139  16.749  0.4356 -0.2350  0.0527
19078TIP3    H178725   6.374   3.068  16.699  0.9291 -0.4397  0.7326
19078TIP3    H278726   6.368   3.129  16.837 -1.2185 -0.5040  0.7117
19079TIP3   OH278727   2.758   0.127  13.528  0.0694 -0.0070  0.2477
19079TIP3    H178728   2.674   0.154  13.491  1.1840  0.6189 -1.9957
19079TIP3    H278729   2.784   0.201  13.583 -0.6328 -0.0340  0.6337
19080TIP3   OH278730   4.786   1.992   4.369  0.1612  0.1533  0.6402
19080TIP3    H178731   4.868   2.039   4.383 -0.1891  2.9205 -4.3884
19080TIP3    H278732   4.812   1.912   4.323  0.1809 -0.2242  1.3023
19081TIP3   OH278733   4.011   0.859   5.428 -0.4172  0.6090 -0.1928
19081TIP3    H178734   4.101   0.861   5.460 -0.4025 -1.7231  0.0510
19081TIP3    H278735   4.018   0.889   5.337  1.1474 -2.3899 -1.1711
19082TIP3   OH278736   1.275   6.802   3.428 -0.0292 -0.1931  0.1830
19082TIP3    H178737   1.183   6.824   3.444  0.0086 -0.2616  0.5152
19082TIP3    H278738   1.274   6.708   3.411 -0.3530  0.2142 -2.5132
19083TIP3   OH278739   1.449   6.675  12.129 -0.0681 -0.6481 -0.3726
19083TIP3    H178740   1.410   6.632  12.205 -1.8012  1.4008 -0.0031
19083TIP3    H278741   1.450   6.608  12.061 -3.5525 -1.0978 -0.1443
19084TIP3   OH278742   3.173   4.239   0.146 -0.3533 -0.0674 -0.1570
19084TIP3    H178743   3.231   4.168   0.118 -0.5342 -0.0645 -0.5439
19084TIP3    H278744   3.151   4.217   0.237  1.7093  0.8809  0.6390
19085TIP3   OH278745   0.552   3.119  15.458  0.2896 -0.0185 -0.0737
19085TIP3    H178746   0.637   3.109  15.502 -0.0225 -0.2300  0.5001
19085TIP3    H278747   0.538   3.036  15.412  1.1118  0.6006 -1.4870
19086TIP3   OH278748   0.187   3.810  12.828  0.3205 -0.2766  0.1077
19086TIP3    H178749   0.236   3.788  12.749 -1.9163  1.3565 -1.8657
19086TIP3    H278750   0.220   3.896  12.854  0.6587 -0.5633  0.6553
19087TIP3   OH278751   4.998   0.613   2.369  0.3460 -0.0955  0.0044
19087TIP3    H178752   4.926   0.593   2.428  0.1442 -0.6347 -0.4115
19087TIP3    H278753   5.057   0.538   2.376  0.2982 -0.1856 -0.4998
19088TIP3   OH278754   6.605   4.158   1.842 -0.1477  0.4398 -0.1031
19088TIP3    H178755   6.587   4.068   1.868  1.1489  0.8611  2.5973
19088TIP3    H278756   6.527   4.207   1.868 -0.4284  0.2534 -0.5989
19089TIP3   OH278757   1.151   5.710  13.219 -0.4259 -0.0847 -0.3588
19089TIP3    H178758   1.155   5.615  13.211 -0.7991 -0.1223 -0.1286
19089TIP3    H278759   1.189   5.729  13.306 -0.7570 -0.0583 -0.2197
19090TIP3   OH278760   0.061   6.720  12.987  0.0156 -0.0524 -0.2049
19090TIP3    H178761   0.116   6.784  12.942  0.5917 -0.0043  0.5474
19090TIP3    H278762  -0.027   6.756  12.983 -0.0771 -0.3628 -1.8615
19091TIP3   OH278763   4.825   0.314   5.296 -0.3171  0.0721 -0.0976
19091TIP3    H178764   4.775   0.346   5.221 -0.5210  2.3713  0.9578
19091TIP3    H278765   4.916   0.317   5.267 -0.4982 -0.5779 -0.7648
19092TIP3   OH278766   2.265   4.519  14.359 -0.8896 -0.1531  0.5322
19092TIP3    H178767   2.298   4.441  14.314  1.6331 -0.0002  1.9205
19092TIP3    H278768   2.184   4.491  14.400 -1.0457 -1.4615 -0.5968
19093TIP3   OH278769   0.203   6.433   1.269 -0.1246  0.1775 -0.6389
19093TIP3    H178770   0.281   6.436   1.213 -0.2462 -0.0258 -0.8239
19093TIP3    H278771   0.227   6.374   1.340 -0.3495 -0.4596 -1.0779
19094TIP3   OH278772   2.254   1.357   6.094  0.0046 -0.6580  0.2608
19094TIP3    H178773   2.252   1.392   6.183 -1.4849 -0.3085  0.1252
19094TIP3    H278774   2.305   1.421   6.045  1.9380 -1.5047  1.0886
19095TIP3   OH278775   2.966   1.754  12.446 -0.1187  0.5637 -0.8985
19095TIP3    H178776   3.048   1.709  12.426 -0.2075 -0.8600  1.5766
19095TIP3    H278777   2.986   1.847  12.434  2.7926  0.5332  2.1804
19096TIP3   OH278778   1.777   2.131   4.597 -0.5625  0.4448 -0.2009
19096TIP3    H178779   1.687   2.159   4.581 -0.7442  0.5885  1.0352
19096TIP3    H278780   1.805   2.183   4.672  0.5036  0.2791 -0.4695
19097TIP3   OH278781   3.625   6.337   1.877 -0.0503  0.2834  0.1378
19097TIP3    H178782   3.694   6.351   1.812 -0.1804  0.0366 -0.0584
19097TIP3    H278783   3.658   6.266   1.932 -0.9261 -1.1706 -1.1112
19098TIP3   OH278784   2.382   0.241   0.061 -0.6265 -0.2170 -0.1784
19098TIP3    H178785   2.434   0.182   0.007 -1.4552 -1.8010  0.6741
19098TIP3    H278786   2.292   0.208   0.052 -1.3514  1.7706 -0.7502
19099TIP3   OH278787   2.992   5.860   2.996 -0.3109  0.2499 -0.3684
19099TIP3    H178788   3.046   5.936   3.018 -2.2488  1.6058 -0.0091
19099TIP3    H278789   2.917   5.897   2.949  0.0028 -1.7573 -2.6749
19100TIP3   OH278790   5.280   0.455  15.376 -0.1616 -0.1941  0.0368
19100TIP3    H178791   5.195   0.475  15.414  0.4307  1.2140  0.6749
19100TIP3    H278792   5.280   0.500  15.291  0.4802  1.0652  0.6790
19101TIP3   OH278793   0.941   5.372   4.933  0.6813  0.7100  0.0758
19101TIP3    H178794   0.853   5.407   4.918  0.0781  0.8811  3.2719
19101TIP3    H278795   1.000   5.439   4.900 -0.4279  1.7974  0.2222
19102TIP3   OH278796   2.117   3.581  12.587  0.3711 -0.0198 -0.2122
19102TIP3    H178797   2.136   3.554  12.677  0.7624 -0.6902 -0.4909
19102TIP3    H278798   2.081   3.502  12.546  0.4526  0.2067 -0.7205
19103TIP3   OH278799   4.777   5.875   2.737 -0.3365  0.2711 -0.6665
19103TIP3    H178800   4.847   5.844   2.795 -0.9173 -0.3605 -0.2927
19103TIP3    H278801   4.791   5.970   2.732  0.1733  0.2348 -0.0963
19104TIP3   OH278802   6.181   1.695   3.799 -0.0252 -0.3882 -0.4711
19104TIP3    H178803   6.216   1.631   3.861  0.8179  1.2152  0.8235
19104TIP3    H278804   6.122   1.646   3.743  1.3349 -2.4647 -0.1763
19105TIP3   OH278805   0.324   3.274   1.478 -1.0032 -0.7698 -0.0817
19105TIP3    H178806   0.268   3.206   1.439  0.4690 -1.2716 -1.4274
19105TIP3    H278807   0.317   3.348   1.417 -2.1276  0.1187  1.0679
19106TIP3   OH278808   0.332   3.212  11.169  0.0916  0.3972 -0.4676
19106TIP3    H178809   0.395   3.154  11.211  0.9954  1.1218 -0.7973
19106TIP3    H278810   0.379   3.295  11.158 -1.5363  1.6258  1.1149
19107TIP3   OH278811   3.832   6.387   4.600 -0.1175  0.2739  0.1188
19107TIP3    H178812   3.814   6.400   4.694 -1.2135 -0.0721 -0.0273
19107TIP3    H278813   3.905   6.326   4.598  0.5644  1.0475  0.7520
19108TIP3   OH278814   2.669   5.903   6.206  0.1267  0.3963 -0.2953
19108TIP3    H178815   2.599   5.849   6.244  1.8573 -1.7019  0.0830
19108TIP3    H278816   2.625   5.955   6.139 -1.6316 -1.6930 -0.8713
19109TIP3   OH278817   2.146   4.746  11.794  0.5686  0.4356  0.3935
19109TIP3    H178818   2.106   4.659  11.788  1.8522 -0.0830 -2.0717
19109TIP3    H278819   2.113   4.782  11.876  0.3762 -2.5702  1.7721
19110TIP3   OH278820   6.048   5.743   4.151 -0.7037 -0.0037 -0.6656
19110TIP3    H178821   6.137   5.775   4.142 -0.3895 -1.2591 -2.3217
19110TIP3    H278822   6.007   5.804   4.213  1.2186  0.7038 -0.0346
19111TIP3   OH278823   4.200   4.243  11.595 -0.5418  0.3646  0.4780
19111TIP3    H178824   4.231   4.326  11.558  2.3181 -1.0715 -0.7226
19111TIP3    H278825   4.127   4.217  11.539 -1.3732  1.9327  0.7750
19112TIP3   OH278826   2.323   5.336   2.676 -0.0643 -0.5225  0.0649
19112TIP3    H178827   2.346   5.412   2.730  1.5221  0.8139 -2.2803
19112TIP3    H278828   2.265   5.370   2.609  1.4592 -1.0628 -1.6306
19113TIP3   OH278829   3.389   1.506   3.977 -0.3346  0.8247  0.2976
19113TIP3    H178830   3.349   1.591   3.999 -1.5099  0.2200  0.6025
19113TIP3    H278831   3.314   1.447   3.967  0.4977 -0.3496  0.8424
19114TIP3   OH278832   5.969   5.929   6.191 -0.3612  0.2177 -0.6651
19114TIP3    H178833   5.934   5.951   6.104 -1.4016  0.1148 -0.2892
19114TIP3    H278834   5.901   5.957   6.252 -0.5955 -1.5948 -0.0148
19115TIP3   OH278835   0.662   6.435   0.428 -0.0494 -0.3007  0.6182
19115TIP3    H178836   0.637   6.357   0.378  1.6766 -0.7563  0.3978
19115TIP3    H278837   0.638   6.415   0.518  0.7026 -1.2535  0.6217
19116TIP3   OH278838   6.199   5.665   3.081  0.0872  0.1279 -0.1762
19116TIP3    H178839   6.165   5.603   3.144 -0.7609  1.4186  0.6832
19116TIP3    H278840   6.152   5.646   3.000 -0.4416 -0.1100  0.1826
19117TIP3   OH278841   0.712   0.857   4.113 -0.7118  0.2035  0.5120
19117TIP3    H178842   0.697   0.912   4.190 -0.2500 -0.1796  0.8777
19117TIP3    H278843   0.690   0.768   4.143 -0.0360 -0.0178  0.3521
19118TIP3   OH278844   0.807   4.066   2.101  0.1961 -0.3688  0.0147
19118TIP3    H178845   0.827   4.146   2.052 -1.4152 -0.7108 -1.2984
19118TIP3    H278846   0.747   4.093   2.170 -0.0495 -0.3719 -0.1952
19119TIP3   OH278847   6.603   6.379  17.014 -0.9810  0.3548 -0.1094
19119TIP3    H178848   6.665   6.437  16.971 -0.5868 -1.1316 -1.6733
19119TIP3    H278849   6.551   6.343  16.942  0.9576 -3.7144  0.2302
19120TIP3   OH278850   1.235   0.503   0.919  0.1202 -0.4014 -0.2663
19120TIP3    H178851   1.260   0.415   0.890  1.4073 -0.7313  1.6884
19120TIP3    H278852   1.289   0.562   0.866  0.3396 -0.8503 -0.5508
19121TIP3   OH278853   6.491   4.985  13.670  0.4581  0.2421  0.5469
19121TIP3    H178854   6.571   4.960  13.716 -0.1720 -3.0009  0.1308
19121TIP3    H278855   6.499   4.946  13.583  0.0346  3.1522 -0.9111
19122TIP3   OH278856   4.912   1.086  10.719 -0.2706 -0.0113  0.3118
19122TIP3    H178857   4.997   1.128  10.706  0.3418 -1.4448 -0.4082
19122TIP3    H278858   4.923   1.031  10.797 -0.5288 -0.2459  0.1865
19123TIP3   OH278859   5.088   2.004   4.451 -0.2646  0.6730  0.6759
19123TIP3    H178860   5.172   2.045   4.432  0.1574  0.8395  2.6262
19123TIP3    H278861   5.107   1.943   4.523 -1.8799  1.0363  1.4527
19124TIP3   OH278862   5.054   3.060  12.400  0.0715 -0.3439 -0.3435
19124TIP3    H178863   5.017   3.023  12.480  0.4908 -0.2689 -0.1138
19124TIP3    H278864   5.119   3.123  12.430  0.2748 -0.3583 -0.7427
19125TIP3   OH278865   3.331   0.267  16.937 -0.0282  0.1944  0.4771
19125TIP3    H178866   3.241   0.260  16.905 -0.3052  2.4326  0.5946
19125TIP3    H278867   3.386   0.249  16.860 -0.6036  0.4002  0.0122
19126TIP3   OH278868   2.564   0.400   2.345 -0.1921 -0.2870  0.3050
19126TIP3    H178869   2.579   0.311   2.314 -1.2403 -0.2411 -0.3633
19126TIP3    H278870   2.619   0.454   2.288 -0.7470 -0.3728 -0.3263
19127TIP3   OH278871   0.826   6.819  11.556 -0.2162  0.3730 -0.0046
19127TIP3    H178872   0.846   6.817  11.650  0.6419  1.5596 -0.1483
19127TIP3    H278873   0.910   6.807  11.513 -0.9422 -3.3260 -0.7074
19128TIP3   OH278874   0.572   3.527   4.134 -0.7889 -0.0432 -0.0816
19128TIP3    H178875   0.538   3.493   4.051  0.7820 -0.5096 -0.5555
19128TIP3    H278876   0.617   3.608   4.110 -0.5062 -0.0704  0.3526
19129TIP3   OH278877   1.179   4.207   1.197  0.1795 -0.2736 -0.0699
19129TIP3    H178878   1.221   4.293   1.196 -0.6247  0.1230 -0.9432
19129TIP3    H278879   1.235   4.152   1.143 -0.2835  0.2004 -1.0576
19130TIP3   OH278880   0.899   2.757   0.448 -0.2244  0.2650  0.4057
19130TIP3    H178881   0.986   2.744   0.486  0.2701 -1.2642 -1.1195
19130TIP3    H278882   0.907   2.835   0.394  0.4746 -0.3691 -0.4239
19131TIP3   OH278883   5.539   3.461   0.845  0.6160  0.1495  0.3708
19131TIP3    H178884   5.567   3.531   0.904  1.0583 -0.1052  0.4677
19131TIP3    H278885   5.613   3.399   0.844  0.8354  0.4019 -0.8537
19132TIP3   OH278886   2.287   5.558   4.484 -0.1705 -0.1051 -0.3239
19132TIP3    H178887   2.195   5.563   4.457  0.4306  1.1107 -2.3636
19132TIP3    H278888   2.291   5.608   4.566 -1.5981 -1.6884  0.7852
19133TIP3   OH278889   6.314   4.066  12.653 -0.0135  0.7586 -0.2461
19133TIP3    H178890   6.250   4.100  12.591 -0.3803  0.9654  0.2398
19133TIP3    H278891   6.373   4.140  12.670 -0.7585  1.1513  0.7423
19134TIP3   OH278892   5.235   3.119  12.677 -0.2045 -0.5212  0.0116
19134TIP3    H178893   5.274   3.048  12.626  0.6043 -0.6305  0.7609
19134TIP3    H278894   5.227   3.084  12.766 -1.6112 -0.3420 -0.0245
19135TIP3   OH278895   2.208   1.829  16.486 -0.5538  0.3076  0.4540
19135TIP3    H178896   2.295   1.838  16.524 -0.2493  0.4558 -0.2622
19135TIP3    H278897   2.160   1.773  16.547 -0.5093  1.6434  1.7567
19136TIP3   OH278898   5.767   1.886  15.537  0.0476  0.3659 -0.5330
19136TIP3    H178899   5.747   1.803  15.580 -0.2513  0.7328  0.0397
19136TIP3    H278900   5.689   1.907  15.486 -0.6556  1.2520  0.8460
19137TIP3   OH278901   6.684   3.432  16.534 -0.1434 -0.5595 -0.0102
19137TIP3    H178902   6.690   3.502  16.599 -2.0809 -1.5970  1.3935
19137TIP3    H278903   6.731   3.358  16.573 -1.5414 -1.2733  0.3645
19138TIP3   OH278904   1.488   0.881   5.483 -0.2914 -0.2184 -0.3816
19138TIP3    H178905   1.502   0.837   5.399  0.4075  0.2961 -0.5391
19138TIP3    H278906   1.433   0.956   5.462 -0.4250 -0.2989 -0.3190
19139TIP3   OH278907   3.229   5.472   2.006  0.0034  0.7383  0.3446
19139TIP3    H178908   3.249   5.378   2.015 -0.9676  0.5642  0.8959
19139TIP3    H278909   3.291   5.515   2.064  0.1079  0.3876  0.4971
19140TIP3   OH278910   0.395   3.481  11.045 -0.4257  0.2675  0.0435
19140TIP3    H178911   0.461   3.537  11.085 -1.9504  3.4425 -1.5012
19140TIP3    H278912   0.425   3.469  10.955 -1.7498  1.5811 -0.6163
19141TIP3   OH278913   1.738   0.818  12.010 -0.5983 -0.6813 -0.2689
19141TIP3    H178914   1.757   0.909  12.034  0.1944 -1.0680  0.6343
19141TIP3    H278915   1.810   0.768  12.049 -1.4637 -1.7884 -0.0604
19142TIP3   OH278916   3.672   1.679   2.453  0.2895  0.0368 -0.8934
19142TIP3    H178917   3.586   1.711   2.427  1.0158  1.2549 -1.9488
19142TIP3    H278918   3.725   1.686   2.374  1.3924 -0.5563 -0.2313
19143TIP3   OH278919   5.259   3.696  17.229  0.2821 -0.0815 -0.3098
19143TIP3    H178920   5.267   3.731  17.140 -2.1498  2.7094  0.3991
19143TIP3    H278921   5.278   3.603  17.220  1.4182  0.3349 -3.4872
19144TIP3   OH278922   3.017   3.258   0.407  0.0143  0.0716 -0.2681
19144TIP3    H178923   3.003   3.183   0.348 -1.6805  0.0681  0.0706
19144TIP3    H278924   3.001   3.223   0.494  0.2178  0.6028 -0.0133
19145TIP3   OH278925   6.529   6.148  14.411  0.5021  0.0079 -0.4418
19145TIP3    H178926   6.539   6.096  14.331 -1.4605  0.0132 -0.7406
19145TIP3    H278927   6.618   6.171  14.436  1.4315 -2.7610 -0.7924
19146TIP3   OH278928   2.086   3.208   6.525  0.0376 -0.1087 -0.1102
19146TIP3    H178929   2.181   3.212   6.519 -0.0538  2.0122 -0.9966
19146TIP3    H278930   2.066   3.115   6.522  2.1312 -0.6872  1.4595
19147TIP3   OH278931   2.962   3.468   0.202 -0.6573  0.4303 -0.1330
19147TIP3    H178932   2.975   3.403   0.271  0.7636  0.0909 -0.6942
19147TIP3    H278933   3.038   3.526   0.208 -0.5705  0.4716 -1.3268
19148TIP3   OH278934   4.644   4.153   2.151  0.5413  0.2943 -0.1761
19148TIP3    H178935   4.563   4.102   2.160  1.7059 -1.5836  0.0796
19148TIP3    H278936   4.614   4.238   2.119 -1.7014  0.2086  1.4386
19149TIP3   OH278937   4.143   1.074  12.358  0.3178  0.1556  0.3416
19149TIP3    H178938   4.219   1.130  12.375  0.1102  0.7389 -0.5967
19149TIP3    H278939   4.069   1.135  12.355 -0.1461 -0.3688  0.9052
19150TIP3   OH278940   3.002   1.994  11.995  0.3575  0.2340 -0.2942
19150TIP3    H178941   2.951   1.921  11.961 -1.2637  0.2929  1.8003
19150TIP3    H278942   3.058   1.955  12.062 -0.5338  0.8495  0.8512
19151TIP3   OH278943   2.332   4.849  10.158 -0.3123  0.1659 -0.0940
19151TIP3    H178944   2.299   4.905  10.088  1.9796  2.1020  0.2511
19151TIP3    H278945   2.385   4.783  10.114 -1.6638 -0.7959 -0.3663
19152TIP3   OH278946   3.317   2.930   1.038  0.1355  0.3740 -0.0540
19152TIP3    H178947   3.373   3.005   1.055 -0.6072  0.7464  0.8068
19152TIP3    H278948   3.344   2.865   1.103  0.1727  0.2194 -0.2224
19153TIP3   OH278949   6.589   1.516  13.208  0.1779  0.2071  0.2042
19153TIP3    H178950   6.612   1.467  13.130  1.5627  0.2820  0.5400
19153TIP3    H278951   6.673   1.531  13.253 -0.5717  0.2405  1.6505
19154TIP3   OH278952   5.627   0.356  11.631  0.5178 -0.1754  0.3369
19154TIP3    H178953   5.575   0.340  11.710  1.7205 -0.3003  1.1247
19154TIP3    H278954   5.703   0.405  11.662  0.2068  1.2087 -1.0178
19155TIP3   OH278955   3.043   3.695  11.099 -0.6937  0.4719  0.2855
19155TIP3    H178956   3.059   3.622  11.038  0.9615  1.3977 -0.4381
19155TIP3    H278957   3.048   3.655  11.186  0.0094 -0.3164 -0.1032
19156TIP3   OH278958   6.794   6.686   0.120  0.3625 -0.1275 -0.4227
19156TIP3    H178959   6.741   6.607   0.109  0.3159 -0.3638  1.2528
19156TIP3    H278960   6.854   6.685   0.046  1.6894 -2.8218  0.5428
19157TIP3   OH278961   3.462   6.290  15.197 -0.1878  0.0685 -0.6094
19157TIP3    H178962   3.451   6.334  15.281  0.9204  0.7715 -0.8151
19157TIP3    H278963   3.453   6.197  15.217  2.9198 -0.0211  0.8372
19158TIP3   OH278964   4.197   5.564   4.285 -0.1532  0.2358  0.3234
19158TIP3    H178965   4.222   5.487   4.233 -0.9126  0.9521 -1.1686
19158TIP3    H278966   4.271   5.624   4.275  0.3727 -0.2096  1.3649
19159TIP3   OH278967   4.392   4.929  13.381 -0.5703  0.4198  0.7263
19159TIP3    H178968   4.450   4.986  13.431 -1.3509  1.0298  0.9636
19159TIP3    H278969   4.359   4.866  13.445 -1.6195  1.2400  1.0267
19160TIP3   OH278970   2.573   4.705   5.687 -0.3727  0.0160  0.3942
19160TIP3    H178971   2.599   4.789   5.650  0.7262 -0.1836  0.7005
19160TIP3    H278972   2.643   4.682   5.747 -0.8418 -0.9493  0.5925
19161TIP3   OH278973   5.250   5.085  13.927  0.6383  0.0254  0.1222
19161TIP3    H178974   5.240   4.990  13.936 -0.3692  0.0597 -0.3846
19161TIP3    H278975   5.316   5.096  13.858  1.9994 -0.2723  1.3301
19162TIP3   OH278976   2.190   4.760   3.798 -0.1439 -0.1707 -0.1075
19162TIP3    H178977   2.135   4.830   3.832  0.8490  1.8566 -2.3140
19162TIP3    H278978   2.276   4.775   3.838  0.3295  0.5741 -1.3191
19163TIP3   OH278979   3.399   3.013   1.681 -0.0334 -0.1234  0.1143
19163TIP3    H178980   3.425   3.041   1.768 -1.2926 -1.8092  1.0969
19163TIP3    H278981   3.334   3.078   1.653 -2.7069 -1.6699  2.2334
19164TIP3   OH278982   1.207   6.407  16.673  0.3326 -0.0631 -0.1721
19164TIP3    H178983   1.125   6.398  16.722 -0.3268 -1.2608 -1.4101
19164TIP3    H278984   1.193   6.355  16.593  2.2498 -0.1756 -0.4861
19165TIP3   OH278985   3.547   1.928  16.455 -0.1847 -0.0701  0.4058
19165TIP3    H178986   3.529   2.009  16.503 -0.3419 -0.0937  0.3837
19165TIP3    H278987   3.643   1.923  16.453 -0.1493  0.7669 -0.6769
19166TIP3   OH278988   0.277   4.912   4.009  0.5458 -0.4662 -0.2019
19166TIP3    H178989   0.294   4.830   4.055 -0.6016 -1.5414 -1.5925
19166TIP3    H278990   0.318   4.901   3.923  0.6166  0.5372 -0.3096
19167TIP3   OH278991   1.510   2.879   5.718  0.2663  0.0279 -0.1237
19167TIP3    H178992   1.546   2.966   5.733  2.5462 -1.0868  1.4109
19167TIP3    H278993   1.501   2.872   5.623  0.2618  1.8291 -0.2770
19168TIP3   OH278994   4.503   2.394   0.961  0.0599 -0.8822 -0.4928
19168TIP3    H178995   4.584   2.368   0.916  1.4771  0.5792  1.0640
19168TIP3    H278996   4.474   2.314   1.005  0.7730 -1.3894 -0.9126
19169TIP3   OH278997   5.527   4.667  13.390 -0.2096 -0.3656 -0.6049
19169TIP3    H178998   5.432   4.665  13.400 -0.3921 -3.3755 -1.9848
19169TIP3    H278999   5.541   4.714  13.308 -0.4741  0.1282 -0.3754
19170TIP3   OH279000   3.675   6.445   5.391 -0.1251 -0.2649 -0.7428
19170TIP3    H179001   3.763   6.441   5.352 -0.2161  0.4585 -1.0317
19170TIP3    H279002   3.691   6.440   5.486  0.2398  0.0127 -0.7873
19171TIP3   OH279003   2.356   3.833   2.618 -0.1829  0.0449 -0.5085
19171TIP3    H179004   2.386   3.902   2.677 -1.7726  0.0069  0.3890
19171TIP3    H279005   2.349   3.876   2.533  0.7908  0.4561 -0.3911
19172TIP3   OH279006   1.167   3.756   1.778  0.1785  0.3184  0.0548
19172TIP3    H179007   1.100   3.751   1.847 -0.1857  1.5203 -0.1865
19172TIP3    H279008   1.248   3.729   1.821 -0.6726 -2.6604 -0.0249
19173TIP3   OH279009   4.834   4.229  13.532 -0.2185  0.2633  0.8015
19173TIP3    H179010   4.914   4.276  13.555 -0.0433  0.2800  0.1979
19173TIP3    H279011   4.841   4.146  13.579  2.8561 -2.1577 -3.1888
19174TIP3   OH279012   5.288   4.507  16.919  0.1472 -0.0503 -0.3375
19174TIP3    H179013   5.333   4.430  16.885  0.3085  0.4297 -1.2345
19174TIP3    H279014   5.287   4.494  17.014  1.2758 -0.5460 -0.3782
19175TIP3   OH279015   3.972   6.463   1.427  0.0991  0.0315  0.2367
19175TIP3    H179016   4.031   6.389   1.415  1.2856  0.9631  0.1492
19175TIP3    H279017   3.974   6.481   1.521 -0.1873 -0.0403  0.2589
19176TIP3   OH279018   3.425   4.446  16.256 -0.0299 -0.4605 -0.2075
19176TIP3    H179019   3.516   4.469  16.237 -0.6483  2.1972 -0.3419
19176TIP3    H279020   3.374   4.505  16.202 -1.8557 -0.9440  0.9082
19177TIP3   OH279021   4.550   6.449   3.372 -0.6830 -0.1901 -0.6143
19177TIP3    H179022   4.628   6.393   3.367 -0.2734  0.4723 -2.0254
19177TIP3    H279023   4.496   6.409   3.440  0.4633 -1.1963 -0.2642
19178TIP3   OH279024   3.790   5.155  12.040  0.5251  0.4107  0.5123
19178TIP3    H179025   3.864   5.177  12.096  1.7322 -1.4169 -0.2732
19178TIP3    H279026   3.829   5.118  11.961 -1.2035  0.3616 -0.3847
19179TIP3   OH279027   1.835   1.983  16.599  0.5537  0.0413  0.1476
19179TIP3    H179028   1.804   1.928  16.528 -1.3651 -0.5748  1.3796
19179TIP3    H279029   1.880   1.923  16.659  0.4999  0.2192  0.3689
19180TIP3   OH279030   1.274   3.419  16.584  0.2937  0.3299  0.1423
19180TIP3    H179031   1.282   3.459  16.497 -1.8378  1.1393  0.2571
19180TIP3    H279032   1.212   3.476  16.630  1.0455 -0.3455  2.0528
19181TIP3   OH279033   0.819   1.785  13.130 -0.0051  0.3144 -0.0817
19181TIP3    H179034   0.842   1.715  13.069 -0.4129  0.2184 -0.1262
19181TIP3    H279035   0.778   1.852  13.075  0.1788  0.4895 -0.0052
19182TIP3   OH279036   4.368   6.015   0.971  0.5591 -0.4099 -0.1540
19182TIP3    H179037   4.451   6.056   0.945  0.4998 -0.5338 -0.5368
19182TIP3    H279038   4.310   6.089   0.989  1.6371 -0.1878  3.2049
19183TIP3   OH279039   0.690   6.472  14.565 -0.3979 -0.1889 -0.7169
19183TIP3    H179040   0.714   6.545  14.622  0.4482  0.0802 -1.3921
19183TIP3    H279041   0.639   6.512  14.494  0.6668 -0.1155 -1.4704
19184TIP3   OH279042   4.503   4.364  16.914  0.1304 -0.1358  0.2366
19184TIP3    H179043   4.423   4.375  16.966 -1.0125 -2.9408 -0.6842
19184TIP3    H279044   4.551   4.295  16.960  0.1603 -1.0948 -1.1586
19185TIP3   OH279045   4.868   2.961   1.987  0.3757 -0.2732  0.0433
19185TIP3    H179046   4.797   2.957   2.051  1.7918  0.3892  1.7302
19185TIP3    H279047   4.880   3.055   1.970  0.7423 -0.3887 -0.3621
19186TIP3   OH279048   2.716   2.707  12.047 -0.2080 -0.2166  0.4162
19186TIP3    H179049   2.707   2.624  12.094  0.7300 -0.3043  0.4691
19186TIP3    H279050   2.748   2.769  12.114 -1.3013  0.2963  0.4768
19187TIP3   OH279051   6.121   0.466   2.692  0.7938  0.3917  0.7619
19187TIP3    H179052   6.087   0.403   2.755 -1.2851  2.4082  1.8303
19187TIP3    H279053   6.204   0.497   2.730  2.1769 -2.0322 -0.0985
19188TIP3   OH279054   0.431   2.549  15.731 -0.3146 -0.2635  0.4043
19188TIP3    H179055   0.347   2.581  15.764  0.3510  0.0655  1.8656
19188TIP3    H279056   0.434   2.579  15.640 -1.7887 -0.3374  0.3059
19189TIP3   OH279057   3.898   5.111   2.213  0.3409 -0.6626 -0.2546
19189TIP3    H179058   3.901   5.120   2.118  3.2984  1.1230 -0.0872
19189TIP3    H279059   3.857   5.025   2.227 -0.7292 -0.7161 -3.0683
19190TIP3   OH279060   6.045   0.822  13.199  0.0859 -0.0678  0.4671
19190TIP3    H179061   5.964   0.868  13.176 -0.9316 -2.2993 -0.7136
19190TIP3    H279062   6.113   0.889  13.192 -1.5765  1.8254  1.2637
19191TIP3   OH279063   0.243   3.347   0.582  0.1505 -0.2088 -0.1369
19191TIP3    H179064   0.271   3.313   0.497  0.3858 -1.1067  0.2881
19191TIP3    H279065   0.168   3.293   0.606  0.2412 -0.1285  0.3420
19192TIP3   OH279066   4.808   5.812   2.031 -0.0344  0.3074  0.3682
19192TIP3    H179067   4.804   5.808   1.935  0.6781  0.6290  0.3200
19192TIP3    H279068   4.901   5.820   2.051  0.0985 -2.5571  1.2173
19193TIP3   OH279069   0.096   0.523  12.759 -0.2345 -0.6178  0.1146
19193TIP3    H179070   0.152   0.454  12.725 -2.5329 -1.2346 -2.9776
19193TIP3    H279071   0.008   0.484  12.760 -1.4774  1.9098 -0.9344
19194TIP3   OH279072   0.618   6.411  12.262 -0.1460 -0.2884  0.0151
19194TIP3    H179073   0.546   6.354  12.236 -0.8179  0.0652  1.0523
19194TIP3    H279074   0.577   6.482  12.311  0.7618  0.6694 -0.5484
19195TIP3   OH279075   0.747   6.559   4.772 -0.3350 -0.0082  0.0790
19195TIP3    H179076   0.811   6.488   4.782  1.1309  1.2530 -0.0527
19195TIP3    H279077   0.671   6.516   4.734  0.0353 -1.7547  1.1755
19196TIP3   OH279078   2.740   0.441  13.320  0.5312  1.1188 -0.3361
19196TIP3    H179079   2.823   0.402  13.349 -0.0651 -0.3811 -0.5476
19196TIP3    H279080   2.675   0.372  13.333 -0.4180  1.7065 -1.6635
19197TIP3   OH279081   4.360   6.384  15.592 -0.2236 -0.4327 -0.1137
19197TIP3    H179082   4.265   6.382  15.589 -0.2019 -0.2600 -0.8975
19197TIP3    H279083   4.382   6.335  15.672 -0.9633 -0.3900  0.1241
19198TIP3   OH279084   1.956   0.291   1.140 -0.4397  0.2033  0.3434
19198TIP3    H179085   2.043   0.278   1.179 -0.5981  0.5644  0.8186
19198TIP3    H279086   1.959   0.380   1.105 -1.0475  0.7057  1.5033
19199TIP3   OH279087   4.455   3.292   4.214  0.0896  0.2698 -0.1317
19199TIP3    H179088   4.439   3.201   4.189 -1.5464 -0.3564  2.7298
19199TIP3    H279089   4.389   3.342   4.165 -1.5299 -0.6059  1.0575
19200TIP3   OH279090   1.789   2.584   6.209 -0.2077 -0.5376  0.1793
19200TIP3    H179091   1.700   2.551   6.191  0.0284 -0.6215 -0.9234
19200TIP3    H279092   1.779   2.680   6.208 -0.4537 -0.5414  1.0396
19201TIP3   OH279093   3.827   0.208  11.652  0.9773 -0.2509  0.4899
19201TIP3    H179094   3.737   0.183  11.672  0.9369 -1.2001 -0.7316
19201TIP3    H279095   3.865   0.130  11.611  1.1298  1.3002 -2.6511
19202TIP3   OH279096   0.383   0.889   4.783  0.4473 -0.1727 -0.2596
19202TIP3    H179097   0.471   0.857   4.804  0.8496  0.4785 -0.8776
19202TIP3    H279098   0.337   0.813   4.747  1.3695 -0.1032 -1.6875
19203TIP3   OH279099   6.071   1.127   3.794 -0.2544 -0.0709  0.3592
19203TIP3    H179100   6.055   1.070   3.719  1.8314 -0.6168  0.2854
19203TIP3    H279101   5.989   1.124   3.844 -0.6712 -2.0260 -0.3576
19204TIP3   OH279102   5.413   3.587  12.510 -0.7158 -0.0605  0.0371
19204TIP3    H179103   5.354   3.623  12.444 -1.8984 -0.1625  0.9976
19204TIP3    H279104   5.355   3.563  12.583  0.6500  0.9885  1.5249
19205TIP3   OH279105   6.553   0.574  13.256 -0.3485 -0.3893 -0.3377
19205TIP3    H179106   6.553   0.501  13.194 -0.1846 -0.6317 -0.0550
19205TIP3    H279107   6.511   0.646  13.209 -3.0383 -1.4297  0.2665
19206TIP3   OH279108   2.613   4.872   4.335  0.6815 -0.1570  0.0140
19206TIP3    H179109   2.550   4.909   4.396  0.8303  0.6318 -0.2933
19206TIP3    H279110   2.586   4.905   4.249  2.2300  1.2525  0.0174
19207TIP3   OH279111   2.798   4.294   2.191 -0.3382 -0.0941  0.0684
19207TIP3    H179112   2.820   4.384   2.215  0.0842 -0.2244  0.1858
19207TIP3    H279113   2.726   4.270   2.249 -0.0888 -0.0149  0.4116
19208TIP3   OH279114   6.411   3.222  13.686 -0.1226  0.4337  0.0049
19208TIP3    H179115   6.506   3.227  13.695 -0.1096 -1.3730  1.3588
19208TIP3    H279116   6.396   3.188  13.598  0.4544  1.1882 -0.3887
19209TIP3   OH279117   0.293   4.234  14.179 -0.2245  0.9548 -0.2901
19209TIP3    H179118   0.232   4.166  14.151 -0.2211  1.0564 -0.5434
19209TIP3    H279119   0.358   4.188  14.232  0.6202  0.5017 -1.6673
19210TIP3   OH279120   1.494   0.409  12.881  0.4976 -0.2575  0.7735
19210TIP3    H179121   1.512   0.455  12.964  0.2111 -0.3273  0.8740
19210TIP3    H279122   1.529   0.467  12.814 -1.0287  0.7515  0.7958
19211TIP3   OH279123   1.163   3.071   4.491 -0.2004  0.3962  0.6644
19211TIP3    H179124   1.078   3.026   4.492 -0.2077  0.2649 -1.3714
19211TIP3    H279125   1.144   3.157   4.452  0.6885  0.1115 -0.4448
19212TIP3   OH279126   2.102   2.466   5.568 -0.0888  0.2025  0.0602
19212TIP3    H179127   2.034   2.443   5.632  0.2866 -0.1209  0.3494
19212TIP3    H279128   2.119   2.559   5.583  1.3931 -0.2832  1.8156
19213TIP3   OH279129   4.717   1.202  12.376 -0.0190  0.0793  0.7873
19213TIP3    H179130   4.795   1.179  12.426  0.1797 -2.7684 -0.6267
19213TIP3    H279131   4.645   1.160  12.423 -0.0188 -1.3626 -0.4293
19214TIP3   OH279132   5.607   2.596   1.845  0.4559 -0.8934 -0.1668
19214TIP3    H179133   5.669   2.616   1.774 -0.8554 -1.1355 -1.4305
19214TIP3    H279134   5.596   2.501   1.841 -2.0924 -0.6138 -1.8674
19215TIP3   OH279135   4.854   1.143   2.149  0.0407  0.5198  0.3658
19215TIP3    H179136   4.763   1.147   2.120  0.3113  2.6389 -0.3643
19215TIP3    H279137   4.904   1.178   2.075  1.2142  1.5809  1.6160
19216TIP3   OH279138   5.379   0.699  12.191  0.1970  0.1221  0.7444
19216TIP3    H179139   5.474   0.694  12.203 -0.0736 -1.3703  2.7240
19216TIP3    H279140   5.364   0.785  12.152  2.3258  0.4962  0.6580
19217TIP3   OH279141   3.425   1.118  17.005 -0.1235 -0.4417 -0.1158
19217TIP3    H179142   3.421   1.045  16.943 -1.1128 -2.4715  2.1171
19217TIP3    H279143   3.370   1.089  17.078  1.0608  1.7277  1.7613
19218TIP3   OH279144   4.561   5.409   0.204 -0.7199  0.3426  0.4423
19218TIP3    H179145   4.504   5.333   0.213 -0.1360 -0.1660 -0.0445
19218TIP3    H279146   4.548   5.439   0.114  0.2805 -0.1999  0.1065
19219TIP3   OH279147   4.642   1.319   3.966 -0.2233  0.8334 -0.2962
19219TIP3    H179148   4.607   1.245   3.917  0.6546 -0.3376  0.7780
19219TIP3    H279149   4.567   1.353   4.015 -0.8877  1.4116 -1.6806
19220TIP3   OH279150   6.173   3.631  14.334  0.5059 -0.0428 -0.0375
19220TIP3    H179151   6.254   3.580  14.334 -0.7983 -2.2510  0.1086
19220TIP3    H279152   6.149   3.638  14.242  1.1034  1.0838 -0.1245
19221TIP3   OH279153   0.160   5.918   2.117  0.3821  0.2132  0.9004
19221TIP3    H179154   0.088   5.856   2.103  0.8910  0.1862 -2.6953
19221TIP3    H279155   0.231   5.864   2.152  0.0800 -0.8025  0.0298
19222TIP3   OH279156   2.706   1.537  17.184  0.0763  0.0322  0.1874
19222TIP3    H179157   2.721   1.495  17.268  2.2606  0.6364  0.1596
19222TIP3    H279158   2.789   1.527  17.136 -0.6096  0.9968 -1.2980
19223TIP3   OH279159   0.945   6.212   4.417 -0.3551 -0.7759 -0.5893
19223TIP3    H179160   1.030   6.221   4.374  0.2760  0.3817  0.8014
19223TIP3    H279161   0.884   6.259   4.361  0.2901 -0.0140 -0.6765
19224TIP3   OH279162   1.008   2.204   1.690  0.3091 -0.2218  0.1195
19224TIP3    H179163   1.022   2.134   1.754  2.3153  1.2331  1.3826
19224TIP3    H279164   1.084   2.201   1.633  0.2897  0.7563  0.0211
19225TIP3   OH279165   4.894   3.894   5.876 -0.1052  0.2340 -0.0994
19225TIP3    H179166   4.837   3.830   5.833 -2.0161  1.4814  0.4598
19225TIP3    H279167   4.839   3.971   5.887  1.5638  1.3227  0.9650
19226TIP3   OH279168   2.209   5.771  12.984 -0.8432  0.1836 -0.1422
19226TIP3    H179169   2.296   5.759  12.946 -1.8240 -1.4520 -2.0603
19226TIP3    H279170   2.209   5.862  13.015  1.9220 -0.1337  1.0770
19227TIP3   OH279171   2.357   3.406   5.886  0.4414  1.0263  0.5927
19227TIP3    H179172   2.324   3.358   5.962  0.6796  0.8382  0.5786
19227TIP3    H279173   2.280   3.450   5.850  0.1319  0.3288  0.3701
19228TIP3   OH279174   6.333   1.489  13.390  0.1310  0.2559 -0.6157
19228TIP3    H179175   6.285   1.572  13.386  0.5177  0.6046  1.2879
19228TIP3    H279176   6.397   1.495  13.319  1.0740  2.1883  0.3345
19229TIP3   OH279177   5.183   2.767  14.281  0.1030 -1.2461 -0.4526
19229TIP3    H179178   5.215   2.677  14.286  1.4194 -0.7212  2.8390
19229TIP3    H279179   5.247   2.812  14.226  0.3297 -1.9933 -0.8137
19230TIP3   OH279180   2.714   6.634  11.227  0.0340 -0.1127 -0.0184
19230TIP3    H179181   2.633   6.649  11.178  0.5431  2.5192 -0.2209
19230TIP3    H279182   2.760   6.566  11.177 -1.4621 -0.7524 -0.5889
19231TIP3   OH279183   6.625   3.443  14.132  0.6700 -0.2235 -0.0849
19231TIP3    H179184   6.671   3.412  14.210  0.0666 -1.4807 -0.2086
19231TIP3    H279185   6.658   3.532  14.119  1.2584 -0.2262  1.2201
19232TIP3   OH279186   5.395   3.112   3.744  0.4297 -0.3450 -0.1006
19232TIP3    H179187   5.474   3.060   3.729  1.0942  0.3290  0.9381
19232TIP3    H279188   5.338   3.056   3.797  0.9813 -0.1668  0.6882
19233TIP3   OH279189   0.396   6.791  11.142  0.3604 -0.0538  0.0742
19233TIP3    H179190   0.449   6.870  11.150  1.8445 -0.8598 -1.1904
19233TIP3    H279191   0.319   6.818  11.092 -0.3869  1.0862  1.7435
19234TIP3   OH279192   0.718   2.678  12.278 -0.6136 -0.7631  0.2051
19234TIP3    H179193   0.773   2.611  12.237 -0.6629 -0.9197  0.3941
19234TIP3    H279194   0.770   2.758  12.274  0.0884 -1.1364  1.3632
19235TIP3   OH279195   0.511   4.198  15.712 -0.0945 -0.3341 -0.0392
19235TIP3    H179196   0.582   4.263  15.713 -0.3037  0.0923 -2.8809
19235TIP3    H279197   0.432   4.249  15.699 -0.7143 -0.9491  1.1869
19236TIP3   OH279198   0.177   0.350   4.688 -0.0441 -0.5076 -0.0017
19236TIP3    H179199   0.145   0.345   4.779 -1.3962  1.1124 -0.3282
19236TIP3    H279200   0.154   0.266   4.650 -0.9565 -0.6042  0.7221
19237TIP3   OH279201   0.901   4.202  15.995  0.1758 -0.1707 -0.3212
19237TIP3    H179202   0.827   4.246  16.036  1.0182  1.0218 -0.0310
19237TIP3    H279203   0.941   4.269  15.939  0.0846 -1.2583 -1.7616
19238TIP3   OH279204   3.834   5.241  13.840 -0.1998  0.1241  0.1385
19238TIP3    H179205   3.781   5.164  13.823 -0.4750  0.6453 -1.4471
19238TIP3    H279206   3.798   5.309  13.784  0.2212  1.3552  1.2893
19239TIP3   OH279207   6.418   2.516   2.205  0.1413  0.0504  0.3550
19239TIP3    H179208   6.497   2.534   2.154 -0.8014 -0.4845 -1.3602
19239TIP3    H279209   6.346   2.545   2.149 -0.8994  0.8396  2.0163
19240TIP3   OH279210   1.783   5.018  14.479  0.7161  0.3300  0.4006
19240TIP3    H179211   1.740   5.011  14.394  0.3890 -0.5708  0.6237
19240TIP3    H279212   1.869   4.977  14.465  0.2957 -0.7023  0.7297
19241TIP3   OH279213   4.404   3.621   3.033  0.4312  0.5342 -0.1080
19241TIP3    H179214   4.473   3.582   3.087  0.3998 -0.4001 -0.7331
19241TIP3    H279215   4.434   3.610   2.943 -0.2666  0.6314 -0.3595
19242TIP3   OH279216   3.095   3.298  14.114  0.0918 -0.3809 -0.3988
19242TIP3    H179217   3.030   3.333  14.054  0.2130 -0.7418 -0.7470
19242TIP3    H279218   3.046   3.275  14.193 -0.3551 -1.4674 -0.9814
19243TIP3   OH279219   6.374   0.624   2.546  0.2751 -0.0880  0.5698
19243TIP3    H179220   6.338   0.583   2.625  0.5821 -0.3714  0.5655
19243TIP3    H279221   6.468   0.605   2.550  0.4697  0.8940  0.7270
19244TIP3   OH279222   2.103   1.759   5.809  0.0968  0.0365 -0.2399
19244TIP3    H179223   2.070   1.820   5.743  1.8480 -0.1081 -1.2979
19244TIP3    H279224   2.145   1.815   5.874 -0.0439  0.0677 -0.1750
19245TIP3   OH279225   1.044   1.440  11.972 -0.3639 -0.2264  0.1409
19245TIP3    H179226   0.975   1.438  11.906  0.5343 -1.2778 -0.7979
19245TIP3    H279227   1.050   1.350  12.004  1.5977 -0.5107 -0.9049
19246TIP3   OH279228   4.311   0.629  10.964  0.3854  0.3867 -0.0771
19246TIP3    H179229   4.268   0.714  10.954  0.3526  0.5023  0.9591
19246TIP3    H279230   4.263   0.571  10.905 -0.2279  0.8634 -0.0525
19247TIP3   OH279231   3.696   5.899   4.143  0.1881 -0.1762 -0.4189
19247TIP3    H179232   3.763   5.957   4.182  0.2247 -0.8366  0.5393
19247TIP3    H279233   3.722   5.811   4.170 -1.4663 -0.3960  0.6119
19248TIP3   OH279234   4.092   0.068   1.371  0.4119  0.1073 -0.8302
19248TIP3    H179235   4.088  -0.015   1.324  1.1600  1.4249 -3.4443
19248TIP3    H279236   4.044   0.129   1.315  0.1303  1.5413  0.8708
19249TIP3   OH279237   1.264   3.045   2.157  0.3799 -0.1526 -0.4736
19249TIP3    H179238   1.263   2.949   2.151 -3.0925 -0.1807 -1.6271
19249TIP3    H279239   1.228   3.074   2.074 -2.2191  1.9458  1.2342
19250TIP3   OH279240   1.393   2.188   2.302 -0.5805 -0.2187  0.0676
19250TIP3    H179241   1.402   2.095   2.319 -0.0161  0.0723  1.4691
19250TIP3    H279242   1.478   2.214   2.265 -0.2042 -0.0069  1.0341
19251TIP3   OH279243   3.534   4.797  15.120  0.0305 -0.4149 -0.1597
19251TIP3    H179244   3.545   4.861  15.191 -0.5959  0.7194 -1.0506
19251TIP3    H279245   3.563   4.715  15.158 -0.8087  0.0424  1.6240
19252TIP3   OH279246   1.059   1.616  15.811 -0.1152 -0.1691  0.4447
19252TIP3    H179247   1.047   1.637  15.904 -0.2177  1.2650  0.1310
19252TIP3    H279248   1.037   1.697  15.766 -1.2602 -1.2030 -0.9203
19253TIP3   OH279249   6.498   1.872  11.687  0.7477 -0.2622  0.2769
19253TIP3    H179250   6.446   1.907  11.760  1.8617  0.8192  0.5762
19253TIP3    H279251   6.492   1.777  11.698 -0.9167 -0.1741  0.4591
19254TIP3   OH279252   1.648   2.609   0.376  0.0480 -0.2141  0.8271
19254TIP3    H179253   1.615   2.546   0.441 -1.3532 -1.7325 -1.2390
19254TIP3    H279254   1.741   2.618   0.398  0.0575 -2.2123  1.8701
19255TIP3   OH279255   5.586   1.450  11.699  0.1847 -0.2257 -0.4158
19255TIP3    H179256   5.673   1.476  11.728  0.1113  0.2437 -0.6213
19255TIP3    H279257   5.532   1.451  11.778  0.2887 -0.1983 -0.3453
19256TIP3   OH279258   1.117   6.762  11.947 -0.0929 -0.2486 -0.4154
19256TIP3    H179259   1.157   6.760  11.860  0.6233  1.0137 -0.1370
19256TIP3    H279260   1.158   6.689  11.994 -0.2417 -0.7304 -1.0181
19257TIP3   OH279261   4.640   2.596  14.116 -0.2211 -0.6093  0.1946
19257TIP3    H179262   4.593   2.513  14.117 -0.3181 -0.5884 -1.1172
19257TIP3    H279263   4.583   2.655  14.066  0.1576  0.0582  0.5340
19258TIP3   OH279264   2.500   5.450  12.033 -0.1239  0.1512 -0.6332
19258TIP3    H179265   2.513   5.373  11.978 -0.3993  0.1542 -0.7040
19258TIP3    H279266   2.581   5.500  12.024  1.0763 -1.2909  1.2743
19259TIP3   OH279267   3.063   6.810   4.668 -0.0196  0.4571 -0.3874
19259TIP3    H179268   3.092   6.723   4.697  0.9042  1.3859  1.7013
19259TIP3    H279269   3.078   6.810   4.574  2.4364 -0.7879 -0.0714
19260TIP3   OH279270   5.274   1.076  11.045  0.2049  0.4745  0.5149
19260TIP3    H179271   5.286   1.163  11.007  0.3657  1.0013  1.7179
19260TIP3    H279272   5.218   1.030  10.983  2.5979  0.3611 -1.6906
19261TIP3   OH279273   1.135   3.090   1.101 -0.5224 -0.1583 -0.3503
19261TIP3    H179274   1.125   3.144   1.180  0.4896 -0.2777 -0.1188
19261TIP3    H279275   1.130   3.152   1.028  1.2437  0.3752 -0.0615
19262TIP3   OH279276   2.508   0.832  13.767 -0.2990  0.4797  0.0968
19262TIP3    H179277   2.501   0.860  13.858  0.8904  1.6442 -0.1389
19262TIP3    H279278   2.536   0.910  13.720 -1.5169  0.0575 -1.3944
19263TIP3   OH279279   6.114   3.010   5.445 -0.2870  0.5139  0.0478
19263TIP3    H179280   6.023   3.040   5.443 -0.5755  0.0223  2.6071
19263TIP3    H279281   6.111   2.929   5.496  1.1754 -1.2874 -2.5273
19264TIP3   OH279282   5.336   0.806   5.252  0.6763 -0.2503 -0.0624
19264TIP3    H179283   5.382   0.793   5.169  0.4690 -1.3033 -0.0305
19264TIP3    H279284   5.405   0.814   5.317  0.8370  0.2580 -0.2959
19265TIP3   OH279285   2.869   1.112   1.706 -0.2713 -0.0598  0.0982
19265TIP3    H179286   2.879   1.133   1.613 -0.2087  0.2599  0.1728
19265TIP3    H279287   2.894   1.020   1.713  1.4987  0.3780  0.0798
19266TIP3   OH279288   0.054   5.237  12.885 -0.2080  0.2330  0.5675
19266TIP3    H179289   0.096   5.170  12.940 -0.5387 -1.7497 -1.4385
19266TIP3    H279290   0.108   5.240  12.806  0.2983  3.0730  0.9068
19267TIP3   OH279291   1.912   5.986   0.738 -0.0520  0.0176  0.3294
19267TIP3    H179292   1.847   6.030   0.794 -0.7880 -0.3289 -0.2392
19267TIP3    H279293   1.913   6.038   0.658  0.1374 -0.1595  0.2173
19268TIP3   OH279294   0.971   0.873   0.644 -0.6776  0.6303  0.4256
19268TIP3    H179295   1.066   0.878   0.657 -0.8589  1.7067  1.4633
19268TIP3    H279296   0.961   0.841   0.554  0.6608  1.2792  0.0246
19269TIP3   OH279297   1.926   2.101  15.681  0.0995 -0.3989  0.8174
19269TIP3    H179298   2.021   2.108  15.671  0.1068 -0.5180  0.7985
19269TIP3    H279299   1.914   2.048  15.759  0.0334  1.6867  2.3012
19270TIP3   OH279300   3.105   3.697  16.680  0.4775 -0.2709  0.2112
19270TIP3    H179301   3.186   3.728  16.638 -0.2150  0.5298 -0.5693
19270TIP3    H279302   3.035   3.729  16.623 -0.4060 -0.7581  1.0065
19271TIP3   OH279303   2.230   2.518   5.869  0.1969 -0.3481  0.3664
19271TIP3    H179304   2.276   2.536   5.951  0.1849  0.2442  0.2511
19271TIP3    H279305   2.137   2.527   5.891  0.2238  0.7808  0.0796
19272TIP3   OH279306   3.881   6.237  15.393  0.2430  0.2224 -0.1405
19272TIP3    H179307   3.941   6.220  15.321  0.1481  0.3595 -0.2507
19272TIP3    H279308   3.888   6.331  15.409  0.6700  0.1088  0.3857
19273TIP3   OH279309   4.966   4.461   3.158  0.6964 -0.2289  0.0728
19273TIP3    H179310   4.897   4.522   3.182  0.8870 -0.5607  1.5831
19273TIP3    H279311   4.960   4.454   3.063 -0.5801  0.6397  0.0621
19274TIP3   OH279312   5.106   2.501  10.293  0.7057  0.1469 -0.0325
19274TIP3    H179313   5.182   2.450  10.266  1.3011 -0.0730  1.8502
19274TIP3    H279314   5.032   2.458  10.251  1.1773 -2.3509  1.4411
19275TIP3   OH279315   6.218   5.819   4.693  0.6260  0.1176  0.0675
19275TIP3    H179316   6.256   5.904   4.715  0.8381 -0.2173  1.0560
19275TIP3    H279317   6.208   5.774   4.778 -1.4914 -0.0087 -0.1790
19276TIP3   OH279318   0.793   1.820   2.994 -0.1529 -0.5032  0.1987
19276TIP3    H179319   0.728   1.764   3.036  1.7953 -1.9015  1.5458
19276TIP3    H279320   0.871   1.811   3.048  0.5296  2.9616  0.0156
19277TIP3   OH279321   6.638   4.214  11.898 -0.0261  0.0992 -0.2026
19277TIP3    H179322   6.560   4.184  11.852  1.4207  0.6414 -3.2742
19277TIP3    H279323   6.623   4.307  11.915  0.0466  0.2853 -1.1067
19278TIP3   OH279324   3.960   0.900   5.785  0.7930 -0.2047 -0.1938
19278TIP3    H179325   3.958   0.847   5.866  0.6467 -0.1374 -0.1538
19278TIP3    H279326   3.934   0.839   5.717 -1.5206  0.3365  0.1392
19279TIP3   OH279327   0.526   4.321  12.283 -0.9571  0.3143 -0.5903
19279TIP3    H179328   0.508   4.415  12.290 -2.7967 -0.0852  0.8510
19279TIP3    H279329   0.465   4.280  12.344 -0.5827 -1.8847 -1.5881
19280TIP3   OH279330   4.650   6.312   2.391  0.4866  0.4792 -0.1604
19280TIP3    H179331   4.603   6.346   2.467 -2.1563 -2.6940 -0.1414
19280TIP3    H279332   4.732   6.277   2.426 -0.1313  0.1975  1.0444
19281TIP3   OH279333   1.935   1.413  17.184  0.2958 -0.2551  0.0754
19281TIP3    H179334   1.927   1.336  17.240 -1.5039 -1.3457 -1.5338
19281TIP3    H279335   2.000   1.388  17.118  0.2852 -0.0974  0.0039
19282TIP3   OH279336   0.804   4.925   6.010  0.1542  0.2432 -0.0607
19282TIP3    H179337   0.759   5.004   6.042 -0.6455 -0.1324 -0.2297
19282TIP3    H279338   0.853   4.955   5.934 -0.8904  0.4126 -0.6943
19283TIP3   OH279339   6.733   0.882   2.913  0.3465 -0.6848 -0.4584
19283TIP3    H179340   6.826   0.859   2.913  0.5258 -0.0041 -1.0433
19283TIP3    H279341   6.722   0.937   2.836 -0.4902 -0.5337 -0.2421
19284TIP3   OH279342   5.670   0.092   3.405  0.2128 -0.6782  0.4730
19284TIP3    H179343   5.714   0.017   3.445 -1.1139 -1.5962  0.2589
19284TIP3    H279344   5.599   0.114   3.465  1.2035  1.1273  1.0789
19285TIP3   OH279345   4.889   4.272   4.840  0.0998  0.3501  0.8289
19285TIP3    H179346   4.852   4.342   4.893  0.4601  2.1597 -1.1785
19285TIP3    H279347   4.843   4.277   4.757  0.8522 -1.1420  0.2692
19286TIP3   OH279348   3.632   2.546   5.203 -0.1032  0.9708  0.0822
19286TIP3    H179349   3.637   2.460   5.161 -0.8338  0.3511  1.1892
19286TIP3    H279350   3.721   2.579   5.202  0.2094  0.1375 -0.2661
19287TIP3   OH279351   6.511   3.610   3.834  0.1746 -0.0316  0.1815
19287TIP3    H179352   6.509   3.527   3.786  1.4705  0.6526 -1.1303
19287TIP3    H279353   6.599   3.613   3.873  0.8363  1.4824 -1.2874
19288TIP3   OH279354   0.633   4.376  17.008 -0.1083 -0.4610  0.0245
19288TIP3    H179355   0.591   4.363  16.923  2.3334 -2.3201 -1.0503
19288TIP3    H279356   0.685   4.456  16.997  0.2109 -0.7039 -0.2528
19289TIP3   OH279357   3.941   3.312  14.554  0.0094  0.1850  0.5458
19289TIP3    H179358   3.866   3.352  14.510 -0.4838 -1.2483  0.0173
19289TIP3    H279359   4.017   3.355  14.515 -0.5070  1.0677  0.4789
19290TIP3   OH279360   2.204   6.288  16.223  0.2018 -0.3229 -0.2371
19290TIP3    H179361   2.247   6.282  16.308 -0.1289 -2.1099 -0.1608
19290TIP3    H279362   2.276   6.302  16.161  0.4319  1.1574  0.3030
19291TIP3   OH279363   5.802   3.972  15.750 -0.1551 -0.5090  0.4368
19291TIP3    H179364   5.840   3.911  15.814 -0.8074  1.2941  2.6775
19291TIP3    H279365   5.874   4.032  15.729  0.9458 -2.7720 -2.9493
19292TIP3   OH279366   3.460   5.810   3.380  0.1370  0.0199 -0.2599
19292TIP3    H179367   3.506   5.786   3.300 -1.0458  0.2103 -1.0209
19292TIP3    H279368   3.505   5.761   3.449 -0.9438 -2.8893 -1.4814
19293TIP3   OH279369   1.028   1.432  15.117  0.1003 -0.2182  0.0152
19293TIP3    H179370   1.059   1.396  15.034 -3.2022 -1.1708 -0.9720
19293TIP3    H279371   1.054   1.524  15.114  1.4217 -0.5898 -1.3047
19294TIP3   OH279372   3.369   5.797  14.394 -0.2372  0.4534 -0.5490
19294TIP3    H179373   3.385   5.798  14.300  0.7592  3.1424 -0.4505
19294TIP3    H279374   3.313   5.873  14.409 -0.1625  0.2171  1.0430
19295TIP3   OH279375   2.947   3.149  16.006  0.3251 -0.2882  0.6658
19295TIP3    H179376   2.864   3.147  15.959 -0.0493 -0.5812  1.3319
19295TIP3    H279377   2.937   3.085  16.076  0.4154  1.0284  1.9224
19296TIP3   OH279378   6.299   1.460   3.223 -0.7505  0.6438  0.1607
19296TIP3    H179379   6.395   1.467   3.230 -0.8535  1.4153  1.0119
19296TIP3    H279380   6.267   1.491   3.308 -1.6839 -1.8898  0.8263
19297TIP3   OH279381   3.369   6.137   1.437  0.2668 -0.6588 -0.2942
19297TIP3    H179382   3.285   6.093   1.452 -0.7827  1.9182  2.6150
19297TIP3    H279383   3.426   6.104   1.506 -0.0345  1.1730  0.9047
19298TIP3   OH279384   1.398   5.818  14.885  0.0827 -0.0941 -0.6538
19298TIP3    H179385   1.465   5.842  14.949  0.1874  1.9786 -1.4674
19298TIP3    H279386   1.336   5.764  14.934  1.1949 -0.2092  0.6724
19299TIP3   OH279387   0.140   5.660  13.114  0.4599 -0.6293  0.2831
19299TIP3    H179388   0.166   5.642  13.204 -0.0140 -1.3023  0.2837
19299TIP3    H279389   0.046   5.644  13.111  0.2286  0.6271 -0.0261
19300TIP3   OH279390   5.582   2.353   1.610  0.5504 -0.2159  0.7601
19300TIP3    H179391   5.576   2.448   1.611 -0.6430 -0.2639  0.0054
19300TIP3    H279392   5.648   2.334   1.543  0.4583  0.0563  0.5919
19301TIP3   OH279393   3.816   5.937  16.470  0.0285 -0.0468 -0.2348
19301TIP3    H179394   3.860   6.007  16.518  0.6599 -1.7675  1.8393
19301TIP3    H279395   3.728   5.933  16.508  0.3313 -1.0179  0.3940
19302TIP3   OH279396   3.471   6.442   5.041 -0.1931 -0.0348  0.7284
19302TIP3    H179397   3.503   6.532   5.054  1.0342 -0.5355  1.3334
19302TIP3    H279398   3.456   6.409   5.129 -1.4909 -0.1554  0.4821
19303TIP3   OH279399   2.035   2.727   2.192 -0.0414 -0.3026  0.2087
19303TIP3    H179400   2.074   2.801   2.144 -0.6064 -1.0820 -1.5256
19303TIP3    H279401   2.007   2.765   2.275 -1.0312  1.6331 -0.9363
19304TIP3   OH279402   5.990   0.799   5.553  0.1937 -0.4767  0.0434
19304TIP3    H179403   6.068   0.745   5.565  0.1519 -0.2238  1.8669
19304TIP3    H279404   5.939   0.783   5.633 -1.3317 -0.1714 -0.8367
19305TIP3   OH279405   3.965   3.387   2.819 -0.1717  0.0510 -0.5220
19305TIP3    H179406   3.914   3.451   2.769  0.9363  0.4142 -1.2212
19305TIP3    H279407   4.032   3.440   2.863  0.5993 -0.5815 -0.8985
19306TIP3   OH279408   6.478   5.536   6.016 -0.2618  0.6981 -0.2025
19306TIP3    H179409   6.423   5.473   5.970  1.5716 -1.2069  0.0883
19306TIP3    H279410   6.442   5.622   5.990 -2.4630 -0.3958 -1.0580
19307TIP3   OH279411   6.019   2.703  12.452  0.0814 -0.1591 -0.1652
19307TIP3    H179412   6.034   2.704  12.357 -0.4459  0.7624 -0.2526
19307TIP3    H279413   6.091   2.651  12.487  0.7556  0.1825 -0.9981
19308TIP3   OH279414   4.610   1.417  13.913  0.5938  0.3887  0.0984
19308TIP3    H179415   4.564   1.336  13.934  2.8955 -1.1443 -0.3988
19308TIP3    H279416   4.549   1.486  13.939 -2.2145 -1.4384 -1.0990
19309TIP3   OH279417   2.028   5.472   2.042 -0.3385 -0.3829  0.1179
19309TIP3    H179418   1.942   5.430   2.042  0.1833 -1.5137  1.4522
19309TIP3    H279419   2.009   5.564   2.060 -1.4199 -0.1460 -1.9251
19310TIP3   OH279420   0.692   3.007   2.454  0.0336  0.3398 -0.4562
19310TIP3    H179421   0.704   3.066   2.379  1.3475  0.6824  0.0092
19310TIP3    H279422   0.598   3.014   2.474 -0.9661 -1.6726 -3.6070
19311TIP3   OH279423   2.540   0.801  11.752  0.1885  0.2620  0.2541
19311TIP3    H179424   2.623   0.764  11.723  0.2801  0.6518  0.0048
19311TIP3    H279425   2.542   0.795  11.848  0.7213  0.7242  0.2736
19312TIP3   OH279426   1.725   2.188  15.533  0.1027  0.2601  0.1823
19312TIP3    H179427   1.712   2.094  15.546  0.3245  0.2388  0.2551
19312TIP3    H279428   1.807   2.208  15.579  0.5047  0.3279 -0.5597
19313TIP3   OH279429   0.147   3.099  14.999 -0.2721 -0.0515 -0.3499
19313TIP3    H179430   0.171   3.170  14.939  3.1426 -0.7693  0.0047
19313TIP3    H279431   0.172   3.132  15.086 -0.8961 -0.7898  0.1178
19314TIP3   OH279432   1.147   4.176  13.373  0.2613 -0.0534 -0.2604
19314TIP3    H179433   1.069   4.141  13.415 -0.2441 -1.2066 -2.0296
19314TIP3    H279434   1.114   4.224  13.297  1.2286 -0.0662 -0.7077
19315TIP3   OH279435   6.142   3.713   2.716 -0.1148  0.0918  0.3954
19315TIP3    H179436   6.084   3.778   2.677 -0.1242 -0.0522  0.1688
19315TIP3    H279437   6.216   3.764   2.750 -1.0619  0.4536  2.0271
19316TIP3   OH279438   6.498   1.630   4.418 -0.6840 -0.2151 -0.6370
19316TIP3    H179439   6.554   1.558   4.446 -1.4017 -1.0671 -1.3136
19316TIP3    H279440   6.551   1.708   4.431 -0.2085 -0.7624  0.9559
19317TIP3   OH279441   3.880   1.322   1.707 -0.5566  0.2487 -0.1807
19317TIP3    H179442   3.929   1.241   1.691  0.3947  1.1377 -2.1231
19317TIP3    H279443   3.803   1.295   1.756 -0.3433 -1.8621 -0.9318
19318TIP3   OH279444   3.251   0.469  15.070 -0.2075  0.1339  0.1775
19318TIP3    H179445   3.323   0.528  15.047  0.6611 -0.4297  1.3253
19318TIP3    H279446   3.199   0.518  15.134 -0.1131  0.0776  0.2993
19319TIP3   OH279447   6.294   2.095   0.450 -0.0543 -0.3602 -0.2833
19319TIP3    H179448   6.202   2.096   0.424 -0.2436  0.1660  0.3686
19319TIP3    H279449   6.322   2.004   0.437 -0.8317 -0.6607  0.0714
19320TIP3   OH279450   3.710   6.223   2.948  0.4064 -0.0622 -0.3050
19320TIP3    H179451   3.802   6.210   2.928  0.6489 -1.5986  1.5745
19320TIP3    H279452   3.698   6.187   3.036 -1.7719  1.0349 -0.0700
19321TIP3   OH279453   3.580   4.885  16.655 -0.2184  0.2199 -0.2063
19321TIP3    H179454   3.543   4.847  16.734 -0.3450  1.6603  0.4564
19321TIP3    H279455   3.673   4.861  16.658 -0.5693 -1.3039 -0.6070
19322TIP3   OH279456   2.084   4.046   4.679  0.0016  0.0847 -0.3656
19322TIP3    H179457   2.147   4.059   4.749  1.5942  0.1330 -1.7490
19322TIP3    H279458   2.000   4.036   4.724  0.8523  0.8071  1.4918
19323TIP3   OH279459   5.144   1.207   3.219  0.1705  0.4318 -0.5160
19323TIP3    H179460   5.127   1.292   3.178  1.4204  1.0792  0.2549
19323TIP3    H279461   5.161   1.148   3.146 -0.0499  0.9953 -1.0331
19324TIP3   OH279462   2.106   0.726  13.675 -0.8405  0.2932 -0.3191
19324TIP3    H179463   2.036   0.737  13.612 -1.1173  1.7837  0.1972
19324TIP3    H279464   2.090   0.641  13.716 -1.5351  0.0120 -1.1657
19325TIP3   OH279465   1.861   4.678  14.605  0.0919  0.0807 -0.2082
19325TIP3    H179466   1.827   4.687  14.516  0.4613  0.0364 -0.3547
19325TIP3    H279467   1.955   4.666  14.594  0.2555  0.8970  0.2285
19326TIP3   OH279468   1.306   1.313   4.265  0.1519 -0.3263  0.0862
19326TIP3    H179469   1.264   1.380   4.320 -0.8491  0.7683 -1.9091
19326TIP3    H279470   1.379   1.359   4.224  0.3707 -0.8967 -0.1665
19327TIP3   OH279471   5.343   5.390  13.795 -0.3105  0.4641  0.2293
19327TIP3    H179472   5.363   5.337  13.718 -2.3554  0.3264 -0.2538
19327TIP3    H279473   5.391   5.348  13.866 -0.5471 -1.0321 -0.4578
19328TIP3   OH279474   2.335   0.353  10.601  0.5801 -0.9580 -0.1218
19328TIP3    H179475   2.420   0.348  10.557  0.7358  0.6436 -0.0664
19328TIP3    H279476   2.292   0.428  10.561 -0.0992 -0.6995  1.0399
19329TIP3   OH279477   6.373   5.702  15.593 -0.1295  0.0482 -0.2506
19329TIP3    H179478   6.311   5.639  15.556  0.2186 -0.4406 -0.0156
19329TIP3    H279479   6.388   5.672  15.683 -2.0766  2.0337  0.8366
19330TIP3   OH279480   5.131   5.022   1.700  0.3072 -0.2588 -0.2938
19330TIP3    H179481   5.211   4.971   1.698 -0.0985 -0.8901 -1.5503
19330TIP3    H279482   5.157   5.106   1.737  1.7220 -0.1790 -1.3832
19331TIP3   OH279483   3.123   5.506  15.134  0.0412 -0.0386  0.5421
19331TIP3    H179484   3.158   5.421  15.159  1.3102  0.5937  1.0077
19331TIP3    H279485   3.129   5.508  15.039  2.3418  0.4475  0.6438
19332TIP3   OH279486   2.012   3.807  11.504 -0.3234  0.8312  0.1552
19332TIP3    H179487   1.997   3.778  11.414 -1.6603  0.3765  0.4917
19332TIP3    H279488   1.968   3.891  11.510 -3.6046 -0.7748  1.3143
19333TIP3   OH279489   5.991   1.773   5.493  0.0850 -0.1325  0.5040
19333TIP3    H179490   5.987   1.710   5.565 -3.0870  0.2112  0.8117
19333TIP3    H279491   5.939   1.847   5.525  3.1529  2.4844 -0.0770
19334TIP3   OH279492   5.767   4.688   1.206  0.0780 -0.1999  0.2415
19334TIP3    H179493   5.743   4.601   1.237 -0.9521 -0.0296 -0.0157
19334TIP3    H279494   5.758   4.683   1.110 -1.2507  0.5185  0.3006
19335TIP3   OH279495   5.193   0.193  15.965 -0.3807 -0.5161 -0.1279
19335TIP3    H179496   5.240   0.118  15.930 -1.1269 -0.6889 -0.7955
19335TIP3    H279497   5.261   0.253  15.995  0.3034 -0.2818 -2.0608
19336TIP3   OH279498   3.156   3.706   5.977 -0.2344  0.4871 -0.4945
19336TIP3    H179499   3.121   3.782   6.023 -0.2557 -0.5088  1.1900
19336TIP3    H279500   3.225   3.673   6.034 -0.8160 -1.2687 -0.7518
19337TIP3   OH279501   6.607   4.603   1.557 -0.5939  0.4062  0.3415
19337TIP3    H179502   6.528   4.583   1.508  0.2046  0.0867 -0.8575
19337TIP3    H279503   6.604   4.546   1.634 -0.6954 -0.8522 -0.5763
19338TIP3   OH279504   1.836   0.877  15.533 -0.0396 -0.0758  0.1584
19338TIP3    H179505   1.817   0.969  15.551 -0.0131 -0.4096  2.1794
19338TIP3    H279506   1.762   0.830  15.571 -0.8104 -0.8795 -2.1494
19339TIP3   OH279507   6.032   6.727  16.339  0.4861 -0.1793  0.1334
19339TIP3    H179508   6.043   6.697  16.429  0.4167 -3.2266 -0.7663
19339TIP3    H279509   5.943   6.701  16.315 -0.5110  2.9866 -0.0873
19340TIP3   OH279510   4.114   3.116   1.963 -0.7030 -0.0283 -0.1030
19340TIP3    H179511   4.132   3.181   1.895  1.2893 -1.2633 -0.8488
19340TIP3    H279512   4.162   3.038   1.935  0.4118 -0.5306  2.8157
19341TIP3   OH279513   2.333   1.804   6.245  0.1161  0.0943 -0.3487
19341TIP3    H179514   2.279   1.728   6.267  1.4020 -1.1999 -1.4677
19341TIP3    H279515   2.286   1.846   6.172 -0.5064  0.2938  0.1572
19342TIP3   OH279516   1.927   4.990  13.444  0.0053 -0.1183 -0.3583
19342TIP3    H179517   1.935   4.956  13.355 -1.1578  1.0190 -0.9224
19342TIP3    H279518   1.912   5.084  13.433 -2.3505 -0.2750  0.9083
19343TIP3   OH279519   2.094   3.886   5.704 -0.6624  0.2351  0.4779
19343TIP3    H179520   2.041   3.886   5.784 -2.9256 -2.0288 -0.8798
19343TIP3    H279521   2.128   3.976   5.698 -1.1223  0.7234  3.4506
19344TIP3   OH279522   2.464   0.578   5.442 -0.1349  0.2305  0.7749
19344TIP3    H179523   2.525   0.536   5.381 -0.2935 -1.7079  1.8808
19344TIP3    H279524   2.453   0.667   5.407  1.2858 -0.1926 -0.8984
19345TIP3   OH279525   3.729   2.657   2.935 -0.1127 -0.1733  0.3865
19345TIP3    H179526   3.704   2.723   2.999 -0.7966 -2.3282  2.4721
19345TIP3    H279527   3.819   2.634   2.958 -0.5646 -1.3815  0.9805
19346TIP3   OH279528   6.375   0.688  13.590 -0.2331 -0.1631 -0.2316
19346TIP3    H179529   6.359   0.675  13.497 -0.2184 -0.4256 -0.1980
19346TIP3    H279530   6.352   0.779  13.606  1.3944  0.3896 -0.8362
19347TIP3   OH279531   5.002   6.089   3.146  1.1874 -0.4249  0.9906
19347TIP3    H179532   5.019   5.998   3.121 -0.4939  0.3846 -4.4269
19347TIP3    H279533   5.078   6.138   3.114 -0.3892  0.5242 -1.6808
19348TIP3   OH279534   2.383   2.327  13.081  0.2707 -0.3807  0.0205
19348TIP3    H179535   2.365   2.421  13.093 -1.8371 -0.7080 -0.1239
19348TIP3    H279536   2.418   2.321  12.992 -1.9043  0.0616 -0.9329
19349TIP3   OH279537   6.709   6.278   4.135 -0.4612 -0.6713  0.4846
19349TIP3    H179538   6.734   6.186   4.124  0.4994 -0.3547 -0.1028
19349TIP3    H279539   6.734   6.299   4.225  2.7555 -0.0116 -0.4207
19350TIP3   OH279540   1.750   1.187  11.576  0.3248  0.3027 -0.1415
19350TIP3    H179541   1.785   1.178  11.487 -0.7909 -1.1333 -0.4827
19350TIP3    H279542   1.705   1.104  11.592 -1.4821  1.4053  0.8712
19351TIP3   OH279543   4.705   3.954  13.598 -0.4364 -0.1243  0.3288
19351TIP3    H179544   4.640   3.949  13.527  2.8701 -1.8507 -2.9469
19351TIP3    H279545   4.682   3.881  13.656 -0.1071 -2.4211 -2.2012
19352TIP3   OH279546   2.242   0.371  17.021  0.3530  0.1329  0.0480
19352TIP3    H179547   2.283   0.448  17.061  0.3708  1.2825 -2.0476
19352TIP3    H279548   2.161   0.358  17.070  1.0639  0.5666  1.3661
19353TIP3   OH279549   5.080   0.167   1.436  0.0508 -0.1912 -0.1138
19353TIP3    H179550   5.105   0.205   1.521 -0.7464  0.4459 -0.1548
19353TIP3    H279551   4.994   0.205   1.417 -0.2118 -1.0865 -0.7520
19354TIP3   OH279552   5.358   5.128  13.443  0.0868 -0.0920 -0.4879
19354TIP3    H179553   5.440   5.083  13.425  0.5568 -0.2543  1.8026
19354TIP3    H279554   5.294   5.057  13.454  0.4406 -0.1598  1.3171
19355TIP3   OH279555   0.146   1.237   5.628  0.2740 -0.0499 -0.2551
19355TIP3    H179556   0.183   1.171   5.687 -0.6829 -0.2097  0.1721
19355TIP3    H279557   0.215   1.303   5.621  0.8208 -0.5603  0.1753
19356TIP3   OH279558   1.237   4.469  11.640  0.4487 -0.0000 -0.2047
19356TIP3    H179559   1.235   4.504  11.551  0.1844 -0.1625 -0.2618
19356TIP3    H279560   1.224   4.375  11.630 -0.3839  0.0755  0.0605
19357TIP3   OH279561   3.354   1.273  14.335 -0.1800 -0.6754  0.3418
19357TIP3    H179562   3.351   1.183  14.369  0.0081 -0.4170  1.0538
19357TIP3    H279563   3.303   1.269  14.254 -1.4508 -1.0956  1.1435
19358TIP3   OH279564   5.537   3.270  11.305  0.3320  0.2749  0.0222
19358TIP3    H179565   5.561   3.263  11.397  0.4427 -0.5073 -0.0664
19358TIP3    H279566   5.617   3.300  11.261  0.5714 -0.3618  0.0263
19359TIP3   OH279567   0.626   3.764   0.390 -0.2591  0.1620  0.3375
19359TIP3    H179568   0.678   3.800   0.461  1.0301  0.9033 -0.9343
19359TIP3    H279569   0.669   3.681   0.367  0.0333  0.4886 -0.3279
19360TIP3   OH279570   3.021   4.826  11.552 -0.5043  0.3684 -0.0361
19360TIP3    H179571   3.045   4.739  11.521 -0.8467 -0.1533  1.0996
19360TIP3    H279572   2.930   4.837  11.523 -1.2176 -0.5972  1.6973
19361TIP3   OH279573   2.709   4.772   4.764 -0.1742 -0.6561  0.0872
19361TIP3    H179574   2.661   4.738   4.839  0.2425 -0.7115  0.3301
19361TIP3    H279575   2.692   4.708   4.694 -0.9507 -0.3558 -0.0132
19362TIP3   OH279576   2.940   2.928  13.925  0.0075  0.0072 -0.3308
19362TIP3    H179577   2.864   2.986  13.924  1.0364  1.4910  1.3150
19362TIP3    H279578   3.013   2.985  13.897  0.9056 -0.7165  0.4671
19363TIP3   OH279579   0.330   5.301   5.221 -0.1321  0.3725  0.2733
19363TIP3    H179580   0.249   5.294   5.272 -1.4658 -0.2584 -1.8222
19363TIP3    H279581   0.359   5.210   5.211  1.1161  0.6186  1.3455
19364TIP3   OH279582   5.881   1.015  17.024  0.0097 -0.1944  0.4473
19364TIP3    H179583   5.880   0.947  17.090  0.8814  0.0702  0.7414
19364TIP3    H279584   5.881   1.097  17.073 -0.4703  0.0250  0.1035
19365TIP3   OH279585   5.457   6.192   4.232 -0.2205  0.2879 -0.3493
19365TIP3    H179586   5.375   6.191   4.282 -0.4227  1.2735 -0.6472
19365TIP3    H279587   5.516   6.246   4.284 -0.6540  1.9291 -1.4773
19366TIP3   OH279588   3.725   5.325   2.276  0.6556 -0.4926  0.5370
19366TIP3    H179589   3.644   5.274   2.277 -0.4646  1.1913  0.6349
19366TIP3    H279590   3.794   5.262   2.254 -0.7663 -1.8373 -0.2172
19367TIP3   OH279591   2.245   1.160   5.367  0.5189  0.3778 -0.0623
19367TIP3    H179592   2.247   1.115   5.451  0.4660  0.9255  0.2312
19367TIP3    H279593   2.333   1.193   5.355  0.3124  1.0191  0.1684
19368TIP3   OH279594   1.295   4.276   1.780 -0.5225 -0.2327  0.3084
19368TIP3    H179595   1.200   4.291   1.780 -0.9173 -2.3333 -1.2285
19368TIP3    H279596   1.312   4.231   1.863 -1.4032 -2.4483 -0.6462
19369TIP3   OH279597   1.951   5.529  16.703 -0.3368 -0.0552 -0.8369
19369TIP3    H179598   1.929   5.521  16.796  0.1187 -0.4655 -0.7595
19369TIP3    H279599   1.999   5.449  16.683  2.3031  1.3634 -0.6497
19370TIP3   OH279600   0.220   5.015  16.025  0.1029 -0.3166 -0.1192
19370TIP3    H179601   0.140   5.062  16.002  0.6236  1.2969  1.1945
19370TIP3    H279602   0.198   4.923  16.014 -1.0891  0.1626 -2.3747
19371TIP3   OH279603   4.558   2.946   0.486 -0.0210 -0.0773 -0.1773
19371TIP3    H179604   4.488   2.997   0.527  0.7084  0.8495 -0.0508
19371TIP3    H279605   4.552   2.967   0.393 -0.9655 -1.3148 -0.4209
19372TIP3   OH279606   4.811   4.614  11.605 -0.3870 -0.1199 -0.3925
19372TIP3    H179607   4.764   4.648  11.529  0.8516  1.1719 -0.6339
19372TIP3    H279608   4.850   4.532  11.575 -0.4107  0.0800 -0.9699
19373TIP3   OH279609   4.518   0.102  14.134 -0.2452  0.1048  0.6249
19373TIP3    H179610   4.603   0.061  14.152 -1.2855 -1.4125  2.5214
19373TIP3    H279611   4.509   0.168  14.202 -0.8260 -0.1518  0.7987
19374TIP3   OH279612   2.207   1.330   1.869  0.2579 -0.4583  0.4167
19374TIP3    H179613   2.277   1.375   1.821  0.4344 -1.8309 -0.6640
19374TIP3    H279614   2.233   1.338   1.961  0.7815  0.7831  0.1800
19375TIP3   OH279615   2.004   4.150  16.075 -0.0937 -0.0985  0.0264
19375TIP3    H179616   2.012   4.095  15.997 -0.3914 -1.5452  0.9729
19375TIP3    H279617   1.930   4.208  16.056 -1.6146 -1.9246  0.0502
19376TIP3   OH279618   6.053   1.253  13.688 -0.2977 -0.2403 -0.0542
19376TIP3    H179619   6.052   1.186  13.757 -0.4070 -0.2082 -0.0256
19376TIP3    H279620   6.010   1.329  13.727 -0.4328 -0.2490 -0.1859
19377TIP3   OH279621   0.932   1.962  14.365  0.1551 -0.3869  0.4150
19377TIP3    H179622   0.934   2.030  14.433 -1.3632  0.7203 -0.5871
19377TIP3    H279623   0.842   1.932  14.364  0.3643 -1.0127 -0.5436
19378TIP3   OH279624   2.102   2.438   3.711 -0.3061 -0.6759 -0.4868
19378TIP3    H179625   2.085   2.458   3.618  2.2055 -0.4308 -0.9464
19378TIP3    H279626   2.087   2.521   3.756  1.0633 -0.0762 -1.0832
19379TIP3   OH279627   3.201   2.992  10.634  0.2845 -0.3844  0.4203
19379TIP3    H179628   3.144   2.953  10.700 -1.8107 -0.5851 -1.3976
19379TIP3    H279629   3.178   3.085  10.635 -0.1077 -0.4648 -0.3081
19380TIP3   OH279630   3.883   1.169  13.111 -0.0401  0.2045 -0.0508
19380TIP3    H179631   3.881   1.265  13.112 -2.0285  0.3285 -2.7923
19380TIP3    H279632   3.798   1.143  13.146  0.4375 -0.5648  0.5591
19381TIP3   OH279633   2.299   4.297   2.966 -0.0338 -0.0009 -0.6912
19381TIP3    H179634   2.261   4.253   3.042 -0.8892  0.2055 -0.9831
19381TIP3    H279635   2.393   4.290   2.978 -0.1642 -0.9386 -0.1790
19382TIP3   OH279636   3.650   1.231  16.562 -0.2796  0.0301  0.2757
19382TIP3    H179637   3.623   1.194  16.478 -1.2244 -0.0289  0.6001
19382TIP3    H279638   3.579   1.289  16.587 -0.4038 -0.5963  1.4404
19383TIP3   OH279639   6.804   3.505   3.985 -0.7295  0.2374 -0.1675
19383TIP3    H179640   6.899   3.498   3.975 -0.7817 -1.4545  0.2441
19383TIP3    H279641   6.786   3.598   3.972  1.1806  0.9056  1.4047
19384TIP3   OH279642   6.649   6.733   5.413 -0.1960 -0.1908 -0.2619
19384TIP3    H179643   6.732   6.736   5.366  0.0354 -0.7384  0.1004
19384TIP3    H279644   6.585   6.769   5.352  0.4380  1.0165 -0.2443
19385TIP3   OH279645   2.494   4.331  11.200 -0.3295 -0.3604  0.3477
19385TIP3    H179646   2.547   4.377  11.265  1.3407  1.4149 -2.0942
19385TIP3    H279647   2.541   4.248  11.187  1.5969  0.8914 -1.2618
19386TIP3   OH279648   4.275   5.837  15.003  0.1811 -0.0418 -0.5721
19386TIP3    H179649   4.325   5.790  15.070  0.4671  0.4588 -0.4260
19386TIP3    H279650   4.330   5.911  14.980 -1.1410  1.4389  0.7379
19387TIP3   OH279651   3.050   0.650  15.213 -0.2204  0.1342 -0.3473
19387TIP3    H179652   3.055   0.617  15.302 -0.1852  1.2631  0.0938
19387TIP3    H279653   2.994   0.588  15.167 -0.4366 -0.3302  0.5231
19388TIP3   OH279654   4.803   3.648  15.653  0.2835 -0.0409 -1.0058
19388TIP3    H179655   4.861   3.714  15.613  0.8973  0.0220 -0.0392
19388TIP3    H279656   4.790   3.680  15.742 -0.5332 -0.5245 -0.9523
19389TIP3   OH279657   4.951   2.014   6.146  0.1030 -0.2209 -0.1935
19389TIP3    H179658   4.918   2.086   6.092  0.2461  0.0182  0.0347
19389TIP3    H279659   4.943   2.046   6.236  0.2356 -0.4626 -0.0935
19390TIP3   OH279660   1.538   3.066   0.795 -0.0299  0.0828 -0.2587
19390TIP3    H179661   1.633   3.056   0.809  0.1210  1.0448 -0.4625
19390TIP3    H279662   1.524   3.161   0.805 -0.6567  0.2128 -2.1243
19391TIP3   OH279663   1.665   3.855   4.644  1.0191  0.2291  0.0399
19391TIP3    H179664   1.728   3.850   4.573  0.1283 -1.0826 -0.6987
19391TIP3    H279665   1.691   3.785   4.704  0.8773  0.3543  0.2488
19392TIP3   OH279666   1.821   0.817  14.287 -0.0896  0.2573 -0.1614
19392TIP3    H179667   1.894   0.858  14.241 -0.7166  2.4138  0.6806
19392TIP3    H279668   1.802   0.875  14.360 -1.2701 -1.3853  0.9180
19393TIP3   OH279669   0.446   0.157  16.466 -0.3464 -0.0429 -0.5716
19393TIP3    H179670   0.458   0.190  16.377 -0.1651  1.4380 -0.0335
19393TIP3    H279671   0.475   0.229  16.522 -1.3153 -0.5945  0.6958
19394TIP3   OH279672   1.634   2.057  15.281  0.6799  0.4280  0.7203
19394TIP3    H179673   1.644   2.117  15.355 -0.7520  1.8172 -0.1421
19394TIP3    H279674   1.601   1.976  15.320  2.0518  0.3798  1.8400
19395TIP3   OH279675   6.186   3.632  11.152  0.1943 -0.9867 -0.4390
19395TIP3    H179676   6.172   3.626  11.057  0.0623 -0.9737 -0.4209
19395TIP3    H279677   6.279   3.613  11.164  0.3052 -0.5711 -0.6099
19396TIP3   OH279678   5.970   3.921   3.663  0.1488  0.1601 -0.6630
19396TIP3    H179679   6.000   3.915   3.573  0.4852  0.3438 -0.5608
19396TIP3    H279680   5.875   3.929   3.656 -0.0574 -1.8415 -0.9527
19397TIP3   OH279681   1.881   1.696   0.618  0.0910 -0.0141  0.2197
19397TIP3    H179682   1.861   1.671   0.527  0.9898 -2.3080  0.5737
19397TIP3    H279683   1.803   1.744   0.647  0.8508  3.3085 -2.5418
19398TIP3   OH279684   0.570   1.554  11.949 -0.1863 -0.1452 -0.0754
19398TIP3    H179685   0.550   1.474  11.997 -1.2419  0.9498  1.3773
19398TIP3    H279686   0.505   1.617  11.978  1.0742  1.4852 -0.6240
19399TIP3   OH279687   5.004   3.357  10.344 -0.1099  0.0366 -0.1930
19399TIP3    H179688   5.015   3.265  10.321  1.0318 -0.0302  0.5389
19399TIP3    H279689   4.920   3.360  10.390  0.3510 -0.8604  0.7619
19400TIP3   OH279690   2.157   2.661   0.353  0.2811  0.3305  0.0291
19400TIP3    H179691   2.179   2.660   0.446 -0.5556  1.9926  0.2704
19400TIP3    H279692   2.211   2.591   0.315 -0.6838 -1.6380  2.0211
19401TIP3   OH279693   3.109   3.148  13.889  0.0651  0.6326 -0.0956
19401TIP3    H179694   3.023   3.179  13.863 -0.7398 -1.2847  0.1276
19401TIP3    H279695   3.127   3.193  13.972 -0.4517  1.4575 -0.4132
19402TIP3   OH279696   3.914   2.064   3.705  0.2647  0.2642 -0.4562
19402TIP3    H179697   3.933   2.104   3.621  0.6611  0.5137 -0.2462
19402TIP3    H279698   3.832   2.016   3.690 -0.3626  1.3604 -0.6310
19403TIP3   OH279699   4.697   3.930   5.589 -0.4400  0.4013  0.4762
19403TIP3    H179700   4.789   3.915   5.568 -0.6616  0.5514 -0.7163
19403TIP3    H279701   4.672   3.855   5.643  0.0407 -0.3410 -0.2967
19404TIP3   OH279702   0.744   6.383   5.847  0.0464  0.1310 -0.1279
19404TIP3    H179703   0.818   6.432   5.811  0.7062  0.7836  2.0089
19404TIP3    H279704   0.667   6.433   5.820  0.4388  0.0910 -1.3849
19405TIP3   OH279705   1.821   1.626  15.144  0.1622 -0.2018  0.5263
19405TIP3    H179706   1.797   1.643  15.235  0.9903 -0.6905  0.8531
19405TIP3    H279707   1.753   1.669  15.092 -0.0595  0.4903  1.3678
19406TIP3   OH279708   6.089   2.194   1.382 -0.0303 -0.3167 -0.4108
19406TIP3    H179709   6.115   2.114   1.335  1.0689 -1.4246  1.9045
19406TIP3    H279710   6.144   2.194   1.460 -1.3436  1.7393  0.5912
19407TIP3   OH279711   2.335   1.634   1.513 -0.2557  0.4332  0.1175
19407TIP3    H179712   2.403   1.680   1.464 -0.0738  0.0021 -0.0362
19407TIP3    H279713   2.304   1.699   1.577  0.8845  0.3857  0.7563
19408TIP3   OH279714   3.934   4.305   3.451 -0.4475 -0.4105  0.2688
19408TIP3    H179715   4.006   4.342   3.400  0.6247 -0.3971  1.7404
19408TIP3    H279716   3.933   4.213   3.427 -0.9243 -0.1284 -0.8639
19409TIP3   OH279717   0.653   2.278  12.086  0.6243 -0.3672  0.8762
19409TIP3    H179718   0.619   2.367  12.083  1.3362 -0.0955  0.5589
19409TIP3    H279719   0.581   2.226  12.122 -0.1231  0.1852  0.2233
19410TIP3   OH279720   2.809   2.860   1.962  0.2280  0.3828  0.3843
19410TIP3    H179721   2.763   2.943   1.973 -0.2189 -0.1767  3.6273
19410TIP3    H279722   2.892   2.871   2.009  0.1323 -1.0275  0.9389
19411TIP3   OH279723   4.310   4.500  13.243 -0.3870  0.3893 -0.1871
19411TIP3    H179724   4.249   4.514  13.315 -0.4506 -1.8489  0.2784
19411TIP3    H279725   4.288   4.413  13.210  1.2890  0.3293 -1.2690
19412TIP3   OH279726   0.732   0.300  13.358 -0.1550 -0.2690 -0.1868
19412TIP3    H179727   0.671   0.373  13.346  1.5086  1.3914  1.0520
19412TIP3    H279728   0.762   0.279  13.269  0.0731  1.2227 -0.4878
19413TIP3   OH279729   2.158   3.525  12.860  0.0226 -0.3823 -0.2463
19413TIP3    H179730   2.199   3.598  12.905 -1.5474 -0.0759  0.7782
19413TIP3    H279731   2.096   3.489  12.924 -0.2743 -1.6828 -1.2308
19414TIP3   OH279732   0.613   1.802  12.258  0.2579  0.2923  0.0446
19414TIP3    H179733   0.696   1.754  12.255 -0.1144 -0.5272  1.9074
19414TIP3    H279734   0.546   1.734  12.262 -0.4956  0.9633 -0.6894
19415TIP3   OH279735   2.867   5.827   1.789 -0.3199 -0.1391 -0.1376
19415TIP3    H179736   2.833   5.911   1.822  0.1933  0.2391 -0.5491
19415TIP3    H279737   2.935   5.803   1.852  0.3366  0.3478 -0.6450
19416TIP3   OH279738   4.507   1.482   2.142 -0.5986  0.0167  0.3691
19416TIP3    H179739   4.545   1.536   2.212 -2.0426 -0.8195  1.8648
19416TIP3    H279740   4.431   1.531   2.113  0.8694  1.1523 -1.8481
19417TIP3   OH279741   0.333   6.523   2.968  0.1343 -0.4238  0.0358
19417TIP3    H179742   0.358   6.615   2.966  0.8955 -0.6307 -0.2434
19417TIP3    H279743   0.325   6.502   3.062 -0.1553 -0.0537  0.0975
19418TIP3   OH279744   2.338   1.233   3.725  0.1890  0.3592 -0.0839
19418TIP3    H179745   2.402   1.175   3.684  1.7175  1.0449  1.1787
19418TIP3    H279746   2.374   1.249   3.813 -1.8900  0.5462  0.7967
19419TIP3   OH279747   0.010   1.600  17.028 -0.4284 -0.3303  0.4782
19419TIP3    H179748   0.071   1.619  17.099  0.2987  1.1280 -0.4772
19419TIP3    H279749  -0.052   1.537  17.065  1.0095 -1.0174  1.8161
19420TIP3   OH279750   4.525   4.185  16.231 -0.1291 -0.6822  0.6173
19420TIP3    H179751   4.620   4.178  16.241 -0.0355  0.5165  0.6465
19420TIP3    H279752   4.499   4.101  16.194  0.9994 -0.8600  0.1947
19421TIP3   OH279753   0.131   5.628  14.731  0.1972  0.3883 -0.5818
19421TIP3    H179754   0.046   5.659  14.761  0.6965  2.7996 -1.4093
19421TIP3    H279755   0.113   5.585  14.648 -0.1866  1.3710 -1.0266
19422TIP3   OH279756   4.972   0.872   2.284 -0.9166 -0.1957  0.1168
19422TIP3    H179757   5.038   0.938   2.305 -1.0539  0.0850 -0.3299
19422TIP3    H279758   5.007   0.791   2.320 -1.1995  0.2885  1.5870
19423TIP3   OH279759   4.562   0.882   5.937  0.1291  0.3871 -0.1275
19423TIP3    H179760   4.468   0.901   5.942 -0.1477 -1.1580  2.5009
19423TIP3    H279761   4.602   0.939   6.002  0.6718 -0.5537  0.3837
19424TIP3   OH279762   5.413   3.297  16.731 -0.0148  0.2127  0.0942
19424TIP3    H179763   5.438   3.364  16.795 -1.1752  0.2292  0.5459
19424TIP3    H279764   5.426   3.340  16.646  1.5432  0.1903  0.2918
19425TIP3   OH279765   6.580   4.397  17.119 -0.4987  0.3500  0.1627
19425TIP3    H179766   6.607   4.478  17.076  1.8926 -0.3070  0.2991
19425TIP3    H279767   6.661   4.351  17.137 -1.7858 -2.2355 -0.1566
19426TIP3   OH279768   0.632   0.666  11.717  0.2015  0.2298 -0.6780
19426TIP3    H179769   0.580   0.595  11.678  0.0166 -0.3060  0.4949
19426TIP3    H279770   0.675   0.708  11.642 -0.5990 -0.3787 -1.5112
19427TIP3   OH279771   6.731   1.798  12.403  0.6191 -0.1130 -0.3024
19427TIP3    H179772   6.737   1.732  12.472  2.5122  0.5731  0.2520
19427TIP3    H279773   6.749   1.750  12.322  0.0232 -0.6092 -0.1521
19428TIP3   OH279774   6.672   2.026   3.553 -0.4198 -0.1498  0.5800
19428TIP3    H179775   6.689   1.935   3.578 -0.1399 -0.4356 -0.6119
19428TIP3    H279776   6.757   2.068   3.557 -0.3415 -0.2406 -0.0402
19429TIP3   OH279777   0.131   3.941  16.081  0.6536  0.4284  0.3392
19429TIP3    H179778   0.053   3.918  16.131 -0.3561  1.2340 -0.8027
19429TIP3    H279779   0.155   3.859  16.037 -0.3290  0.4586 -0.2950
19430TIP3   OH279780   3.349   2.192   2.236  0.2963 -0.1789 -0.8291
19430TIP3    H179781   3.392   2.253   2.177 -1.2090  1.5537 -0.2231
19430TIP3    H279782   3.278   2.153   2.185 -0.2009  0.3586 -0.5646
19431TIP3   OH279783   1.939   2.442  13.013 -0.8499  0.6557 -0.3539
19431TIP3    H179784   1.972   2.469  12.927  2.0803  1.4670  0.9111
19431TIP3    H279785   1.891   2.519  13.044  0.0131  1.2022 -0.3505
19432TIP3   OH279786   5.129   3.259  17.200  0.2688 -0.4449  0.2665
19432TIP3    H179787   5.036   3.265  17.224  0.5969  0.6653  1.3949
19432TIP3    H279788   5.170   3.214  17.274  0.4575 -2.2191 -0.8434
19433TIP3   OH279789   3.865   6.470  16.384 -0.0981 -0.0445 -0.3116
19433TIP3    H179790   3.807   6.484  16.309  0.4393 -0.1934 -0.7674
19433TIP3    H279791   3.895   6.557  16.408  0.2151 -0.0502 -0.6718
19434TIP3   OH279792   4.137   2.754   2.909 -0.3036  0.1346  0.0600
19434TIP3    H179793   4.102   2.668   2.931 -0.8822  0.4336  0.3207
19434TIP3    H279794   4.139   2.802   2.992  1.0393  0.0258  0.1173
19435TIP3   OH279795   1.236   5.460   5.452 -0.4142  0.2114  0.2843
19435TIP3    H179796   1.287   5.530   5.409 -0.7009  0.3182  0.1181
19435TIP3    H279797   1.261   5.466   5.544  0.4087 -0.1918  0.0958
19436TIP3   OH279798   3.186   1.199   3.871 -0.0291 -0.1823 -0.0530
19436TIP3    H179799   3.120   1.130   3.877  0.0012 -0.3172 -1.0622
19436TIP3    H279800   3.143   1.277   3.906 -0.5613 -0.3783 -0.2636
19437TIP3   OH279801   3.561   2.525  12.427 -0.0184  0.1364  0.2677
19437TIP3    H179802   3.470   2.500  12.444  0.2027  0.3469  2.0148
19437TIP3    H279803   3.560   2.621  12.430  0.4427  0.1165  1.5200
19438TIP3   OH279804   0.427   2.098  12.730  0.6731  0.2481  0.2022
19438TIP3    H179805   0.349   2.072  12.779  0.1401  0.5973 -0.4445
19438TIP3    H279806   0.449   2.022  12.677  1.6291 -0.3614  1.4232
19439TIP3   OH279807   6.438   1.551  14.795  0.4874  0.1209  0.2558
19439TIP3    H179808   6.457   1.519  14.707  1.3254 -1.0279  0.8219
19439TIP3    H279809   6.496   1.500  14.852 -1.2951 -0.4579  1.6602
19440TIP3   OH279810   4.346   6.080  11.836  0.2795 -0.0592 -0.0474
19440TIP3    H179811   4.313   6.160  11.796 -2.1365 -0.5954  0.6884
19440TIP3    H279812   4.398   6.110  11.910  0.8390  0.8310 -0.7713
19441TIP3   OH279813   6.000   4.769  15.276  0.0842 -1.0008 -0.4071
19441TIP3    H179814   5.988   4.716  15.355  0.1886  0.3069  0.5357
19441TIP3    H279815   6.069   4.724  15.227  1.6202 -0.7102  1.3375
19442TIP3   OH279816   6.432   4.302   2.007  0.4885 -0.1185 -0.0189
19442TIP3    H179817   6.400   4.376   2.058  0.8136 -0.6043  0.9047
19442TIP3    H279818   6.421   4.226   2.064 -2.0920 -1.2157 -1.7944
19443TIP3   OH279819   1.007   5.863   4.005 -0.1739 -0.5088  0.3469
19443TIP3    H179820   1.020   5.826   3.917  0.2760 -0.8842  0.5695
19443TIP3    H279821   1.043   5.952   3.998  0.0057 -0.5923  0.1969
19444TIP3   OH279822   3.003   4.127  16.699  0.3908 -0.1771 -0.1476
19444TIP3    H179823   2.911   4.151  16.709  0.7086  0.6653  0.9444
19444TIP3    H279824   3.003   4.061  16.630 -0.9385  0.4015 -0.7402
19445TIP3   OH279825   3.626   6.261   0.116 -0.0906 -0.2692 -0.2177
19445TIP3    H179826   3.639   6.253   0.022  1.4272 -1.3839  0.0445
19445TIP3    H279827   3.554   6.201   0.136  0.4476 -1.0159 -0.5004
19446TIP3   OH279828   3.299   0.707   3.314  0.0703 -0.4340 -0.1370
19446TIP3    H179829   3.380   0.742   3.277 -0.6378  1.6544  0.1081
19446TIP3    H279830   3.233   0.773   3.292 -0.8668 -0.3164  2.6702
19447TIP3   OH279831   1.356   1.383   6.547  0.4510 -0.6995 -0.0010
19447TIP3    H179832   1.270   1.363   6.586  0.5806 -0.2183  0.5453
19447TIP3    H279833   1.419   1.348   6.609  0.6892  1.3783  1.0089
19448TIP3   OH279834   1.125   3.905   4.341 -0.0350  0.5784 -0.1193
19448TIP3    H179835   1.220   3.902   4.335 -0.1165 -1.8576 -0.9372
19448TIP3    H279836   1.101   3.830   4.396 -1.4835  1.3453  0.3760
19449TIP3   OH279837   4.906   4.677  15.456  0.1936  0.0311  0.4596
19449TIP3    H179838   4.840   4.686  15.388  1.2003  4.6043 -0.2147
19449TIP3    H279839   4.859   4.696  15.538  0.1512  0.5308  0.3181
19450TIP3   OH279840   5.480   4.139   1.344  0.3991 -0.3042  0.1639
19450TIP3    H179841   5.421   4.125   1.419  0.2480  0.5947  0.2148
19450TIP3    H279842   5.428   4.187   1.281  0.7158 -0.5527 -0.2917
19451TIP3   OH279843   2.159   5.098   5.484  0.4095 -0.2517 -0.8147
19451TIP3    H179844   2.095   5.139   5.541  1.6655  2.2752 -1.0832
19451TIP3    H279845   2.197   5.028   5.537  0.6729  1.2207  1.0402
19452TIP3   OH279846   3.570   2.599  11.576  0.1304  0.2185  0.0770
19452TIP3    H179847   3.588   2.644  11.659  0.8386 -0.7946  0.4918
19452TIP3    H279848   3.653   2.558  11.553  1.4054  4.1312 -3.5080
19453TIP3   OH279849   3.868   2.980   3.113 -0.1009 -0.0572  0.7882
19453TIP3    H179850   3.850   3.050   3.049 -0.0221 -1.4777 -0.8569
19453TIP3    H279851   3.963   2.969   3.109 -0.1964 -0.8037  0.4143
19454TIP3   OH279852   0.681   2.943   1.870 -0.5302  0.4407 -0.0863
19454TIP3    H179853   0.709   2.885   1.800 -0.9174 -0.2224  0.2913
19454TIP3    H279854   0.720   2.907   1.949  0.5925  1.6590 -0.0408
19455TIP3   OH279855   4.045   1.030   5.216 -0.9074  0.0009 -0.2552
19455TIP3    H179856   4.119   1.032   5.156 -0.7405 -0.2715 -0.0607
19455TIP3    H279857   4.067   1.097   5.282 -0.1984 -0.9789  0.5383
19456TIP3   OH279858   5.883   5.766  14.098 -0.3003  0.3895  0.5739
19456TIP3    H179859   5.909   5.834  14.161  1.5529 -0.0087  0.2777
19456TIP3    H279860   5.817   5.809  14.043  2.1589  2.6720 -0.8384
19457TIP3   OH279861   4.660   1.294  10.677  0.4494 -0.3521  0.2652
19457TIP3    H179862   4.674   1.232  10.605 -0.3997 -0.8571  0.5158
19457TIP3    H279863   4.602   1.361  10.639 -0.1934 -0.7470  0.5407
19458TIP3   OH279864   5.327   5.662  13.847 -0.1362  0.0552 -0.2280
19458TIP3    H179865   5.349   5.588  13.790 -3.3998  0.3490 -2.1440
19458TIP3    H279866   5.297   5.621  13.928  2.9029 -0.4228  0.7786
19459TIP3   OH279867   5.007   5.211  14.636 -0.2209  0.6548  0.0748
19459TIP3    H179868   5.008   5.162  14.718 -0.8473  0.8204  0.1807
19459TIP3    H279869   5.052   5.293  14.657 -0.4980  0.7518  0.2850
19460TIP3   OH279870   0.201   4.368   5.189  0.0268  0.0851 -0.6171
19460TIP3    H179871   0.167   4.294   5.138  0.9342 -0.4616 -0.4739
19460TIP3    H279872   0.125   4.406   5.231 -0.3213 -1.6033  0.3561
19461TIP3   OH279873   5.435   0.717   6.041 -0.0804 -0.1018  0.4689
19461TIP3    H179874   5.526   0.698   6.019 -0.6040 -2.2971 -0.1474
19461TIP3    H279875   5.427   0.694   6.134 -0.3961 -1.8639  0.0513
19462TIP3   OH279876   5.279   0.221  11.591 -0.1821 -0.4374 -0.0812
19462TIP3    H179877   5.324   0.234  11.507 -3.4408  0.3603 -1.8653
19462TIP3    H279878   5.315   0.289  11.648  1.2863 -0.2554 -1.1645
19463TIP3   OH279879   1.603   3.639  15.976 -0.0159  0.0947  0.1005
19463TIP3    H179880   1.595   3.596  15.891  0.9262 -1.2008  0.6399
19463TIP3    H279881   1.692   3.673  15.977 -0.2876  0.8314  0.2680
19464TIP3   OH279882   0.787   3.722  14.810  0.3119 -0.2082  0.4940
19464TIP3    H179883   0.740   3.767  14.739 -0.0193 -1.6681 -0.2499
19464TIP3    H279884   0.771   3.776  14.887 -1.1166  0.2818 -0.1038
19465TIP3   OH279885   0.143   1.704   4.232 -0.1596  0.5039 -0.1255
19465TIP3    H179886   0.238   1.714   4.231  0.0343 -1.1001 -1.5085
19465TIP3    H279887   0.119   1.713   4.324  1.3231  0.8618  0.2550
19466TIP3   OH279888   3.871   0.339  15.838 -0.6113 -0.2547 -0.0273
19466TIP3    H179889   3.792   0.383  15.870 -0.3995 -0.2986  0.5708
19466TIP3    H279890   3.939   0.405  15.842 -0.1085 -0.8192  1.6387
19467TIP3   OH279891   0.311   1.362   1.882  0.6383 -0.1215 -0.0080
19467TIP3    H179892   0.338   1.270   1.874  0.1561 -0.1975 -0.9093
19467TIP3    H279893   0.216   1.360   1.877  0.6242  0.4250 -0.0302
19468TIP3   OH279894   6.172   6.312  16.899  0.3283 -0.2413  0.1003
19468TIP3    H179895   6.187   6.321  16.805  0.5371 -0.0526  0.1524
19468TIP3    H279896   6.163   6.402  16.930 -0.0642 -0.3142  0.2097
19469TIP3   OH279897   3.920   3.552   2.365  0.3223  0.0800  0.3902
19469TIP3    H179898   3.908   3.481   2.302  0.0174 -0.0310  0.5725
19469TIP3    H279899   3.998   3.598   2.334 -0.5626  0.8299 -0.8332
19470TIP3   OH279900   1.606   6.664  16.080  0.3578  0.1667  0.1624
19470TIP3    H179901   1.546   6.593  16.105 -0.5674  0.8060 -0.2104
19470TIP3    H279902   1.693   6.623  16.084 -0.2459 -1.4058 -1.3844
19471TIP3   OH279903   3.813   3.578   3.272 -0.0431 -1.1024 -0.4791
19471TIP3    H179904   3.827   3.642   3.201 -1.0030 -1.1431 -0.7212
19471TIP3    H279905   3.839   3.494   3.234 -0.8515 -1.1727 -0.9101
19472TIP3   OH279906   4.216   6.667   0.117  0.1652  0.1973 -0.6761
19472TIP3    H179907   4.289   6.687   0.177 -1.8743  1.3326  1.6194
19472TIP3    H279908   4.217   6.739   0.054 -0.0633  1.2380  0.4753
19473TIP3   OH279909   4.570   3.718  16.425 -0.2684 -0.4942  0.4691
19473TIP3    H179910   4.623   3.661  16.369  0.8408  2.6723 -2.0747
19473TIP3    H279911   4.483   3.678  16.426  0.3669 -2.0634 -1.3642
19474TIP3   OH279912   2.900   2.512  12.340 -0.3055  0.3535 -0.3542
19474TIP3    H179913   2.993   2.494  12.350 -0.0950  0.9261 -1.1828
19474TIP3    H279914   2.860   2.425  12.329 -0.2323 -0.1332  2.4164
19475TIP3   OH279915   2.653   4.063   3.058  0.3356 -0.0030  0.4462
19475TIP3    H179916   2.731   4.051   3.113  0.1337  0.8108  0.9398
19475TIP3    H279917   2.660   3.995   2.991  1.1318 -0.3568  0.8669
19476TIP3   OH279918   2.815   2.034  14.853 -0.6080 -0.0099  0.0571
19476TIP3    H179919   2.855   2.043  14.939 -1.0356  1.4409  0.1353
19476TIP3    H279920   2.889   2.037  14.792 -0.4760  2.5762  0.2021
19477TIP3   OH279921   5.623   1.339  13.004 -0.3568  0.4410 -0.4192
19477TIP3    H179922   5.706   1.376  13.034 -0.4296  2.5539 -2.4793
19477TIP3    H279923   5.592   1.285  13.076  2.8551 -0.5283  0.3724
19478TIP3   OH279924   3.236   6.135   0.980 -1.1545 -0.2014  0.0245
19478TIP3    H179925   3.250   6.114   1.072 -0.3044  1.4408  0.2914
19478TIP3    H279926   3.321   6.162   0.948 -0.8524 -2.9904 -1.9343
19479TIP3   OH279927   1.894   5.299  15.655 -0.4034  0.1307 -0.0054
19479TIP3    H179928   1.954   5.374  15.654 -1.9248  1.4363  0.9875
19479TIP3    H279929   1.879   5.281  15.748 -0.3563 -1.1861 -0.2320
19480TIP3   OH279930   0.401   0.562   2.245  0.8425 -0.2602 -0.2587
19480TIP3    H179931   0.397   0.509   2.324 -1.6896 -0.1370 -0.2236
19480TIP3    H279932   0.389   0.652   2.275 -0.0417 -0.2018 -0.7495
19481TIP3   OH279933   3.473   0.941  13.418 -0.0009 -0.0676 -0.0969
19481TIP3    H179934   3.526   0.990  13.481 -1.9396 -0.0192  1.5924
19481TIP3    H279935   3.384   0.949  13.450 -0.7259 -2.4722 -1.2680
19482TIP3   OH279936   5.883   2.469   4.313 -0.1096 -0.0792 -0.4513
19482TIP3    H179937   5.880   2.560   4.283  0.8549  0.2043  0.2848
19482TIP3    H279938   5.925   2.422   4.241  1.1754  0.4110 -0.0555
19483TIP3   OH279939   3.675   1.402   5.079 -0.5983 -0.1256 -0.4400
19483TIP3    H179940   3.747   1.391   5.016  2.0352  0.1039  2.3185
19483TIP3    H279941   3.651   1.313   5.105  1.5017 -0.1982  1.4925
19484TIP3   OH279942   4.371   2.682  14.854 -0.4230  0.0689 -0.1472
19484TIP3    H179943   4.285   2.706  14.888 -0.1728 -0.9226  1.2876
19484TIP3    H279944   4.363   2.590  14.829  0.1805 -0.0084 -0.0826
19485TIP3   OH279945   5.693   5.018  15.837 -0.6478 -0.1171 -0.0334
19485TIP3    H179946   5.660   5.043  15.923 -1.3224  3.0171 -1.0577
19485TIP3    H279947   5.785   4.995  15.851  0.1016  3.1675  1.2063
19486TIP3   OH279948   0.749   4.632  14.620 -0.2521  0.2198 -0.1324
19486TIP3    H179949   0.703   4.568  14.674 -1.1134  0.4601 -0.5586
19486TIP3    H279950   0.786   4.580  14.548  0.5909 -0.0470  0.4835
19487TIP3   OH279951   1.681   6.325  15.575 -0.3553 -0.3919 -0.0052
19487TIP3    H179952   1.684   6.349  15.668 -1.1051  2.2559 -0.5759
19487TIP3    H279953   1.761   6.275  15.560  0.1605 -0.2052  1.8869
19488TIP3   OH279954   1.640   5.758  11.397 -0.2377  0.0329 -0.7865
19488TIP3    H179955   1.546   5.746  11.387 -0.4407  0.3751  0.5374
19488TIP3    H279956   1.671   5.677  11.437 -0.0774  0.1564 -0.6547
19489TIP3   OH279957   1.012   6.469   1.027  0.2324 -0.0626  0.3004
19489TIP3    H179958   1.077   6.523   1.072  0.5699  2.1286 -2.4961
19489TIP3    H279959   0.951   6.532   0.989 -1.3737 -1.8766 -0.2880
19490TIP3   OH279960   3.626   5.445  13.278  0.4449  0.9142 -0.0986
19490TIP3    H179961   3.539   5.471  13.247  0.2004  0.3359  0.1022
19490TIP3    H279962   3.658   5.384  13.211  0.3077  0.3972  0.3103
19491TIP3   OH279963   1.736   4.201   4.206  0.5510  0.1626  0.0874
19491TIP3    H179964   1.692   4.123   4.171  0.5154  0.4253 -0.4571
19491TIP3    H279965   1.799   4.166   4.270 -0.2504 -0.2352  0.6798
19492TIP3   OH279966   4.807   1.488   1.051  0.0892  0.3398  0.0331
19492TIP3    H179967   4.844   1.525   0.971 -0.4037  0.6499 -0.0583
19492TIP3    H279968   4.798   1.562   1.111 -0.3508  0.2693  0.0617
19493TIP3   OH279969   5.683   2.309   3.671 -0.2302 -0.0074  0.7589
19493TIP3    H179970   5.671   2.227   3.718 -0.9727 -0.5565 -0.3501
19493TIP3    H279971   5.778   2.319   3.663 -0.1507 -1.3665 -0.1437
19494TIP3   OH279972   4.284   5.419  15.595 -0.1074  0.0950 -0.3742
19494TIP3    H179973   4.222   5.377  15.536  2.2493 -2.6524 -1.1293
19494TIP3    H279974   4.247   5.407  15.682 -0.2545 -2.2900 -0.7211
19495TIP3   OH279975   5.101   1.333  11.235  0.7812  0.0688 -0.6045
19495TIP3    H179976   5.083   1.309  11.325  1.1327  2.2908  0.1210
19495TIP3    H279977   5.035   1.286  11.184  1.2907 -2.1269  0.6364
19496TIP3   OH279978   3.663   1.809  13.719 -1.0031 -0.0137 -0.3177
19496TIP3    H179979   3.614   1.751  13.660 -2.5111  1.2141 -0.3599
19496TIP3    H279980   3.631   1.788  13.806  0.1778 -0.8358 -0.0588
19497TIP3   OH279981   1.162   1.147   1.109  0.4870 -0.3010 -0.1542
19497TIP3    H179982   1.205   1.171   1.027  0.4765 -0.4699 -0.2083
19497TIP3    H279983   1.135   1.057   1.097 -2.5161  0.6494 -1.2519
19498TIP3   OH279984   1.350   3.844  13.149  0.0868 -0.3580  0.2351
19498TIP3    H179985   1.432   3.808  13.184 -0.1749 -2.5161 -1.1741
19498TIP3    H279986   1.291   3.768  13.145 -0.8230  0.4000 -2.0500
19499TIP3   OH279987   5.066   0.921  10.903 -0.7117  0.5478 -0.1527
19499TIP3    H179988   5.026   0.855  10.959  2.9145 -0.8310  1.1470
19499TIP3    H279989   5.139   0.876  10.861 -0.1019  2.9265 -1.8645
19500TIP3   OH279990   6.633   2.436   1.097  0.4231  0.3695 -0.0754
19500TIP3    H179991   6.575   2.362   1.111 -1.0403  1.4808 -0.0272
19500TIP3    H279992   6.721   2.401   1.111 -0.2829 -1.1457  0.7581
19501TIP3   OH279993   5.359   1.921  13.131  0.3084  0.1356  0.5424
19501TIP3    H179994   5.434   1.920  13.073 -0.2353 -0.5064 -0.1621
19501TIP3    H279995   5.326   2.011  13.126  1.2974  0.5489  1.2288
19502TIP3   OH279996   4.052   1.006  12.856  0.0332 -0.3557 -0.0317
19502TIP3    H179997   4.105   1.084  12.868 -1.8000  0.5693  3.6233
19502TIP3    H279998   4.114   0.933  12.861  1.4715  0.7843 -0.7234
19503TIP3   OH279999   3.086   4.134   2.918  0.8716  0.7620  0.0243
19503TIP3    H180000   3.048   4.091   2.995  0.4873  2.2944  0.7251
19503TIP3    H280001   3.180   4.114   2.924  0.9082  1.1951  1.1273
19504TIP3   OH280002   6.243   4.264   0.865 -0.1874  0.4504  0.4074
19504TIP3    H180003   6.191   4.285   0.787 -0.1694 -0.9709 -0.0171
19504TIP3    H280004   6.193   4.299   0.938 -2.0696 -1.3069  0.0682
19505TIP3   OH280005   2.237   4.526   3.514  0.7352 -0.2957  0.5143
19505TIP3    H180006   2.184   4.520   3.593 -1.5266  2.0398 -0.6499
19505TIP3    H280007   2.246   4.436   3.483  0.9403 -1.1532  2.9269
19506TIP3   OH280008   5.839   6.299  14.941  0.4994  0.3140 -0.4751
19506TIP3    H180009   5.910   6.327  14.883  1.6954 -0.1383  0.6959
19506TIP3    H280010   5.878   6.228  14.993 -1.3704 -1.1707 -1.0087
19507TIP3   OH280011   3.482   4.931  13.953  0.2657  0.4690  0.0451
19507TIP3    H180012   3.429   5.005  13.926 -0.7492 -0.6640 -1.2106
19507TIP3    H280013   3.438   4.854  13.917  1.6402 -0.7112  0.7186
19508TIP3   OH280014   3.261   4.779  16.582 -0.9182  0.1670  0.0872
19508TIP3    H180015   3.333   4.783  16.519  0.8739 -1.0198  1.9335
19508TIP3    H280016   3.241   4.871  16.601 -0.4675  0.5204 -1.0710
19509TIP3   OH280017   3.343   0.505   3.143 -0.1176 -0.3657 -0.6619
19509TIP3    H180018   3.335   0.549   3.058  1.5351  0.5640 -0.3766
19509TIP3    H280019   3.326   0.573   3.207 -0.9660 -0.9782 -0.2053
19510TIP3   OH280020   1.989   3.823  15.635  0.4031 -0.7207  0.1726
19510TIP3    H180021   2.081   3.813  15.662  0.4022  0.1447  0.5150
19510TIP3    H280022   1.940   3.770  15.697  0.6588 -1.0903  0.0634
19511TIP3   OH280023   2.714   0.006   3.138 -0.1677 -0.0673  0.0726
19511TIP3    H180024   2.640   0.043   3.091 -1.3000 -1.9237  0.2862
19511TIP3    H280025   2.790   0.056   3.108 -1.0260 -0.3019 -2.6934
19512TIP3   OH280026   1.893   5.748  15.585  0.0689  0.5104 -0.1883
19512TIP3    H180027   1.855   5.792  15.661 -0.6514 -2.1616  1.0814
19512TIP3    H280028   1.827   5.757  15.517 -0.2867  0.8988  0.1998
19513TIP3   OH280029   0.768   2.635   4.865 -0.2488 -0.6837  0.3177
19513TIP3    H180030   0.813   2.708   4.822 -3.1339  2.5149  2.2121
19513TIP3    H280031   0.767   2.566   4.799  1.8298  1.2672 -1.9999
19514TIP3   OH280032   5.084   4.032  14.554 -0.0707 -0.2734  0.3429
19514TIP3    H180033   4.991   4.021  14.538  0.3768 -0.2161 -3.0519
19514TIP3    H280034   5.119   3.943  14.556 -0.2057 -0.3178  2.1122
19515TIP3   OH280035   1.749   3.619   3.000  0.6706 -0.6085  0.7228
19515TIP3    H180036   1.711   3.639   2.914  0.6847  4.1122  1.5439
19515TIP3    H280037   1.684   3.563   3.043 -2.6956  2.3442 -0.0798
19516TIP3   OH280038   2.917   2.350   5.573  0.5897  0.3237 -0.2620
19516TIP3    H180039   2.849   2.286   5.551 -0.2855  0.8099  0.9239
19516TIP3    H280040   2.954   2.318   5.656  1.3160  0.4590 -0.5293
19517TIP3   OH280041   1.589   5.952  15.970  0.6224  0.5611 -0.1582
19517TIP3    H180042   1.538   5.918  16.043  2.8190  0.4412  1.4058
19517TIP3    H280043   1.589   6.047  15.982 -1.6023  0.8785 -1.8778
19518TIP3   OH280044   0.912   3.686  11.858  0.3908 -0.0175 -0.2025
19518TIP3    H180045   0.831   3.738  11.860  0.9230  0.8509 -0.4973
19518TIP3    H280046   0.973   3.735  11.913  0.7842 -0.5521 -0.1538
19519TIP3   OH280047   3.308   5.845   0.293 -0.4973  0.2350 -0.5775
19519TIP3    H180048   3.218   5.848   0.261 -0.3433 -0.2980 -1.0764
19519TIP3    H280049   3.358   5.803   0.223 -0.0564 -0.4768  0.1375
19520TIP3   OH280050   0.349   2.445   5.579 -0.5577 -0.2120 -0.2313
19520TIP3    H180051   0.350   2.358   5.540  1.7178  0.9201 -3.0501
19520TIP3    H280052   0.259   2.476   5.568 -0.6118 -0.9696 -2.2548
19521TIP3   OH280053   1.359   4.319   3.595 -0.2191 -0.1280  0.0457
19521TIP3    H180054   1.264   4.326   3.589 -0.4423 -1.6765  1.1839
19521TIP3    H280055   1.385   4.391   3.653 -0.6683  0.3565 -0.3430
19522TIP3   OH280056   2.173   0.806  14.089  0.4118  0.6883  0.2432
19522TIP3    H180057   2.100   0.864  14.070  0.1344 -0.0161 -0.9579
19522TIP3    H280058   2.250   0.852  14.057  0.3239  0.8570  0.2753
19523TIP3   OH280059   3.664   2.009   0.002  0.3479  0.1650 -0.5415
19523TIP3    H180060   3.665   1.935  -0.059  2.0298  0.4507 -0.9147
19523TIP3    H280061   3.619   1.976   0.079 -0.6762 -0.6143 -1.4375
19524TIP3   OH280062   3.978   0.216  11.215  1.1425  0.3845 -0.3049
19524TIP3    H180063   4.001   0.309  11.206  1.5782  0.6314  2.4616
19524TIP3    H280064   4.024   0.188  11.293 -1.8614 -1.1940  1.0473
19525TIP3   OH280065   4.226   4.937   5.286  0.7523 -0.3611 -0.6422
19525TIP3    H180066   4.133   4.931   5.266  1.0662 -2.5874 -1.8881
19525TIP3    H280067   4.238   5.024   5.324 -1.6325  0.3957 -1.4470
19526TIP3   OH280068   4.844   1.688   1.436 -0.8020  0.0818 -0.2195
19526TIP3    H180069   4.885   1.604   1.458 -0.8482 -0.3040 -1.4946
19526TIP3    H280070   4.918   1.746   1.418 -0.7797  0.1207 -0.0031
19527TIP3   OH280071   3.644   4.788  12.824 -0.1815 -0.2475 -0.3184
19527TIP3    H180072   3.739   4.798  12.822 -0.2455  0.2945 -0.6804
19527TIP3    H280073   3.620   4.803  12.916  0.0081  0.2681 -0.3526
19528TIP3   OH280074   2.836   3.468   2.652 -0.1010  0.1517  0.8215
19528TIP3    H180075   2.802   3.413   2.581  1.8460 -1.5200  1.0890
19528TIP3    H280076   2.778   3.450   2.726  0.4007 -1.5329  0.8618
19529TIP3   OH280077   4.223   2.991   0.899 -0.5896 -0.1644  0.2052
19529TIP3    H180078   4.218   2.934   0.822 -1.0623 -0.9428  0.7876
19529TIP3    H280079   4.303   2.963   0.944 -1.0271 -0.6470  0.6955
19530TIP3   OH280080   2.319   2.312   0.539  0.2514  0.1092  1.1629
19530TIP3    H180081   2.408   2.339   0.561 -0.0740 -0.4769  3.3737
19530TIP3    H280082   2.326   2.218   0.524  0.2021  0.2672  0.0369
19531TIP3   OH280083   3.693   3.738   2.409  0.0359  0.0956 -0.5314
19531TIP3    H180084   3.653   3.682   2.475 -0.7647  1.7936  0.4798
19531TIP3    H280085   3.762   3.684   2.371 -0.6325 -1.5314  0.4420
19532TIP3   OH280086   6.066   4.688  16.750 -0.5992  0.8304 -0.0254
19532TIP3    H180087   6.040   4.766  16.701  1.1950  1.5819  0.1509
19532TIP3    H280088   6.067   4.717  16.842  2.0203  1.2432 -0.1184
19533TIP3   OH280089   4.492   5.772   0.892 -0.6582  0.2634 -0.0594
19533TIP3    H180090   4.546   5.840   0.851 -0.7327  0.7560  0.6379
19533TIP3    H280091   4.402   5.805   0.884 -0.5981  0.8198  1.3034
19534TIP3   OH280092   5.666   3.564  12.401 -0.5317  0.3445  0.4657
19534TIP3    H180093   5.588   3.573  12.457 -0.3495 -0.6309  0.9098
19534TIP3    H280094   5.649   3.485  12.349  1.3721 -1.7265  2.7048
19535TIP3   OH280095   5.140   4.733   4.550  0.3657 -0.2653  0.0762
19535TIP3    H180096   5.233   4.752   4.542  0.4964 -0.7057  0.4961
19535TIP3    H280097   5.133   4.638   4.541  0.0014 -0.2759  0.4214
19536TIP3   OH280098   0.453   2.608  12.678  0.0555 -1.1056  0.5659
19536TIP3    H180099   0.391   2.657  12.624  1.3465 -2.0969 -1.9626
19536TIP3    H280100   0.456   2.657  12.760 -0.3936  1.7955 -0.9950
19537TIP3   OH280101   3.705   6.237  12.755  0.7308  0.1228 -0.4000
19537TIP3    H180102   3.785   6.280  12.726  0.7815  0.6793  0.5209
19537TIP3    H280103   3.735   6.165  12.811  0.6495 -1.1646 -1.9408
19538TIP3   OH280104   1.093   4.994  16.532 -0.1643 -0.2401  0.4756
19538TIP3    H180105   1.173   5.044  16.519  0.9571 -2.1607 -0.4767
19538TIP3    H280106   1.072   5.007  16.625  0.3748  1.4764  0.3937
19539TIP3   OH280107   6.406   4.853  12.417 -0.5312 -0.3625 -0.2422
19539TIP3    H180108   6.348   4.780  12.395  0.5513 -1.3819  0.2017
19539TIP3    H280109   6.466   4.861  12.343 -0.8272  0.2901 -0.4236
19540TIP3   OH280110   2.462   1.006  12.713  0.2998  0.9932 -0.7980
19540TIP3    H180111   2.522   1.071  12.748  1.4278 -0.4418 -0.0070
19540TIP3    H280112   2.448   0.944  12.784 -1.8891  1.0852 -1.0599
19541TIP3   OH280113   0.674   1.915   3.679  0.1172  0.2932  0.0168
19541TIP3    H180114   0.688   1.911   3.585 -0.2323 -1.1233  0.0045
19541TIP3    H280115   0.579   1.907   3.690  0.3382 -3.0898  0.5607
19542TIP3   OH280116   3.618   5.843  17.192 -0.2082 -0.1257 -0.0531
19542TIP3    H180117   3.673   5.772  17.224  0.3907 -0.0643 -0.9297
19542TIP3    H280118   3.666   5.880  17.118 -1.0191  0.4971 -0.2841
19543TIP3   OH280119   4.512   6.253   3.121 -0.7604 -0.5594 -0.0482
19543TIP3    H180120   4.589   6.285   3.167 -0.6426 -0.9593  0.0370
19543TIP3    H280121   4.467   6.197   3.184 -1.0170 -0.4873 -0.1619
19544TIP3   OH280122   4.863   4.687  17.117  0.0103  0.3370  0.0663
19544TIP3    H180123   4.819   4.723  17.194  1.9489 -0.1889  1.4905
19544TIP3    H280124   4.838   4.595  17.115  0.3053  0.2477  0.3489
19545TIP3   OH280125   2.750   0.026   4.588  0.0034 -0.2636 -0.8623
19545TIP3    H180126   2.677   0.022   4.526 -0.2475 -0.4488 -0.5570
19545TIP3    H280127   2.811   0.089   4.549 -1.1975  1.3664 -0.1947
19546TIP3   OH280128   2.418   1.207  14.423 -0.2699  0.2623 -0.0945
19546TIP3    H180129   2.423   1.285  14.478 -1.0453  0.2437  0.0054
19546TIP3    H280130   2.472   1.228  14.347 -0.3035  0.8147  0.0311
19547TIP3   OH280131   3.451   2.081   3.982  0.5439  0.0373 -0.0425
19547TIP3    H180132   3.396   2.064   4.058  0.4667  0.2919 -0.0394
19547TIP3    H280133   3.445   2.001   3.929 -0.0424  0.1639 -0.1713
19548TIP3   OH280134   2.884   5.050  14.740  0.3139  0.3401 -0.3428
19548TIP3    H180135   2.802   5.098  14.754 -0.5971 -0.5880 -2.1858
19548TIP3    H280136   2.948   5.097  14.794 -1.3411  1.2683  0.9301
19549TIP3   OH280137   5.691   2.369   4.896 -0.5665 -0.6073 -0.2453
19549TIP3    H180138   5.679   2.369   4.801  0.5781  0.4339 -0.4143
19549TIP3    H280139   5.738   2.288   4.914  0.6515 -0.0353 -0.7864
19550TIP3   OH280140   6.759   0.308   0.092 -0.1717 -0.4921  0.5922
19550TIP3    H180141   6.717   0.244   0.150 -0.9048  0.7129  1.4489
19550TIP3    H280142   6.728   0.286   0.005 -0.2161 -1.4452  0.8396
19551TIP3   OH280143   2.837   2.983   5.174  0.2556  0.1106  0.1502
19551TIP3    H180144   2.801   2.997   5.262 -1.1818 -1.6179 -0.0973
19551TIP3    H280145   2.914   2.928   5.188 -0.8628 -1.5159  0.2911
19552TIP3   OH280146   0.452   4.968  16.516 -0.0133 -0.5731 -0.5121
19552TIP3    H180147   0.449   4.985  16.422  1.0146  1.4503 -0.2501
19552TIP3    H280148   0.463   5.055  16.555 -1.4840 -1.2443  1.5573
19553TIP3   OH280149   2.861   3.283  11.002  0.1866 -0.3026 -0.3150
19553TIP3    H180150   2.779   3.329  11.019  0.9481  0.4852  1.3944
19553TIP3    H280151   2.842   3.227  10.927 -1.4771  0.9811 -0.9044
19554TIP3   OH280152   1.991   4.577   3.078 -0.2647 -0.6955  0.3005
19554TIP3    H180153   2.072   4.538   3.111  0.0406 -0.9475 -0.6972
19554TIP3    H280154   1.966   4.640   3.145  1.2292  0.0037  0.2582
19555TIP3   OH280155   0.889   3.661   4.366 -0.0383  0.0007  0.1026
19555TIP3    H180156   0.825   3.728   4.342  0.5795  0.8015  0.6433
19555TIP3    H280157   0.891   3.601   4.291 -1.0972  0.1996 -0.0996
19556TIP3   OH280158   0.765   1.209  15.388 -0.0469  0.3570 -0.1317
19556TIP3    H180159   0.785   1.134  15.443 -1.8404 -1.1106 -1.3814
19556TIP3    H280160   0.736   1.277  15.449  1.1497 -0.0851  0.9694
19557TIP3   OH280161   4.237   4.316  17.070  0.0032 -0.6809  0.7517
19557TIP3    H180162   4.266   4.226  17.060 -2.0000 -1.1794 -1.1658
19557TIP3    H280163   4.168   4.312  17.136 -0.3532 -0.6101  0.3819
19558TIP3   OH280164   1.627   0.246   3.009 -0.1620  0.0143  0.0526
19558TIP3    H180165   1.710   0.252   3.055 -0.0269 -2.4536  0.2587
19558TIP3    H280166   1.606   0.153   3.009 -3.3312  0.6197  0.6876
19559TIP3   OH280167   5.036   1.416  14.352  0.3460  0.0541 -0.2314
19559TIP3    H180168   5.067   1.351  14.415 -1.3266  0.7080  1.3450
19559TIP3    H280169   4.963   1.373  14.308 -0.5995  0.7499  0.6317
19560TIP3   OH280170   1.233   1.002   1.773 -0.7190  0.6042 -0.2515
19560TIP3    H180171   1.180   0.929   1.740 -0.3355 -0.9981  2.3945
19560TIP3    H280172   1.318   0.992   1.729 -1.0253  0.1663 -0.7578
19561TIP3   OH280173   1.616   4.337  14.398  0.0270  0.3423 -0.4477
19561TIP3    H180174   1.536   4.290  14.422 -0.5434  1.4322 -0.1172
19561TIP3    H280175   1.655   4.363  14.481  0.3895  0.3532 -0.6181
19562TIP3   OH280176   3.506   2.623  15.473 -0.1769  0.3311  0.1525
19562TIP3    H180177   3.583   2.668  15.508 -0.1062  1.2941 -1.1604
19562TIP3    H280178   3.472   2.573  15.547  1.4594  0.2192  0.8682
19563TIP3   OH280179   5.527   4.081   4.432  0.5404 -0.3472  0.1015
19563TIP3    H180180   5.527   4.129   4.515 -0.5906 -1.0388  0.5321
19563TIP3    H280181   5.524   4.149   4.365 -0.6529  0.2138  0.6875
19564TIP3   OH280182   0.092   4.691   0.935  0.2378 -0.0694 -0.1863
19564TIP3    H180183   0.107   4.643   0.854 -0.4013  1.9102 -1.5534
19564TIP3    H280184   0.175   4.735   0.954 -0.0996  0.8625 -0.7812
19565TIP3   OH280185   6.104   5.421  12.940 -0.0046 -0.3221  0.0342
19565TIP3    H180186   6.200   5.419  12.935 -0.0201 -1.6825 -0.0175
19565TIP3    H280187   6.075   5.372  12.863 -0.7470 -0.0796  0.1505
19566TIP3   OH280188   4.605   6.605   0.994  0.2577 -0.4420 -0.4541
19566TIP3    H180189   4.538   6.640   0.935  0.7700  0.2377 -0.6485
19566TIP3    H280190   4.678   6.667   0.986 -0.0467  0.2501  1.6815
19567TIP3   OH280191   1.684   4.976  11.028 -0.0369 -0.6241  0.1422
19567TIP3    H180192   1.630   4.995  10.952  0.9204  2.3067  0.0901
19567TIP3    H280193   1.624   4.937  11.091 -1.5209 -0.2750 -1.0051
19568TIP3   OH280194   0.951   5.430  10.994 -0.3303 -0.1512  0.1469
19568TIP3    H180195   0.925   5.354  10.942  1.0021 -1.2301  0.9847
19568TIP3    H280196   1.041   5.448  10.968 -0.0950  0.1342  1.1131
19569TIP3   OH280197   3.552   6.740   3.025 -0.2014 -0.5182 -0.6542
19569TIP3    H180198   3.554   6.653   3.064 -0.1945 -0.8473 -1.3694
19569TIP3    H280199   3.485   6.787   3.074 -1.1348 -1.3398 -1.1091
19570TIP3   OH280200   5.600   5.031  13.320  0.0630  0.2705  0.3514
19570TIP3    H180201   5.664   4.973  13.360  2.0259  1.1466 -1.3529
19570TIP3    H280202   5.546   4.973  13.266  1.4721 -0.1457 -0.6754
19571TIP3   OH280203   3.650   2.255   1.207 -0.3008 -0.3842 -0.3514
19571TIP3    H180204   3.745   2.250   1.198 -0.4637 -2.3940 -1.3678
19571TIP3    H280205   3.629   2.347   1.189  1.4304  0.0872 -0.0952
19572TIP3   OH280206   2.724   4.450   1.914 -0.0771 -0.7182 -0.3261
19572TIP3    H180207   2.633   4.479   1.925  0.2771  0.8240 -1.1332
19572TIP3    H280208   2.773   4.502   1.977  0.4404 -0.3610 -1.0087
19573TIP3   OH280209   6.596   0.676  12.038  0.1261  0.7334  0.2136
19573TIP3    H180210   6.611   0.616  11.965  3.1974 -1.5195  2.4080
19573TIP3    H280211   6.653   0.751  12.021 -1.0028  1.3817 -0.8079
19574TIP3   OH280212   5.949   0.109   1.291  0.0112  0.0816  0.4955
19574TIP3    H180213   5.883   0.178   1.284  1.6767  1.7762  0.8171
19574TIP3    H280214   5.992   0.126   1.375  1.4561 -0.4140 -0.1158
19575TIP3   OH280215   6.048   6.269   2.537 -0.3523  0.2729 -0.6786
19575TIP3    H180216   6.097   6.224   2.468 -0.1389 -0.8559  0.1852
19575TIP3    H280217   6.055   6.361   2.513  0.9437  0.0326 -1.3918
19576TIP3   OH280218   4.942   1.908  15.147  0.0086 -0.0266 -1.0847
19576TIP3    H180219   5.016   1.948  15.193 -0.3203  0.5843 -1.0904
19576TIP3    H280220   4.899   1.854  15.213  0.1263  0.0607 -0.9370
19577TIP3   OH280221   6.374   2.802  16.998 -0.7186 -0.2832 -0.9416
19577TIP3    H180222   6.403   2.893  16.992 -0.8199 -0.1525  0.2576
19577TIP3    H280223   6.445   2.751  16.961 -0.1563  0.2145 -0.5635
19578TIP3   OH280224   4.673   5.653   1.296 -0.0895 -0.5248 -1.1104
19578TIP3    H180225   4.728   5.730   1.285  0.8406 -1.1661 -1.0800
19578TIP3    H280226   4.656   5.622   1.207 -0.8962 -0.0049 -1.1501
19579TIP3   OH280227   6.704   1.022   1.737  0.1443  0.3644 -0.3021
19579TIP3    H180228   6.617   1.050   1.765  0.5279 -0.2246  1.5954
19579TIP3    H280229   6.688   0.949   1.676 -0.7136 -1.3116  1.8044
19580TIP3   OH280230   2.795   1.246  17.071 -0.1408  0.3282  0.1987
19580TIP3    H180231   2.846   1.326  17.062 -1.0684  0.8000 -1.1723
19580TIP3    H280232   2.860   1.176  17.076  0.6640  1.0993  0.6093
19581TIP3   OH280233   4.159   0.564   5.912 -0.1018  0.3908 -0.2899
19581TIP3    H180234   4.097   0.493   5.924 -0.6692  0.8265 -0.6270
19581TIP3    H280235   4.241   0.531   5.951 -0.8178  0.2397  1.1556
19582TIP3   OH280236   6.488   3.763   2.561 -0.2772 -0.0264  0.3305
19582TIP3    H180237   6.462   3.768   2.653  1.0955  1.2008  0.6946
19582TIP3    H280238   6.572   3.716   2.563 -0.6035 -0.6550 -0.3871
19583TIP3   OH280239   3.435   6.291   3.611 -0.3343  0.2796  0.3539
19583TIP3    H180240   3.421   6.198   3.590  3.3588 -0.5791  1.0127
19583TIP3    H280241   3.431   6.295   3.706 -0.6022  0.8345  0.3194
19584TIP3   OH280242   4.727   6.731  14.107  0.1614  0.3616  0.4694
19584TIP3    H180243   4.738   6.648  14.154 -1.7534  0.2799  0.8302
19584TIP3    H280244   4.757   6.713  14.018 -2.3559 -1.4486 -0.1150
19585TIP3   OH280245   1.488   2.057   0.370 -0.7779  0.5397  0.4095
19585TIP3    H180246   1.403   2.019   0.392 -1.6641  0.6139 -2.5566
19585TIP3    H280247   1.533   1.988   0.321  0.8018  0.6345  1.6286
19586TIP3   OH280248   1.510   6.726  16.858 -0.1351  0.1083  0.0358
19586TIP3    H180249   1.428   6.682  16.835  0.1164  0.0115 -0.6984
19586TIP3    H280250   1.528   6.697  16.947 -0.3643 -0.6779 -0.1677
19587TIP3   OH280251   6.267   2.442   2.660  0.1138 -0.5616  0.4829
19587TIP3    H180252   6.334   2.482   2.604 -1.2457  0.8474 -0.2157
19587TIP3    H280253   6.279   2.485   2.745  0.2689 -0.5208  0.4414
19588TIP3   OH280254   0.666   0.842   1.360 -0.1328 -0.1450 -0.1567
19588TIP3    H180255   0.597   0.902   1.334  2.0619  2.6382  0.0358
19588TIP3    H280256   0.662   0.771   1.295 -2.0933  0.7384 -1.0662
19589TIP3   OH280257   4.836   0.035  13.393 -0.0317 -0.3359  0.0991
19589TIP3    H180258   4.847  -0.058  13.415 -1.3782 -0.6830 -0.6001
19589TIP3    H280259   4.844   0.038  13.298  0.2796  0.3136  0.1461
19590TIP3   OH280260   1.719   5.442   0.828 -0.3439 -0.1115  0.1677
19590TIP3    H180261   1.633   5.404   0.845  0.0178 -0.9133  0.2732
19590TIP3    H280262   1.720   5.460   0.734 -0.1259 -1.4098 -0.0911
19591TIP3   OH280263   0.696   3.975  11.311  0.0019 -0.2291 -0.5854
19591TIP3    H180264   0.663   3.929  11.388 -0.3108  2.1088  0.7853
19591TIP3    H280265   0.658   3.927  11.237 -2.8098 -0.3975  0.8121
19592TIP3   OH280266   5.699   5.714   1.282 -0.3367 -0.6134  0.5936
19592TIP3    H180267   5.728   5.628   1.254  0.2141 -0.6915  1.3581
19592TIP3    H280268   5.647   5.698   1.361  2.8683 -0.0637  3.0538
19593TIP3   OH280269   1.003   2.194   3.178 -0.1624  0.3267 -0.4817
19593TIP3    H180270   1.048   2.142   3.111  0.0466  0.1312 -0.1900
19593TIP3    H280271   0.989   2.133   3.250 -0.5593  0.4857 -0.4211
19594TIP3   OH280272   5.271   0.764   0.803 -0.3380 -0.0637  0.2662
19594TIP3    H180273   5.201   0.701   0.821 -2.0256 -0.6125 -5.8055
19594TIP3    H280274   5.342   0.712   0.766  1.3108  1.0073  1.7782
19595TIP3   OH280275   1.353   0.438   6.471 -0.5627 -0.0213 -0.1866
19595TIP3    H180276   1.269   0.420   6.430 -0.1030 -1.4699 -0.5769
19595TIP3    H280277   1.338   0.426   6.565 -1.0526  0.8885 -0.1436
19596TIP3   OH280278   4.598   4.315  12.546  0.0204 -0.1847  0.8059
19596TIP3    H180279   4.548   4.394  12.565 -0.7420 -0.2372 -0.8560
19596TIP3    H280280   4.535   4.243  12.559 -0.5748 -0.2259 -1.7376
19597TIP3   OH280281   6.783   2.190  10.313 -0.7513  0.1259 -0.0154
19597TIP3    H180282   6.817   2.279  10.312  1.3240 -0.6276 -1.3953
19597TIP3    H280283   6.821   2.150  10.391  0.5217 -0.3203 -0.8427
19598TIP3   OH280284   6.546   1.310   6.110 -0.0008  0.0389 -0.3055
19598TIP3    H180285   6.491   1.365   6.167 -0.6421 -0.1676 -0.7153
19598TIP3    H280286   6.630   1.305   6.156 -0.2222  0.6150  0.1815
19599TIP3   OH280287   4.366   4.735   2.000 -0.0833  0.1354  0.1682
19599TIP3    H180288   4.360   4.648   2.039 -0.9099 -0.3687 -1.0201
19599TIP3    H280289   4.384   4.793   2.073  0.1280 -0.9920  1.0359
19600TIP3   OH280290   4.053   6.046  15.264 -0.0555 -0.7501 -0.1287
19600TIP3    H180291   3.973   5.993  15.258 -0.6013  0.2435 -3.3646
19600TIP3    H280292   4.074   6.070  15.174  1.9759  1.8881  0.8813
19601TIP3   OH280293   3.036   2.099   1.368 -0.2022 -0.4842  0.1597
19601TIP3    H180294   3.077   2.136   1.446 -0.9392 -1.7266  1.1581
19601TIP3    H280295   2.942   2.102   1.386 -0.5972  1.4161 -1.6891
19602TIP3   OH280296   1.400   5.210   5.711 -0.4769  0.3179  0.2954
19602TIP3    H180297   1.344   5.287   5.703  0.0671  0.6560 -0.4656
19602TIP3    H280298   1.381   5.159   5.632  0.6124  0.6760 -0.2252
19603TIP3   OH280299   4.625   0.081  12.910  0.3819  0.6466  0.2736
19603TIP3    H180300   4.682   0.140  12.959 -0.9236  0.3590  2.2468
19603TIP3    H280301   4.684   0.012  12.877  1.2296  0.5247  1.9618
19604TIP3   OH280302   2.950   2.859   3.910  0.0721  0.6408  0.1407
19604TIP3    H180303   2.935   2.775   3.866 -1.8763  0.7650  0.5054
19604TIP3    H280304   2.874   2.912   3.888  1.0035  2.1358  0.3869
19605TIP3   OH280305   4.747   4.585  11.882 -0.3951  0.0027 -0.0780
19605TIP3    H180306   4.728   4.673  11.913 -1.3660 -0.2231 -0.0143
19605TIP3    H280307   4.775   4.597  11.791  0.7154  0.4856  0.3031
19606TIP3   OH280308   2.714   4.096   3.848 -0.2894  0.6465  0.1565
19606TIP3    H180309   2.771   4.075   3.921  0.6423 -0.4363 -0.8437
19606TIP3    H280310   2.667   4.175   3.876  2.3426  2.1278  0.6703
19607TIP3   OH280311   0.553   0.932  10.806 -0.5205  0.1800 -0.6076
19607TIP3    H180312   0.572   0.932  10.712  1.8468  1.1693 -0.1732
19607TIP3    H280313   0.484   0.866  10.815 -0.2754 -0.5035 -2.9269
19608TIP3   OH280314   0.698   1.046  11.954  0.1105 -0.1754 -0.1853
19608TIP3    H180315   0.706   1.108  11.882  1.5577 -0.8853 -0.6666
19608TIP3    H280316   0.729   1.095  12.031 -0.5785  0.2921 -0.1937
19609TIP3   OH280317   2.586   5.026   1.407 -0.2233 -0.3959 -0.5571
19609TIP3    H180318   2.615   5.038   1.498  0.2991  0.1581 -0.7894
19609TIP3    H280319   2.637   5.090   1.357 -2.2129  1.0062 -0.9201
19610TIP3   OH280320   2.389   0.417   4.370  0.0073 -0.3359  0.8220
19610TIP3    H180321   2.483   0.403   4.383 -0.2431 -2.2544  0.8968
19610TIP3    H280322   2.383   0.494   4.313  1.6434 -0.4798  0.4248
19611TIP3   OH280323   2.182   0.571   5.254 -0.0418  0.0167 -0.1945
19611TIP3    H180324   2.195   0.649   5.308  0.4567  0.4034 -0.8575
19611TIP3    H280325   2.255   0.572   5.192  0.5847 -1.5697  0.4744
19612TIP3   OH280326   5.946   1.972  10.960  0.1459 -0.6900 -0.1627
19612TIP3    H180327   5.863   1.959  10.913  0.7017 -1.3795 -0.9681
19612TIP3    H280328   6.010   1.923  10.910  1.1242  0.1236  0.2566
19613TIP3   OH280329   1.142   3.404   0.428 -0.6190  0.0651 -0.2988
19613TIP3    H180330   1.233   3.376   0.413 -0.3973  0.1624  0.8286
19613TIP3    H280331   1.150   3.491   0.467 -1.1652 -0.4053  0.8773
19614TIP3   OH280332   3.005   1.810  11.204  0.8376 -0.8321  0.2632
19614TIP3    H180333   3.083   1.826  11.151  0.3338 -0.8474 -0.4913
19614TIP3    H280334   2.932   1.839  11.150  0.2161 -1.9422  0.4708
19615TIP3   OH280335   3.238   4.842   2.878  0.2234 -0.2936  0.2615
19615TIP3    H180336   3.235   4.818   2.786  0.3346 -0.1129  0.2084
19615TIP3    H280337   3.170   4.790   2.920 -0.5296  0.3727 -0.1011
19616TIP3   OH280338   4.470   2.170   4.273  0.5099 -0.3201  0.3665
19616TIP3    H180339   4.512   2.220   4.342  0.4220  1.3344 -0.7257
19616TIP3    H280340   4.543   2.130   4.225  0.6082 -0.8387  0.9414
19617TIP3   OH280341   4.415   2.051  13.190 -0.1361 -0.0631 -0.3550
19617TIP3    H180342   4.398   2.141  13.220 -2.4027 -0.9360  1.2948
19617TIP3    H280343   4.354   2.038  13.117 -1.1079 -0.7501  0.5390
19618TIP3   OH280344   2.848   5.850   0.579 -0.3183 -0.4353 -0.3518
19618TIP3    H180345   2.815   5.893   0.501  2.2006 -0.1676 -1.3892
19618TIP3    H280346   2.771   5.828   0.631 -1.8603  3.4601 -0.7256
19619TIP3   OH280347   3.780   0.386   2.086  0.5000  0.1927 -0.5626
19619TIP3    H180348   3.778   0.304   2.136  1.1982  0.5844  0.1344
19619TIP3    H280349   3.773   0.455   2.152  1.1382  0.7149 -1.0218
19620TIP3   OH280350   4.340   5.401   1.485  0.2222  0.2347  0.1215
19620TIP3    H180351   4.265   5.376   1.539 -0.9872  0.8910 -1.1778
19620TIP3    H280352   4.396   5.323   1.483 -1.0970 -0.7291  0.0229
19621TIP3   OH280353   4.866   3.132   4.704  0.1050  0.5674  0.5152
19621TIP3    H180354   4.905   3.210   4.744 -0.5503  0.3971  1.5442
19621TIP3    H280355   4.910   3.059   4.747  2.1694  0.2757 -1.8632
19622TIP3   OH280356   5.974   2.122   3.158 -0.3622 -0.0063  0.0112
19622TIP3    H180357   6.003   2.192   3.217 -0.0320 -0.7161  0.7122
19622TIP3    H280358   5.981   2.043   3.211  1.5146 -0.9073 -1.4753
19623TIP3   OH280359   5.124   5.005   5.122  0.3966 -0.1563 -0.1345
19623TIP3    H180360   5.218   5.020   5.110  0.2014  0.7219 -0.6430
19623TIP3    H280361   5.097   5.072   5.185 -0.2212  0.8394 -1.3889
19624TIP3   OH280362   4.237   2.229   0.460 -0.1312  0.0816 -0.1442
19624TIP3    H180363   4.273   2.200   0.377 -2.3624 -1.4632 -0.6767
19624TIP3    H280364   4.250   2.154   0.519 -1.0563  0.0801  0.0738
19625TIP3   OH280365   2.371   3.905  12.851 -0.2265 -0.2078  0.3198
19625TIP3    H180366   2.456   3.929  12.886  1.3506 -3.0566 -1.1995
19625TIP3    H280367   2.331   3.852  12.919 -1.1972  1.6818  1.3138
19626TIP3   OH280368   3.407   3.508  16.338  0.0822 -0.2683 -0.3426
19626TIP3    H180369   3.323   3.552  16.348  0.4689  0.3055  0.5472
19626TIP3    H280370   3.390   3.417  16.362 -0.7271 -0.6356 -2.1987
19627TIP3   OH280371   4.274   2.725   4.830  0.0392 -0.1720  0.4081
19627TIP3    H180372   4.311   2.812   4.846  0.4885 -0.0430 -1.1768
19627TIP3    H280373   4.259   2.723   4.736  2.5700 -2.7880 -0.0609
19628TIP3   OH280374   5.525   3.671   1.609  0.1810  0.4627  0.2324
19628TIP3    H180375   5.470   3.608   1.654  0.9328  0.4169  1.0962
19628TIP3    H280376   5.481   3.686   1.525 -0.9806  0.2009  0.7837
19629TIP3   OH280377   5.146   4.817   5.746  0.2523  0.5640 -0.4442
19629TIP3    H180378   5.189   4.872   5.812 -0.3506  0.8386 -0.2674
19629TIP3    H280379   5.080   4.874   5.707  0.2738  0.2516 -0.9437
19630TIP3   OH280380   6.212   1.355  15.463 -0.4638 -0.1988  0.2930
19630TIP3    H180381   6.212   1.345  15.368 -1.0208 -0.3035  0.2997
19630TIP3    H280382   6.131   1.402  15.482  0.9355  2.3139  0.4754
19631TIP3   OH280383   6.682   0.062  14.959 -0.8087 -0.5567  0.3070
19631TIP3    H180384   6.661   0.137  15.013  1.7185  0.5454 -0.0828
19631TIP3    H280385   6.771   0.037  14.986  0.1587 -0.6035 -2.5388
19632TIP3   OH280386   1.103   1.977   3.648  0.1199 -0.0412 -0.1346
19632TIP3    H180387   1.047   1.933   3.712 -0.4816  2.5850  1.2436
19632TIP3    H280388   1.192   1.955   3.676  0.0341  3.0949  3.4416
19633TIP3   OH280389   1.017   1.148  12.965 -0.5409  0.6085 -0.2221
19633TIP3    H180390   0.954   1.203  12.918 -0.6526  1.4114  0.8202
19633TIP3    H280391   1.102   1.171  12.927 -0.7545  0.2734 -0.9237
19634TIP3   OH280392   0.423   4.683   2.402 -0.1768  0.2799 -0.0050
19634TIP3    H180393   0.442   4.744   2.474  0.6034  2.6810 -2.0868
19634TIP3    H280394   0.329   4.692   2.388 -0.3974 -0.4673  0.9000
19635TIP3   OH280395   5.665   6.491  12.552 -0.2123  0.3525 -0.0155
19635TIP3    H180396   5.585   6.501  12.501 -0.4941 -0.3332  0.2761
19635TIP3    H280397   5.731   6.541  12.504 -1.1834  2.3673  0.6168
19636TIP3   OH280398   4.855   1.961   1.270 -0.1191  0.1568  0.9389
19636TIP3    H180399   4.854   2.015   1.191 -0.8342 -0.7547  0.2950
19636TIP3    H280400   4.913   2.007   1.330 -0.3817  1.4123  0.2673
19637TIP3   OH280401   6.284   2.299  14.324 -0.2395 -0.1073  0.4737
19637TIP3    H180402   6.260   2.373  14.269 -0.2965 -0.7933 -0.4604
19637TIP3    H280403   6.362   2.328  14.371 -0.7218  0.8139  0.7249
19638TIP3   OH280404   0.880   0.615   1.312 -0.8597 -1.0302  0.2552
19638TIP3    H180405   0.833   0.554   1.255  0.4628 -0.6678 -1.2904
19638TIP3    H280406   0.900   0.690   1.256 -1.6827  0.4687  1.8789
19639TIP3   OH280407   5.071   5.826   1.217 -0.7890 -0.2654 -0.2751
19639TIP3    H180408   5.064   5.731   1.229 -1.7586 -0.2338 -0.5069
19639TIP3    H280409   5.071   5.837   1.122 -0.6726 -0.0248 -0.2468
19640TIP3   OH280410   1.283   4.761   0.952 -0.5878  0.1253  0.5265
19640TIP3    H180411   1.221   4.689   0.937  0.0139 -0.5758  1.2774
19640TIP3    H280412   1.351   4.747   0.886 -0.3645 -0.1311  0.8061
19641TIP3   OH280413   2.171   0.523  12.738 -0.2809 -0.0883 -0.0172
19641TIP3    H180414   2.244   0.477  12.778  0.7122  1.7345  0.3319
19641TIP3    H280415   2.122   0.560  12.811 -2.0884 -1.9319 -0.1789
19642TIP3   OH280416   4.395   3.397   0.137 -0.3998 -0.2043 -0.2987
19642TIP3    H180417   4.307   3.361   0.132 -0.6452  0.4301 -0.7222
19642TIP3    H280418   4.433   3.378   0.051 -0.1481 -0.4082 -0.1449
19643TIP3   OH280419   5.531   3.181   0.434  0.4552  0.0061  0.6569
19643TIP3    H180420   5.452   3.127   0.427 -0.4618  1.1687  1.7876
19643TIP3    H280421   5.538   3.224   0.349 -1.5168  1.7161  1.2802
19644TIP3   OH280422   4.335   1.420   3.420 -0.0312 -0.0846 -0.2100
19644TIP3    H180423   4.338   1.482   3.492  0.8246  0.2184 -0.4967
19644TIP3    H280424   4.425   1.388   3.412 -0.2334 -0.5344 -0.7763
19645TIP3   OH280425   6.676   0.228  11.670  0.5616 -0.4581 -0.4282
19645TIP3    H180426   6.747   0.215  11.733 -1.3689  0.7727  2.1587
19645TIP3    H280427   6.637   0.141  11.660  0.5294 -0.5621  0.5315
19646TIP3   OH280428   3.040   3.518   2.452 -0.3445  0.2131  0.0250
19646TIP3    H180429   2.979   3.517   2.526 -0.0343  0.8558  0.3008
19646TIP3    H280430   3.030   3.433   2.411 -1.3251  0.2562  0.1563
19647TIP3   OH280431   3.250   5.406  10.372  0.2924  1.0738 -0.1707
19647TIP3    H180432   3.343   5.411  10.349  0.4897  4.1023  0.7492
19647TIP3    H280433   3.215   5.492  10.347 -2.2403  0.0952 -0.2701
19648TIP3   OH280434   2.045   2.489   2.345 -0.2839  0.1514  0.2601
19648TIP3    H180435   1.954   2.510   2.366 -0.1260 -0.1316  1.2982
19648TIP3    H280436   2.069   2.551   2.276 -1.2932  0.1543 -0.0982
19649TIP3   OH280437   4.767   0.017   1.016 -0.6040  0.7852 -0.1606
19649TIP3    H180438   4.784   0.104   0.980 -3.3596  1.4407 -0.0584
19649TIP3    H280439   4.803   0.021   1.105 -0.6709  1.8191 -0.1695
19650TIP3   OH280440   0.976   0.807  11.489 -0.1829  0.4489 -0.3418
19650TIP3    H180441   0.888   0.823  11.454 -0.7161 -0.4037  0.5782
19650TIP3    H280442   0.980   0.859  11.569  0.1094  0.3731 -0.3076
19651TIP3   OH280443   5.841   4.470  15.393 -0.0622  0.4107 -0.3662
19651TIP3    H180444   5.925   4.455  15.351 -0.4320 -0.6860 -0.7767
19651TIP3    H280445   5.856   4.450  15.485  0.0101 -0.3558 -0.5334
19652TIP3   OH280446   1.766   5.398   2.028 -0.0192 -0.0625  0.0991
19652TIP3    H180447   1.724   5.344   1.961 -0.5302 -0.4007  0.6846
19652TIP3    H280448   1.804   5.336   2.089 -0.3670  0.2362  0.6258
19653TIP3   OH280449   6.109   0.220   2.510  0.2170  0.0810 -0.3705
19653TIP3    H180450   6.194   0.210   2.468  0.1803  0.3598 -0.5111
19653TIP3    H280451   6.120   0.297   2.566  1.0100 -1.5809  1.9415
19654TIP3   OH280452   4.371   2.125  15.044  0.3587  0.6095  0.5963
19654TIP3    H180453   4.386   2.144  14.951  0.6113  0.9995  0.7118
19654TIP3    H280454   4.369   2.211  15.086 -2.3085  0.6070  0.6041
19655TIP3   OH280455   3.833   4.902   1.515  0.3636  0.2744  0.3157
19655TIP3    H180456   3.754   4.945   1.549  0.8025  0.9442  0.4988
19655TIP3    H280457   3.802   4.852   1.439 -0.2495  0.4785  0.4279
19656TIP3   OH280458   6.173   4.273  16.406 -0.6522  0.6767  0.1086
19656TIP3    H180459   6.243   4.260  16.343 -0.3575 -0.1364  0.5930
19656TIP3    H280460   6.202   4.347  16.460  0.3990 -0.4128  1.0706
19657TIP3   OH280461   3.472   1.507  14.446  0.5335 -0.8275 -0.4250
19657TIP3    H180462   3.428   1.422  14.441 -2.5620  0.6405 -0.3745
19657TIP3    H280463   3.465   1.531  14.539 -3.1085  1.4879 -1.0949
19658TIP3   OH280464   2.480   2.442   1.455  0.0993 -0.5466 -0.1005
19658TIP3    H180465   2.468   2.505   1.383  1.7894  0.9721  0.8518
19658TIP3    H280466   2.556   2.476   1.503 -1.6409 -0.8324  3.0914
19659TIP3   OH280467   6.648   2.803  12.124  0.0978 -0.1324  0.1478
19659TIP3    H180468   6.743   2.805  12.132  0.0165 -1.9924  4.2101
19659TIP3    H280469   6.620   2.892  12.148  0.7496  0.1380 -0.0754
19660TIP3   OH280470   4.074   4.862  13.155 -0.1840  0.0443 -0.0929
19660TIP3    H180471   4.076   4.934  13.218 -0.9905  1.9470 -2.0940
19660TIP3    H280472   4.161   4.821  13.161  0.1296  0.8873  1.4169
19661TIP3   OH280473   4.536   3.577   4.097 -0.0582 -0.3478  0.2332
19661TIP3    H180474   4.447   3.611   4.088 -0.2001 -0.6970  0.2877
19661TIP3    H280475   4.541   3.507   4.031  0.6485  0.6113 -0.7816
19662TIP3   OH280476   3.594   6.640   3.534  0.0904 -0.2297 -0.2235
19662TIP3    H180477   3.578   6.653   3.441 -3.1793 -0.2616  0.2153
19662TIP3    H280478   3.637   6.721   3.563  0.2378  0.1914 -1.5559
19663TIP3   OH280479   2.321   0.726  16.629 -0.7290 -0.4442  0.6954
19663TIP3    H180480   2.379   0.768  16.692 -0.9355  0.5951  0.2187
19663TIP3    H280481   2.282   0.653  16.676 -0.6815  0.1584  1.6828
19664TIP3   OH280482   1.856   4.844   5.386  0.3589 -0.0998 -0.9783
19664TIP3    H180483   1.817   4.893   5.459  0.6810  0.4500 -1.1621
19664TIP3    H280484   1.942   4.818   5.419 -0.5265 -2.1925 -0.2062
19665TIP3   OH280485   1.402   5.129   1.451 -0.4007 -0.2512 -0.0585
19665TIP3    H180486   1.480   5.128   1.394  0.0997 -1.0382  0.6195
19665TIP3    H280487   1.423   5.191   1.520 -0.6625  0.0583 -0.2545
19666TIP3   OH280488   4.301   5.906  14.034  0.2992 -0.2191  0.4993
19666TIP3    H180489   4.381   5.924  14.084 -0.6652  1.7233  1.4692
19666TIP3    H280490   4.246   5.983  14.049 -1.5088 -1.2176 -0.6608
19667TIP3   OH280491   4.513   0.735  15.360 -0.1426 -0.0327 -0.0311
19667TIP3    H180492   4.515   0.787  15.440 -1.8036 -0.9993  0.6566
19667TIP3    H280493   4.435   0.681  15.367 -0.4424 -0.0118 -2.3886
19668TIP3   OH280494   1.246   1.884  14.714 -0.5010  0.1080  0.1692
19668TIP3    H180495   1.185   1.924  14.652 -0.1343  0.2583 -0.0940
19668TIP3    H280496   1.221   1.791  14.715 -1.2831  0.3086  0.7037
19669TIP3   OH280497   6.103   2.469   4.967  0.5952  0.0982  0.4499
19669TIP3    H180498   6.188   2.499   5.002  0.4820  1.0558 -0.0591
19669TIP3    H280499   6.043   2.477   5.042  0.5980  1.0668  0.3719
19670TIP3   OH280500   0.530   4.150   3.485 -0.5339 -0.3567 -0.0099
19670TIP3    H180501   0.586   4.089   3.534  0.4445  0.1996 -0.4080
19670TIP3    H280502   0.539   4.122   3.394  1.3791  1.4523 -0.4405
19671TIP3   OH280503   5.774   2.587   4.545  0.3867 -0.2646  0.3314
19671TIP3    H180504   5.851   2.543   4.509 -1.0049 -0.4887 -2.6580
19671TIP3    H280505   5.786   2.679   4.521 -1.6655 -0.7358 -3.3203
19672TIP3   OH280506   0.761   2.096   5.692 -0.1037 -0.4320  0.4813
19672TIP3    H180507   0.708   2.168   5.660 -0.2245 -0.9919 -0.6119
19672TIP3    H280508   0.790   2.124   5.779  0.8281  1.4529 -0.3787
19673TIP3   OH280509   5.088   5.216  15.168  0.3159 -0.1907  0.4368
19673TIP3    H180510   5.141   5.235  15.091  0.0431 -0.1752  0.2524
19673TIP3    H280511   5.147   5.231  15.242  0.3801  0.4581  0.2610
19674TIP3   OH280512   6.274   1.456  11.714 -0.0550  0.3825 -0.1628
19674TIP3    H180513   6.217   1.509  11.657 -2.1716 -1.1708  0.4003
19674TIP3    H280514   6.232   1.460  11.800  2.0268  1.0806  0.8914
19675TIP3   OH280515   4.592   4.016   4.566  0.0188  0.2292 -0.2551
19675TIP3    H180516   4.601   3.944   4.628  1.4909  1.5027  1.1165
19675TIP3    H280517   4.509   4.058   4.589  1.8137  2.4256  2.9634
19676TIP3   OH280518   4.223   2.680  10.249  0.2076 -0.0853 -0.4246
19676TIP3    H180519   4.312   2.712  10.265  0.2345 -0.9990  1.5613
19676TIP3    H280520   4.229   2.585  10.259 -1.1746 -0.0717  0.9893
19677TIP3   OH280521   5.937   5.956  14.298 -0.2599  0.3981  0.3210
19677TIP3    H180522   5.898   5.897  14.363  1.7650 -2.3860 -0.7984
19677TIP3    H280523   6.030   5.957  14.318  0.3798 -0.2329 -2.1911
19678TIP3   OH280524   4.409   6.375   3.594  0.3129 -0.3494 -0.1160
19678TIP3    H180525   4.403   6.386   3.689  0.5305  1.0926 -0.2382
19678TIP3    H280526   4.374   6.288   3.577  2.2098 -1.5080  1.4789
19679TIP3   OH280527   6.441   5.178   1.322 -0.0166  0.3679  0.0505
19679TIP3    H180528   6.473   5.263   1.292 -0.8857  0.3079 -1.0983
19679TIP3    H280529   6.434   5.125   1.243  0.0558 -0.6259  0.6933
19680TIP3   OH280530   2.122   3.958   4.204 -0.1071 -0.5670  0.2747
19680TIP3    H180531   2.138   3.879   4.153  1.6424  0.5407 -0.9680
19680TIP3    H280532   2.027   3.971   4.198 -0.0443 -0.8157 -2.2136
19681TIP3   OH280533   2.864   0.705  13.059  0.3714  0.6443 -0.3932
19681TIP3    H180534   2.794   0.735  13.116  0.3925  0.7716 -0.4336
19681TIP3    H280535   2.872   0.773  12.993  0.1631  0.3694 -0.7059
19682TIP3   OH280536   1.133   5.753  12.278 -0.1705  0.2440 -0.1116
19682TIP3    H180537   1.067   5.684  12.291 -0.0842 -0.0615 -1.1932
19682TIP3    H280538   1.101   5.826  12.330 -1.1965 -0.0145 -0.3568
19683TIP3   OH280539   5.297   1.244   4.516 -0.0334  0.3851 -0.1476
19683TIP3    H180540   5.257   1.220   4.600 -0.5868 -2.2981 -1.0750
19683TIP3    H280541   5.361   1.312   4.539 -2.0044  1.6602  2.0147
19684TIP3   OH280542   1.378   4.043   1.111  0.8112  0.2216 -0.4347
19684TIP3    H180543   1.462   4.085   1.131  1.4839 -1.6228  0.8400
19684TIP3    H280544   1.355   3.995   1.191 -0.7705 -0.4329 -1.2374
19685TIP3   OH280545   0.966   4.048   1.056  0.9321 -0.0836 -0.0480
19685TIP3    H180546   1.008   4.091   0.981  0.7464  3.2650  1.6128
19685TIP3    H280547   1.021   4.071   1.131 -0.9676 -0.0894  1.4095
19686TIP3   OH280548   2.036   1.670  16.620  0.1885  0.0260 -0.1231
19686TIP3    H180549   1.998   1.706  16.700 -0.7082 -0.6305 -0.2364
19686TIP3    H280550   1.990   1.587  16.606  3.4573 -2.1767  1.1218
19687TIP3   OH280551   6.015   6.453   1.399  0.1255  0.8321 -0.2399
19687TIP3    H180552   5.954   6.526   1.395 -0.0502  0.6478 -0.9242
19687TIP3    H280553   6.102   6.494   1.402 -0.0086  1.0874  0.5358
19688TIP3   OH280554   5.073   6.283   0.541  0.1055 -0.0865  0.0337
19688TIP3    H180555   5.093   6.269   0.633 -0.7496 -0.7769  0.1177
19688TIP3    H280556   5.159   6.294   0.500  0.4815  3.4232  1.3669
19689TIP3   OH280557   1.491   3.319   0.924 -0.2848  0.0842  0.4393
19689TIP3    H180558   1.529   3.332   1.011  0.4951  0.2890  0.0752
19689TIP3    H280559   1.416   3.379   0.921  0.0565  0.5324  0.7448
19690TIP3   OH280560   0.619   6.058   5.600 -0.4052 -0.3551  0.4610
19690TIP3    H180561   0.556   6.021   5.661 -1.3726 -0.8623 -0.7998
19690TIP3    H280562   0.585   6.146   5.582 -1.8409 -1.2153 -1.5533
19691TIP3   OH280563   5.450   6.725   5.245 -0.3319  0.4992 -0.5415
19691TIP3    H180564   5.530   6.733   5.193 -0.0133  1.5608  0.0690
19691TIP3    H280565   5.386   6.685   5.186  0.8305 -0.9856 -0.8226
19692TIP3   OH280566   2.414   4.977   5.386  0.4076  0.2540  0.0551
19692TIP3    H180567   2.462   4.980   5.470 -0.9394  1.3991  0.8239
19692TIP3    H280568   2.390   4.885   5.376  1.0793  0.0015  0.6384
19693TIP3   OH280569   4.475   6.360  14.705 -0.3117  0.2289  0.3299
19693TIP3    H180570   4.480   6.389  14.614 -2.3839  1.3288  0.4989
19693TIP3    H280571   4.384   6.334  14.718 -0.0343 -0.0698  2.0497
19694TIP3   OH280572   3.751   3.739  11.681  0.0701  0.1432 -0.2288
19694TIP3    H180573   3.672   3.687  11.667  0.0811  0.7413 -3.1796
19694TIP3    H280574   3.821   3.675  11.685 -0.1406 -0.2579 -1.9138
19695TIP3   OH280575   3.853   2.304   2.083 -0.0459  0.1061 -0.0492
19695TIP3    H180576   3.832   2.396   2.099 -0.6516 -0.0663  0.1382
19695TIP3    H280577   3.946   2.297   2.104  0.1282  0.7865 -0.5431
19696TIP3   OH280578   4.984   2.849  16.522  0.2644 -0.1600  0.4454
19696TIP3    H180579   4.976   2.924  16.463  3.3054 -0.7702 -0.9141
19696TIP3    H280580   4.985   2.773  16.464 -1.2709 -1.2060  1.7016
19697TIP3   OH280581   1.154   4.843   5.100 -0.4721 -0.2403  0.2703
19697TIP3    H180582   1.232   4.795   5.073 -0.6954 -0.5837  0.2251
19697TIP3    H280583   1.131   4.806   5.185 -0.9551 -0.5856 -0.0100
19698TIP3   OH280584   6.152   4.790   3.556  0.4549 -0.5339  0.0556
19698TIP3    H180585   6.072   4.746   3.527  0.9452 -0.9143 -0.7338
19698TIP3    H280586   6.130   4.825   3.643 -0.6204 -0.4827 -0.2295
19699TIP3   OH280587   1.398   1.642  14.921 -0.0137 -0.1315  0.0414
19699TIP3    H180588   1.411   1.617  14.829 -1.8074  0.6163 -0.4811
19699TIP3    H280589   1.474   1.696  14.943  0.7888 -0.9074 -0.7787
19700TIP3   OH280590   5.637   5.601   1.778  0.3831 -0.3647 -0.1056
19700TIP3    H180591   5.658   5.518   1.736 -0.8627 -1.6476  1.6578
19700TIP3    H280592   5.695   5.605   1.854  0.2000  0.2139  0.0058
19701TIP3   OH280593   4.506   0.764  13.035  0.0892  0.0272  0.6756
19701TIP3    H180594   4.472   0.838  13.086  0.7793  1.0100 -0.2310
19701TIP3    H280595   4.578   0.801  12.985  0.0762 -1.1356 -0.2547
19702TIP3   OH280596   1.649   5.386   0.529 -0.1100  0.4126  0.1527
19702TIP3    H180597   1.651   5.436   0.448 -0.0428 -0.9655 -0.7246
19702TIP3    H280598   1.556   5.378   0.550 -0.2640 -0.8284 -0.8516
19703TIP3   OH280599   0.393   3.299   4.608 -0.8456 -0.5049  0.3626
19703TIP3    H180600   0.446   3.341   4.539 -2.5266  1.6821  0.3103
19703TIP3    H280601   0.335   3.368   4.640 -2.2580 -2.2688  1.8581
19704TIP3   OH280602   1.994   0.061  11.544 -0.1639 -0.5806  0.0285
19704TIP3    H180603   2.024   0.146  11.512  1.9078 -1.8624 -1.7741
19704TIP3    H280604   1.999   0.068  11.640 -0.5795  1.4538 -0.0510
19705TIP3   OH280605   4.810   3.903  15.146  0.8954 -0.1019  0.1666
19705TIP3    H180606   4.890   3.897  15.198 -0.1785 -0.4714  1.8536
19705TIP3    H280607   4.819   3.834  15.080  1.4941 -0.8831  1.0333
19706TIP3   OH280608   6.354   0.676  12.404  0.0143  0.4779  0.0025
19706TIP3    H180609   6.315   0.697  12.320  0.4003 -0.4440 -0.4185
19706TIP3    H280610   6.314   0.593  12.430  2.5220 -1.1841 -1.0443
19707TIP3   OH280611   6.090   1.765   4.709 -0.3537 -0.0830 -0.2142
19707TIP3    H180612   6.118   1.761   4.617 -2.3205  1.0271 -0.9102
19707TIP3    H280613   6.168   1.794   4.757  0.6627 -0.5404 -1.5338
19708TIP3   OH280614   3.165   6.588   4.802 -0.0280  0.1706 -0.1024
19708TIP3    H180615   3.258   6.565   4.801  0.1332  0.5898  1.7632
19708TIP3    H280616   3.147   6.611   4.893 -1.6787  1.2971 -0.6732
19709TIP3   OH280617   1.167   3.363  14.040  0.1653 -0.2467 -0.0178
19709TIP3    H180618   1.100   3.420  14.076 -0.7227 -0.8133 -0.7347
19709TIP3    H280619   1.214   3.418  13.977 -0.3013 -0.1259 -0.2691
19710TIP3   OH280620   4.525   0.962   2.856  0.1947  0.1474  0.2135
19710TIP3    H180621   4.468   1.039   2.856  0.5790  0.5279 -2.1052
19710TIP3    H280622   4.611   0.996   2.882  0.6306  0.8407 -1.8771
19711TIP3   OH280623   6.428   4.149   6.805  0.5726  0.0355 -0.0114
19711TIP3    H180624   6.454   4.206   6.877 -0.5115  0.4114  0.0928
19711TIP3    H280625   6.503   4.089   6.794  1.1329  0.5625  0.8014
19712TIP3   OH280626   1.871   2.872  15.331 -0.9616  0.2268  0.4525
19712TIP3    H180627   1.892   2.779  15.340 -1.2493  0.0289 -0.7010
19712TIP3    H280628   1.885   2.909  15.418 -3.9035 -1.4782  1.7885
19713TIP3   OH280629   3.041   5.261   2.678 -0.3628  0.0850 -0.6253
19713TIP3    H180630   2.965   5.232   2.628 -1.7155  0.8455  0.8681
19713TIP3    H280631   3.059   5.350   2.646 -0.4844  0.1223 -0.5920
19714TIP3   OH280632   3.308   3.320  10.823 -0.0164  0.7675 -0.4804
19714TIP3    H180633   3.320   3.258  10.751 -1.4552  0.2673 -0.3212
19714TIP3    H280634   3.381   3.381  10.814  1.7860 -1.2207 -0.3317
19715TIP3   OH280635   6.091   0.975  12.607  0.4052 -0.2175 -0.4813
19715TIP3    H180636   6.041   0.901  12.574  0.6768 -1.3077  1.4047
19715TIP3    H280637   6.029   1.048  12.607 -0.0829 -0.6007 -1.6380
19716TIP3   OH280638   0.049   4.465  14.653 -0.1594  0.0225  0.2579
19716TIP3    H180639   0.108   4.538  14.671  0.9327 -0.9369  0.7126
19716TIP3    H280640   0.062   4.446  14.560  1.3877 -1.0918  0.6493
19717TIP3   OH280641   1.181   2.683  14.499 -0.0004  0.7258  0.1692
19717TIP3    H180642   1.253   2.655  14.556 -0.8807  0.0820  1.0066
19717TIP3    H280643   1.103   2.639  14.535 -0.8245  1.4325 -0.6810
19718TIP3   OH280644   2.188   1.764   5.156  0.2262 -0.0965  0.2794
19718TIP3    H180645   2.225   1.835   5.209  2.6797 -0.0038 -1.3816
19718TIP3    H280646   2.199   1.685   5.210 -0.5945  0.4575  1.2869
19719TIP3   OH280647   2.034   0.768  11.604  0.1276  0.4064  0.0852
19719TIP3    H180648   2.093   0.824  11.553  1.0616 -2.4634 -2.2952
19719TIP3    H280649   2.087   0.737  11.677  0.5625  0.3841 -0.2338
19720TIP3   OH280650   6.630   0.035  15.848  0.0344  0.5029  0.2162
19720TIP3    H180651   6.557   0.082  15.889 -1.0134 -1.0101  0.1849
19720TIP3    H280652   6.653  -0.033  15.912 -1.5061 -1.7885 -1.4948
19721TIP3   OH280653   0.879   0.870  12.238 -0.2405  0.1856 -0.0543
19721TIP3    H180654   0.833   0.898  12.317 -1.3505  0.6019 -0.8317
19721TIP3    H280655   0.945   0.937  12.223  1.8371 -1.2284  1.9902
19722TIP3   OH280656   3.122   3.450  10.990  0.1113  0.2123  0.4003
19722TIP3    H180657   3.053   3.397  11.031  0.8090  0.5054  1.9925
19722TIP3    H280658   3.185   3.385  10.959  0.2819  0.0427  1.0888
19723TIP3   OH280659   4.756   0.919  15.068  0.7652 -0.5399  0.4010
19723TIP3    H180660   4.683   0.856  15.065  0.5493 -0.2490 -0.8402
19723TIP3    H280661   4.717   0.998  15.104 -0.7604  1.0553 -4.0591
19724TIP3   OH280662   2.805   0.667   3.213  0.1417  0.0852  0.2429
19724TIP3    H180663   2.814   0.624   3.298  0.0330 -0.2854  0.0704
19724TIP3    H280664   2.824   0.598   3.150  0.6550  0.4701 -0.0256
19725TIP3   OH280665   2.410   3.323   0.050  0.1357  0.2346  0.1078
19725TIP3    H180666   2.451   3.296  -0.031 -0.3439  0.5637 -0.2536
19725TIP3    H280667   2.350   3.393   0.025 -0.5621 -0.1539  0.6279
19726TIP3   OH280668   1.140   1.448   5.589 -0.2878  0.0299  0.1287
19726TIP3    H180669   1.084   1.521   5.564 -0.1666 -0.2596 -1.0507
19726TIP3    H280670   1.225   1.468   5.549 -1.0635 -2.2405 -3.0489
19727TIP3   OH280671   5.441   1.615   2.300 -0.4608 -0.3640 -0.5681
19727TIP3    H180672   5.445   1.710   2.312  1.2718 -0.4625 -0.0407
19727TIP3    H280673   5.425   1.603   2.207  0.9822  0.4822 -0.9625
19728TIP3   OH280674   2.390   3.955   1.066 -0.3356  0.2101 -0.3037
19728TIP3    H180675   2.319   3.890   1.064 -0.1033 -0.0522 -0.0640
19728TIP3    H280676   2.366   4.014   1.137 -0.0203 -0.2199  0.1699
19729TIP3   OH280677   1.840   2.132  13.874  0.0306  0.3511 -0.1047
19729TIP3    H180678   1.881   2.085  13.947 -1.0287  0.0619  0.3187
19729TIP3    H280679   1.783   2.197  13.916 -1.2656 -0.4053 -0.6573
19730TIP3   OH280680   1.609   5.175   1.244 -0.2125 -0.0229  0.2792
19730TIP3    H180681   1.628   5.143   1.156  2.5184  2.0399 -0.0279
19730TIP3    H280682   1.540   5.240   1.232  2.1891  2.5186 -1.0051
19731TIP3   OH280683   6.195   1.279   0.301  0.0533  0.3898 -0.1344
19731TIP3    H180684   6.223   1.216   0.368  0.3836  1.1810  0.4932
19731TIP3    H280685   6.264   1.345   0.300 -0.4628  0.9355 -0.5283
19732TIP3   OH280686   5.190   3.988   5.171 -0.2059 -0.0854  0.5113
19732TIP3    H180687   5.146   3.979   5.256  1.7427 -0.2576  1.5560
19732TIP3    H280688   5.208   4.082   5.162 -1.5639  0.1231 -0.3694
19733TIP3   OH280689   4.992   3.260  11.383  0.5013  0.5609  0.1165
19733TIP3    H180690   4.907   3.227  11.352  0.7469 -1.7147  1.6834
19733TIP3    H280691   5.047   3.183  11.391  2.2810  1.8112  0.6145
19734TIP3   OH280692   3.306   1.328   1.180 -0.0032  0.6388 -0.7034
19734TIP3    H180693   3.320   1.272   1.257  0.3276 -0.1662 -1.3389
19734TIP3    H280694   3.274   1.411   1.216  1.2116  0.6581  0.3954
19735TIP3   OH280695   1.046   0.450  16.541 -0.5985  0.5153  0.3442
19735TIP3    H180696   1.104   0.390  16.587  1.9989  1.6008 -1.3152
19735TIP3    H280697   1.078   0.450  16.450 -2.0248  2.5940 -0.2238
19736TIP3   OH280698   6.116   5.741  15.341  0.5812 -0.4596 -0.4532
19736TIP3    H180699   6.185   5.801  15.368 -0.6727  0.5048  0.7004
19736TIP3    H280700   6.041   5.797  15.321  0.8637 -1.1903 -4.4771
19737TIP3   OH280701   4.149   5.778   2.312 -0.3231 -0.1971  0.0343
19737TIP3    H180702   4.138   5.690   2.278  1.7168 -0.1419 -0.9572
19737TIP3    H280703   4.231   5.809   2.272 -1.7604  2.7474 -0.9685
19738TIP3   OH280704   4.448   2.632  12.087  0.5268 -0.0690  0.0948
19738TIP3    H180705   4.535   2.602  12.059  0.0646 -1.1281 -0.2304
19738TIP3    H280706   4.456   2.642  12.182  0.6061 -1.5978  0.2760
19739TIP3   OH280707   3.939   3.071   4.407  0.5119 -0.1763  0.1415
19739TIP3    H180708   3.964   3.127   4.481 -0.4344  1.3080 -0.5983
19739TIP3    H280709   3.996   3.099   4.336  0.2986 -0.4310 -0.1285
19740TIP3   OH280710   2.906   1.022   6.106 -0.0454  0.5240  0.2769
19740TIP3    H180711   2.921   1.100   6.160  1.3159 -0.1138  0.8745
19740TIP3    H280712   2.980   1.021   6.045 -0.4238  0.0738 -0.1820
19741TIP3   OH280713   5.989   4.855   0.269  0.0398 -0.0773 -0.2444
19741TIP3    H180714   5.967   4.945   0.293 -2.2644 -0.7532  0.4839
19741TIP3    H280715   5.921   4.802   0.312  0.9197 -2.0989 -1.2314
19742TIP3   OH280716   3.916   5.429   1.087 -0.8122  0.0232  0.2661
19742TIP3    H180717   3.915   5.494   1.158  1.1294 -0.4199  0.7672
19742TIP3    H280718   3.963   5.473   1.016 -0.5161 -0.4228  0.1840
19743TIP3   OH280719   0.602   0.096   1.453  0.6733 -0.1410 -0.2116
19743TIP3    H180720   0.517   0.054   1.463  0.1669  0.9975  0.5299
19743TIP3    H280721   0.657   0.055   1.520 -0.2276  1.3322  1.5025
19744TIP3   OH280722   0.311   0.889   4.265  0.0895  0.1445  0.2682
19744TIP3    H180723   0.365   0.956   4.306  1.4805 -0.2001 -0.9189
19744TIP3    H280724   0.235   0.881   4.323  1.0479  1.0179  1.7219
19745TIP3   OH280725   0.002   3.547  16.984 -0.5803  0.2192 -0.3219
19745TIP3    H180726  -0.053   3.579  16.913 -0.5569  0.0201 -0.4315
19745TIP3    H280727  -0.042   3.467  17.013 -0.3632  0.0755 -0.3917
19746TIP3   OH280728   4.988   3.147  15.098 -0.0368 -0.1585  0.1299
19746TIP3    H180729   4.978   3.149  15.003 -0.2054  0.0171  0.1507
19746TIP3    H280730   4.910   3.192  15.131  0.8391  1.2848  0.2983
19747TIP3   OH280731   1.448   3.957  11.742  0.3862  0.0727 -0.0120
19747TIP3    H180732   1.482   4.043  11.769 -0.4434  0.0476  1.2104
19747TIP3    H280733   1.525   3.902  11.734  0.9330  0.9246 -0.8289
19748TIP3   OH280734   6.391   3.767   2.854 -0.1428  0.1398  0.2599
19748TIP3    H180735   6.433   3.681   2.854  0.3410  0.3718  0.3790
19748TIP3    H280736   6.413   3.804   2.940  1.6236  1.3185 -0.6318
19749TIP3   OH280737   6.212   5.562   5.400  0.5669  0.0294  0.0812
19749TIP3    H180738   6.174   5.500   5.337  0.6286  0.0065  0.0666
19749TIP3    H280739   6.136   5.602   5.443  0.5280 -0.9585  0.9792
19750TIP3   OH280740   1.977   3.990  12.982 -0.2422 -0.0096  0.1518
19750TIP3    H180741   1.924   3.938  12.922 -2.6564  1.9853  0.3683
19750TIP3    H280742   2.027   4.049  12.926 -0.7171  0.2712  0.0193
19751TIP3   OH280743   6.160   1.154  14.065  0.0590  0.2203 -0.3536
19751TIP3    H180744   6.160   1.114  13.978 -2.1620 -1.2249  0.2262
19751TIP3    H280745   6.129   1.084  14.123 -1.0754  1.9231  1.1872
19752TIP3   OH280746   2.073   3.476   0.973  0.4175 -0.0282  0.2539
19752TIP3    H180747   2.147   3.417   0.963  0.0922 -0.4945  0.5733
19752TIP3    H280748   2.075   3.530   0.895 -1.0197 -2.4091 -1.5548
19753TIP3   OH280749   5.376   4.885   0.600  0.3943 -0.3307  0.1087
19753TIP3    H180750   5.309   4.954   0.600  0.0878 -0.6200  0.7169
19753TIP3    H280751   5.327   4.805   0.576 -0.0465 -1.0451  3.0201
19754TIP3   OH280752   1.239   5.551   0.955  0.1618 -0.2067  0.1937
19754TIP3    H180753   1.250   5.569   0.861 -0.4505  0.2914  0.2123
19754TIP3    H280754   1.242   5.637   0.996 -1.5669 -0.2045  0.4123
19755TIP3   OH280755   2.295   3.114  13.708  0.1235  0.3553 -0.2657
19755TIP3    H180756   2.262   3.185  13.763 -0.1612 -0.0706  0.1287
19755TIP3    H280757   2.295   3.149  13.619 -3.0774 -0.1523 -0.5740
19756TIP3   OH280758   2.325   1.284   2.470 -0.0386  0.1139 -0.1577
19756TIP3    H180759   2.365   1.199   2.449 -0.8445 -0.5304  0.8396
19756TIP3    H280760   2.395   1.334   2.511  0.3115 -0.2583 -0.2943
19757TIP3   OH280761   1.283   4.562  13.527  0.1034  0.2881 -0.5718
19757TIP3    H180762   1.308   4.597  13.441 -0.6045  1.6714 -0.2499
19757TIP3    H280763   1.346   4.602  13.588 -1.4146  2.0294 -0.0488
19758TIP3   OH280764   2.843   0.699   1.702 -0.4079  0.1160 -0.5966
19758TIP3    H180765   2.936   0.719   1.714 -0.4081  0.3003 -0.8800
19758TIP3    H280766   2.825   0.725   1.612 -1.1436  1.6523 -0.0296
19759TIP3   OH280767   4.798   6.176  16.215  0.3102  0.3892 -0.1498
19759TIP3    H180768   4.791   6.132  16.299 -0.5297  1.0811  0.1548
19759TIP3    H280769   4.750   6.119  16.154  0.5422  0.1139 -0.0787
19760TIP3   OH280770   0.957   4.732  11.161 -0.2193 -0.3006  0.3554
19760TIP3    H180771   0.959   4.665  11.229  0.9852 -2.2771 -1.5042
19760TIP3    H280772   0.928   4.686  11.082  0.0478  1.5109 -0.8671
19761TIP3   OH280773   4.586   0.188   0.159  0.2347  0.2360  0.0393
19761TIP3    H180774   4.498   0.150   0.153 -0.4233  1.4397  1.3560
19761TIP3    H280775   4.599   0.202   0.253  1.3855  1.0976 -0.2308
19762TIP3   OH280776   1.878   1.440   3.935  0.5000  0.0565 -0.2024
19762TIP3    H180777   1.827   1.392   3.870  0.8367 -4.3098  2.3377
19762TIP3    H280778   1.969   1.433   3.905  0.3580  0.7705 -0.7902
19763TIP3   OH280779   0.850   4.654  15.025 -0.4081  0.8002 -0.0681
19763TIP3    H180780   0.905   4.579  15.049 -0.7548  1.3242  2.7442
19763TIP3    H280781   0.912   4.719  14.993  0.0342 -0.2179 -1.3633
19764TIP3   OH280782   3.829   0.709   6.630  0.0159 -0.3475 -0.7490
19764TIP3    H180783   3.743   0.723   6.671  0.2080 -0.0518 -0.4396
19764TIP3    H280784   3.863   0.797   6.617  0.4461 -0.4781 -0.5025
19765TIP3   OH280785   3.001   2.465   3.961 -0.0214 -0.2141  0.1290
19765TIP3    H180786   3.068   2.397   3.955 -0.5385 -0.6440 -1.0404
19765TIP3    H280787   3.009   2.514   3.879  0.8501  1.6510  1.2416
19766TIP3   OH280788   4.750   0.838   2.120 -0.1139  0.0557  0.1440
19766TIP3    H180789   4.765   0.904   2.053 -0.1388 -1.0796 -1.0235
19766TIP3    H280790   4.827   0.842   2.176 -0.5030  1.6309  0.5893
19767TIP3   OH280791   0.178   3.373   4.369  0.3090 -0.5549 -0.1026
19767TIP3    H180792   0.137   3.291   4.396  0.0639 -0.7529 -1.0716
19767TIP3    H280793   0.105   3.431   4.348  0.4651  0.0622  0.9496
19768TIP3   OH280794   4.588   3.248   6.287 -0.2452 -0.2942 -0.2509
19768TIP3    H180795   4.509   3.253   6.340 -0.1730  0.1833 -0.1843
19768TIP3    H280796   4.604   3.338   6.258 -1.5984 -0.8246 -3.0381
19769TIP3   OH280797   1.582   5.278  11.731 -0.2334 -0.2978 -0.2780
19769TIP3    H180798   1.669   5.249  11.704 -0.6091 -1.0801 -0.6847
19769TIP3    H280799   1.532   5.197  11.741 -1.3850  0.1985 -1.6633
19770TIP3   OH280800   4.554   4.275  10.392  0.2216  0.9913  0.1940
19770TIP3    H180801   4.607   4.196  10.376  0.8934  1.2987  0.8273
19770TIP3    H280802   4.482   4.268  10.330  0.6546  0.2261 -0.2475
19771TIP3   OH280803   5.621   0.472  13.713 -0.2152 -0.5217  0.9047
19771TIP3    H180804   5.633   0.377  13.713  0.0398 -0.5143 -0.5123
19771TIP3    H280805   5.586   0.492  13.626 -1.0846  0.5917  1.4832
19772TIP3   OH280806   6.122   3.863  11.440  0.0926  0.9123  0.2572
19772TIP3    H180807   6.205   3.816  11.430  0.3322  1.6346 -1.5350
19772TIP3    H280808   6.137   3.923  11.513 -0.0070 -1.2541  2.1724
19773TIP3   OH280809   1.658   6.770  16.571  0.5724  0.6164 -0.0602
19773TIP3    H180810   1.649   6.853  16.618 -1.4048  0.3684  0.0822
19773TIP3    H280811   1.695   6.710  16.635  1.7608  1.2710 -0.0809
19774TIP3   OH280812   5.940   3.069  14.461 -0.2793 -0.1427 -0.0695
19774TIP3    H180813   5.855   3.111  14.475  0.9696  2.7054 -0.5228
19774TIP3    H280814   6.004   3.137  14.479  1.9345 -2.0884 -0.2003
19775TIP3   OH280815   2.885   5.259   0.833  0.2841 -0.5743  0.2001
19775TIP3    H180816   2.798   5.219   0.835 -0.5073  1.0586  1.2558
19775TIP3    H280817   2.891   5.298   0.746  0.4211 -1.6053 -0.2641
19776TIP3   OH280818   4.724   2.264  14.202 -0.4907  0.3858 -0.2591
19776TIP3    H180819   4.636   2.298  14.184 -0.6724  1.0056  1.6451
19776TIP3    H280820   4.780   2.342  14.200  0.0498 -0.0053 -1.4470
19777TIP3   OH280821   2.584   1.572   0.453 -0.0131  0.2306 -0.3764
19777TIP3    H180822   2.517   1.517   0.493 -1.2305  1.6103 -0.3936
19777TIP3    H280823   2.650   1.511   0.421  0.3783 -1.0247  2.5016
19778TIP3   OH280824   5.167   3.757   4.894 -0.2414 -0.3050  0.0828
19778TIP3    H180825   5.242   3.717   4.852 -1.7049 -1.0412 -1.9765
19778TIP3    H280826   5.134   3.821   4.830  0.1020  1.9137  1.9661
19779TIP3   OH280827   3.260   0.491   6.121  0.5725 -0.4617  0.7876
19779TIP3    H180828   3.228   0.440   6.195 -1.1785  0.3045  0.6267
19779TIP3    H280829   3.305   0.566   6.161  0.8197 -0.7487  1.0514
19780TIP3   OH280830   3.582   4.302   4.719 -0.2379 -0.4936 -0.7317
19780TIP3    H180831   3.579   4.386   4.673  0.9928  0.3976  0.7259
19780TIP3    H280832   3.647   4.251   4.672  1.1150  0.4605  0.0486
19781TIP3   OH280833   3.696   6.769  13.375  0.0128 -0.1472  0.3206
19781TIP3    H180834   3.707   6.715  13.453 -0.1749 -0.6207  0.0207
19781TIP3    H280835   3.639   6.718  13.317 -1.1882  0.8960  0.5341
19782TIP3   OH280836   1.356   1.050  12.645 -0.0681 -0.2705 -0.3179
19782TIP3    H180837   1.340   1.048  12.551  0.0171 -3.0291 -0.3396
19782TIP3    H280838   1.436   1.000  12.657  1.2643  1.9955  1.0781
19783TIP3   OH280839   1.810   6.798  13.592  0.4587 -0.3895  0.1154
19783TIP3    H180840   1.868   6.721  13.587  0.0173 -0.7113 -0.1639
19783TIP3    H280841   1.731   6.766  13.636 -0.0709 -0.3228 -0.7540
19784TIP3   OH280842   6.018   2.829   1.587  0.3951  0.0806  0.7466
19784TIP3    H180843   6.004   2.922   1.569 -0.4172 -0.2606 -0.5423
19784TIP3    H280844   6.042   2.792   1.502 -1.7861 -1.3263  0.6658
19785TIP3   OH280845   4.715   0.391  14.145 -0.1576 -0.3650 -0.5433
19785TIP3    H180846   4.793   0.362  14.191  0.1143 -2.1759 -1.9757
19785TIP3    H280847   4.724   0.486  14.136  1.3427 -0.4225  0.2408
19786TIP3   OH280848   6.254   2.301  10.838 -0.5632 -0.1679  0.9027
19786TIP3    H180849   6.223   2.246  10.766  0.6633  0.0396  0.1854
19786TIP3    H280850   6.314   2.245  10.887 -1.7247 -0.4484  2.0560
19787TIP3   OH280851   0.026   4.925  12.294 -0.4453 -0.4838 -0.0499
19787TIP3    H180852   0.112   4.964  12.311 -0.2032 -1.1594  0.3081
19787TIP3    H280853   0.042   4.863  12.223 -0.9455  0.4679 -1.0258
19788TIP3   OH280854   1.866   3.252  16.955  0.1484 -0.3736 -0.3192
19788TIP3    H180855   1.937   3.283  16.899 -0.0186 -0.6255 -0.6830
19788TIP3    H280856   1.897   3.266  17.044 -0.3185  1.7875 -0.4326
19789TIP3   OH280857   3.572   6.392   5.652 -0.5606  0.2332  0.4610
19789TIP3    H180858   3.484   6.372   5.619  0.1152 -0.7805 -0.8330
19789TIP3    H280859   3.568   6.370   5.746 -1.0090 -2.3886 -0.0859
19790TIP3   OH280860   3.217   6.165  11.512 -0.6861 -0.1813  0.1318
19790TIP3    H180861   3.128   6.196  11.527 -0.4930 -0.5741  2.5135
19790TIP3    H280862   3.273   6.229  11.556  0.1613 -0.4667 -0.4926
19791TIP3   OH280863   5.614   3.964   3.114  0.6737  0.0539 -0.1626
19791TIP3    H180864   5.550   3.991   3.048  1.8433  0.0127 -1.3559
19791TIP3    H280865   5.683   3.921   3.063  1.3927 -0.3749  1.1495
19792TIP3   OH280866   2.162   4.422   5.445 -0.5802 -0.0087 -0.2564
19792TIP3    H180867   2.158   4.406   5.351 -0.5201 -2.3655  0.0796
19792TIP3    H280868   2.245   4.468   5.458 -0.4592  0.0942 -1.3224
19793TIP3   OH280869   1.503   1.672  17.059 -0.2448  0.4785  0.1232
19793TIP3    H180870   1.463   1.626  17.134  1.3912 -1.1678  0.0500
19793TIP3    H280871   1.469   1.762  17.066 -2.5140 -0.3681  1.0567
19794TIP3   OH280872   4.831   4.197  10.570  0.0151 -0.2006  0.2942
19794TIP3    H180873   4.822   4.129  10.637 -2.5854  0.6094  0.8848
19794TIP3    H280874   4.822   4.151  10.487 -0.0916 -0.7832  0.6210
19795TIP3   OH280875   6.551   2.066  15.678  0.0941  0.0221  0.3120
19795TIP3    H180876   6.610   2.115  15.736  1.0353  0.1052 -0.6870
19795TIP3    H280877   6.578   1.974  15.690 -0.8546 -0.1448  1.2702
19796TIP3   OH280878   4.965   5.268  12.399  0.4538 -0.0219  0.4958
19796TIP3    H180879   5.018   5.346  12.387  0.6690 -0.3156 -0.4804
19796TIP3    H280880   4.959   5.228  12.312 -0.2408 -0.7126  0.8449
19797TIP3   OH280881   5.989   6.415  12.367  0.4262  0.1944 -0.3446
19797TIP3    H180882   5.916   6.424  12.305  2.0819  1.8664 -2.1977
19797TIP3    H280883   6.007   6.505  12.395  1.8784 -0.1627 -0.0871
19798TIP3   OH280884   2.008   3.112  14.787  0.0340  0.1922 -0.0968
19798TIP3    H180885   1.987   3.027  14.748  2.9859 -1.3999  1.4216
19798TIP3    H280886   2.013   3.172  14.712  0.1720 -1.5108 -1.5305
19799TIP3   OH280887   3.719   1.150   2.599 -0.2590  0.2651 -0.1257
19799TIP3    H180888   3.748   1.238   2.574  1.0920 -0.3252 -0.6890
19799TIP3    H280889   3.799   1.098   2.604 -1.0114 -0.8791  0.4840
19800TIP3   OH280890   0.695   3.766   6.061 -0.0807 -0.9113 -0.3015
19800TIP3    H180891   0.685   3.683   6.108  0.3385 -0.3996  0.7286
19800TIP3    H280892   0.614   3.813   6.077  0.3226 -0.4623  0.5006
19801TIP3   OH280893   0.492   1.601   4.609  0.0228 -0.1548 -0.8376
19801TIP3    H180894   0.522   1.612   4.699  0.5228  0.1858 -1.0456
19801TIP3    H280895   0.473   1.690   4.578 -0.9021 -0.3298 -0.8196
19802TIP3   OH280896   2.416   1.306   3.982  0.4069 -0.1602 -0.4206
19802TIP3    H180897   2.473   1.383   3.981 -1.2013  1.0879 -1.6124
19802TIP3    H280898   2.371   1.310   4.066 -0.2299  0.6774 -0.7827
19803TIP3   OH280899   2.898   2.081   6.339  0.7982 -0.8199  0.2740
19803TIP3    H180900   2.826   2.122   6.387 -0.0968 -0.2464 -1.4734
19803TIP3    H280901   2.909   1.995   6.381 -2.9201 -2.2020 -1.1462
19804TIP3   OH280902   5.922   2.751   2.069  0.4489 -0.1445  0.0699
19804TIP3    H180903   5.961   2.752   1.982  0.7559 -0.0088  0.2044
19804TIP3    H280904   5.864   2.675   2.069  0.7384 -0.3714 -0.1309
19805TIP3   OH280905   1.275   6.193  16.095 -0.2014  0.3952  1.1251
19805TIP3    H180906   1.288   6.240  16.013 -0.5220  1.3262  1.6035
19805TIP3    H280907   1.183   6.168  16.095 -0.4785  1.3780  1.7054
19806TIP3   OH280908   6.787   2.993   1.492 -0.0453  0.1137 -0.4183
19806TIP3    H180909   6.855   3.037   1.544  0.4049  1.0187 -1.7175
19806TIP3    H280910   6.716   2.978   1.554 -0.0063  2.2395  0.2150
19807TIP3   OH280911   1.256   0.758   2.460 -0.1504 -0.1048  0.0545
19807TIP3    H180912   1.338   0.805   2.450 -1.1243  1.4915 -1.0243
19807TIP3    H280913   1.267   0.677   2.410 -0.2440  1.5163 -2.7553
19808TIP3   OH280914   5.363   5.308  11.958 -0.1857  0.1626  0.4995
19808TIP3    H180915   5.416   5.232  11.980  4.1346  1.8099 -2.7189
19808TIP3    H280916   5.290   5.273  11.907 -0.4074 -1.9914  2.1616
19809TIP3   OH280917   3.911   2.188  15.267  0.3616  0.3909 -0.0715
19809TIP3    H180918   3.956   2.189  15.351  0.1510 -0.6534  0.0696
19809TIP3    H280919   3.826   2.229  15.284  0.2158 -0.0573  0.2913
19810TIP3   OH280920   5.232   3.335  11.786  0.1130 -0.3121 -0.1758
19810TIP3    H180921   5.236   3.288  11.870 -1.3602 -0.4725 -0.1595
19810TIP3    H280922   5.316   3.380  11.779  0.8703 -1.5390  0.6486
19811TIP3   OH280923   6.127   0.763   4.405  0.2119 -0.1512 -0.1762
19811TIP3    H180924   6.065   0.836   4.399 -0.4719 -0.5344  1.5744
19811TIP3    H280925   6.084   0.700   4.462  2.2436 -0.3911  1.2104
19812TIP3   OH280926   0.832   1.253   2.405 -0.0836 -0.3666 -0.0085
19812TIP3    H180927   0.813   1.163   2.381 -0.2529 -0.3221 -0.0427
19812TIP3    H280928   0.761   1.304   2.365  0.4207 -0.1363 -0.6353
19813TIP3   OH280929   5.966   2.676   0.897  0.0068  0.4023  0.3391
19813TIP3    H180930   6.026   2.701   0.968  0.7125  0.1439 -0.1522
19813TIP3    H280931   5.896   2.627   0.941  1.6540 -1.8960  0.6433
19814TIP3   OH280932   3.983   6.720   5.564 -0.3031  0.1833  0.3631
19814TIP3    H180933   3.898   6.759   5.586 -0.3984  0.2263 -0.0730
19814TIP3    H280934   3.965   6.627   5.554 -0.0560  0.0061  1.5065
19815TIP3   OH280935   2.475   0.712   0.852 -0.1946 -0.5445  0.0151
19815TIP3    H180936   2.410   0.776   0.879  0.5185  0.9219 -1.5070
19815TIP3    H280937   2.429   0.628   0.855 -1.5590  0.1952  0.7940
19816TIP3   OH280938   2.993   4.161   1.595  0.3776  0.1352 -0.3273
19816TIP3    H180939   2.951   4.158   1.509 -0.4102 -0.3146  0.0618
19816TIP3    H280940   2.924   4.189   1.655  1.0498  0.9439  0.0887
19817TIP3   OH280941   3.617   2.176  10.388 -0.6895  0.3935 -0.1012
19817TIP3    H180942   3.554   2.240  10.354 -0.1088  1.7542  1.2480
19817TIP3    H280943   3.564   2.114  10.438 -1.3714 -0.7879 -2.1658
19818TIP3   OH280944   3.715   2.665   6.101 -0.8967 -0.0076  0.0783
19818TIP3    H180945   3.741   2.756   6.110  1.8155 -0.6494 -0.1688
19818TIP3    H280946   3.695   2.655   6.007 -0.8649  0.2728  0.0423
19819TIP3   OH280947   4.696   1.076  10.526  0.1492  0.2904  0.1134
19819TIP3    H180948   4.753   1.077  10.603 -1.7564  0.5419  1.5635
19819TIP3    H280949   4.681   0.983  10.508  0.5118  0.2348  0.0777
19820TIP3   OH280950   6.244   0.902   3.615  0.7570 -0.3265  0.1078
19820TIP3    H180951   6.161   0.888   3.660  0.0478  1.4219 -0.5663
19820TIP3    H280952   6.310   0.869   3.675 -0.2807  0.2573  1.6419
19821TIP3   OH280953   5.938   3.404   5.619  0.0480 -0.1963  0.1992
19821TIP3    H180954   5.851   3.444   5.628  0.7730  1.3620  0.6181
19821TIP3    H280955   5.920   3.314   5.592 -1.6888  0.1596  0.0376
19822TIP3   OH280956   3.153   6.664   0.036 -0.4612 -0.4730  0.0015
19822TIP3    H180957   3.140   6.652   0.130 -1.7793  0.9155  0.0320
19822TIP3    H280958   3.225   6.726   0.030 -1.6346  0.9599  0.1880
19823TIP3   OH280959   1.291   2.962  16.149  0.2829 -0.5125 -0.3489
19823TIP3    H180960   1.280   2.917  16.066  1.4631 -0.1486 -0.7268
19823TIP3    H280961   1.323   3.049  16.125 -1.3899  0.3415  0.3944
19824TIP3   OH280962   1.898   4.103   0.022 -0.0862 -0.0248 -0.2744
19824TIP3    H180963   1.817   4.153   0.030  0.1972  0.4715 -0.4821
19824TIP3    H280964   1.964   4.168  -0.001  0.2280 -0.5358 -0.8469
19825TIP3   OH280965   5.833   6.528   1.607  0.3328 -0.3380 -0.5814
19825TIP3    H180966   5.798   6.441   1.627 -0.4211  0.0841 -0.0083
19825TIP3    H280967   5.871   6.557   1.690  0.1205  0.0902 -0.6327
19826TIP3   OH280968   2.314   2.051   3.632 -0.4285 -0.2321  0.1262
19826TIP3    H180969   2.375   2.109   3.677  0.8952  0.4216 -2.3183
19826TIP3    H280970   2.360   1.967   3.628 -0.6400 -0.3524  0.2378
19827TIP3   OH280971   2.374   6.274   2.661  1.0720 -0.0079  0.2428
19827TIP3    H180972   2.383   6.199   2.721  2.0661  0.2772  0.4738
19827TIP3    H280973   2.301   6.324   2.697 -1.0526 -1.9274 -1.1167
19828TIP3   OH280974   0.655   5.715   0.361  0.4362  0.2913 -0.1338
19828TIP3    H180975   0.686   5.625   0.346 -1.7083 -0.4841 -0.3086
19828TIP3    H280976   0.641   5.750   0.273  0.0100  0.2981 -0.0680
19829TIP3   OH280977   5.192   0.646  12.561  0.0921  0.6130  0.0457
19829TIP3    H180978   5.263   0.591  12.531 -0.1036 -0.0632  0.7856
19829TIP3    H280979   5.127   0.642  12.491  0.0186 -0.2252  0.1476
19830TIP3   OH280980   3.623   2.894   5.377 -0.0565 -0.2748 -0.0873
19830TIP3    H180981   3.575   2.879   5.296  0.6394 -0.1603 -0.5301
19830TIP3    H280982   3.665   2.809   5.395 -4.5812 -2.2231  3.2023
19831TIP3   OH280983   4.208   0.375   4.432 -0.3382 -0.2629  0.2622
19831TIP3    H180984   4.187   0.329   4.351  0.7186  1.0900 -0.8386
19831TIP3    H280985   4.125   0.413   4.460 -0.1706  2.3003 -2.2296
19832TIP3   OH280986   4.325   5.596   2.775  0.8010  0.3157  0.2075
19832TIP3    H180987   4.255   5.637   2.725  1.7509 -0.1166 -1.5620
19832TIP3    H280988   4.401   5.653   2.761  1.2404 -0.1603  0.6225
19833TIP3   OH280989   3.274   5.787   3.168 -0.1395  0.0044 -0.2031
19833TIP3    H180990   3.299   5.873   3.202 -0.7143 -0.2033  0.7694
19833TIP3    H280991   3.214   5.752   3.233  0.9154 -1.5949 -0.0441
19834TIP3   OH280992   2.200   5.720  16.155  0.3401 -0.1977  0.0335
19834TIP3    H180993   2.105   5.731  16.169  0.5728  1.0255  0.8541
19834TIP3    H280994   2.207   5.647  16.094 -1.1200 -0.5716  0.2703
19835TIP3   OH280995   2.405   5.457   4.252  0.1546 -0.9136 -0.2432
19835TIP3    H180996   2.398   5.524   4.184  0.9445 -1.3452 -0.7640
19835TIP3    H280997   2.358   5.494   4.326 -1.2389 -0.6760 -1.2004
19836TIP3   OH280998   4.575   2.278  11.028  0.2701 -0.4018 -0.0279
19836TIP3    H180999   4.566   2.373  11.040  0.3339 -0.5839  1.8691
19836TIP3    H281000   4.665   2.266  10.997 -0.3863  0.2549 -2.4016
19837TIP3   OH281001   4.538   5.743  13.950 -0.5907 -0.0299 -0.2653
19837TIP3    H181002   4.516   5.836  13.947  0.1245  0.1202 -2.2109
19837TIP3    H281003   4.486   5.703  13.881 -0.0967 -0.8826 -0.1637
19838TIP3   OH281004   1.375   6.673   1.611  0.7395  0.0183 -0.7841
19838TIP3    H181005   1.429   6.750   1.594  0.0732  0.9727  1.0633
19838TIP3    H281006   1.422   6.626   1.681 -0.7019  0.8513  0.8411
19839TIP3   OH281007   5.940   3.334  12.409  0.6235 -0.4729  0.4227
19839TIP3    H181008   6.008   3.400  12.414  0.1166  0.2148 -1.1565
19839TIP3    H281009   5.878   3.358  12.477  0.7870  0.2753  0.3131
19840TIP3   OH281010   5.898   4.666  14.844  0.2263  0.0241 -0.3897
19840TIP3    H181011   5.982   4.648  14.801  0.3856 -0.1972  0.0119
19840TIP3    H281012   5.842   4.701  14.774  0.1923 -1.1782 -0.9841
19841TIP3   OH281013   5.922   1.649   2.561  0.0033  0.3031  0.0388
19841TIP3    H181014   5.883   1.699   2.633 -0.4531 -1.2432  0.9138
19841TIP3    H281015   6.016   1.655   2.575 -0.0669  0.4660  0.4485
19842TIP3   OH281016   3.922   2.272  11.642 -0.4502  0.7710  0.2792
19842TIP3    H181017   3.986   2.256  11.711 -0.3339  1.2669  0.2841
19842TIP3    H281018   3.842   2.231  11.674 -0.2302  0.4446  0.4215
19843TIP3   OH281019   5.783   2.469   2.486 -0.1877  0.4890  0.0542
19843TIP3    H181020   5.766   2.401   2.421  0.9752 -0.2476  0.5091
19843TIP3    H281021   5.876   2.487   2.479 -0.3516  1.5658  0.4152
19844TIP3   OH281022   1.618   6.035   4.459  0.0787  0.3628 -0.3013
19844TIP3    H181023   1.566   5.958   4.439 -0.1807  0.6734 -0.8464
19844TIP3    H281024   1.651   6.020   4.548  1.3911 -1.1313 -0.9956
19845TIP3   OH281025   5.411   3.244   1.395  0.0088 -0.2167  0.0478
19845TIP3    H181026   5.477   3.238   1.464 -0.0094 -0.7173  0.0264
19845TIP3    H281027   5.443   3.183   1.327 -0.8280 -0.9829  0.3297
19846TIP3   OH281028   0.034   0.916   4.980 -0.6833 -0.0604 -0.3156
19846TIP3    H181029   0.086   0.966   4.918 -0.7349  0.4585  0.0573
19846TIP3    H281030   0.068   0.940   5.066 -0.6717 -0.7054 -0.1296
19847TIP3   OH281031   5.843   1.769   2.833  0.1709 -0.0875 -0.1429
19847TIP3    H181032   5.806   1.767   2.921  2.2700 -1.0742  0.7880
19847TIP3    H281033   5.860   1.862   2.817 -1.2794  0.2235 -0.0189
19848TIP3   OH281034   3.142   3.839  12.116 -0.2427 -0.6777 -0.6646
19848TIP3    H181035   3.067   3.782  12.098 -2.3187  1.5645  0.3061
19848TIP3    H281036   3.103   3.920  12.148  2.6789 -0.8180  4.2790
19849TIP3   OH281037   6.202   4.917  14.994  0.2261  0.1176 -0.3669
19849TIP3    H181038   6.265   4.848  15.016  1.8186  1.3364 -0.8954
19849TIP3    H281039   6.246   4.998  15.019 -2.3081  0.9321  1.9376
19850TIP3   OH281040   4.364   4.640  15.445 -0.5246  0.0468 -0.0457
19850TIP3    H181041   4.282   4.592  15.446 -1.0459  0.9159 -0.2285
19850TIP3    H281042   4.377   4.664  15.354 -0.4800  0.5866  0.0960
19851TIP3   OH281043   5.449   2.756   3.192  0.5109 -0.3942 -0.9417
19851TIP3    H181044   5.430   2.823   3.127 -1.7570 -2.3145 -2.3995
19851TIP3    H281045   5.513   2.698   3.150 -0.4881 -1.2858 -1.2868
19852TIP3   OH281046   1.481   1.795  14.448 -0.5338 -0.5145  0.8782
19852TIP3    H181047   1.448   1.883  14.428  2.8726  1.1058  1.5723
19852TIP3    H281048   1.448   1.740  14.378 -1.9970  1.5420 -0.1405
19853TIP3   OH281049   4.649   1.732  12.089 -0.3084  0.0315 -0.1087
19853TIP3    H181050   4.645   1.706  11.997 -0.5396 -1.4513  0.2986
19853TIP3    H281051   4.670   1.825  12.086 -3.4878  0.8651 -1.7564
19854TIP3   OH281052   5.265   4.657  16.078  0.0380 -0.0798 -0.0788
19854TIP3    H181053   5.330   4.727  16.074 -0.7400  0.6279 -0.5335
19854TIP3    H281054   5.255   4.628  15.987 -1.0622  0.5538 -0.1749
19855TIP3   OH281055   2.131   1.624   4.519 -0.0927  0.1693  0.4072
19855TIP3    H181056   2.099   1.647   4.432 -0.3400 -0.3101  0.3729
19855TIP3    H281057   2.059   1.647   4.578 -0.0961  0.0725  0.4404
19856TIP3   OH281058   0.949   1.175  14.870 -0.2188 -0.4505  0.1397
19856TIP3    H181059   0.954   1.170  14.966 -1.1170  0.8248  0.2729
19856TIP3    H281060   0.999   1.099  14.840  3.0291  0.9253  1.5619
19857TIP3   OH281061   6.354   6.242  16.015  0.0977 -0.4134  0.0894
19857TIP3    H181062   6.431   6.190  15.993  1.3560 -0.3333  3.7002
19857TIP3    H281063   6.299   6.183  16.066 -0.5685  0.5354  0.5016
19858TIP3   OH281064   1.442   4.310   2.990  0.2409  0.1804  0.3419
19858TIP3    H181065   1.391   4.246   3.040 -1.7289  2.3318  1.2725
19858TIP3    H281066   1.532   4.279   2.996 -0.6793 -2.8507  0.1284
19859TIP3   OH281067   4.580   1.808   0.863 -0.4981 -0.2961  0.1023
19859TIP3    H181068   4.649   1.743   0.876 -0.2241  0.1758  1.0285
19859TIP3    H281069   4.548   1.790   0.774  0.1813 -1.1109  0.0039
19860TIP3   OH281070   0.452   5.326   3.304  0.2370 -0.5558  0.0096
19860TIP3    H181071   0.425   5.242   3.266 -0.2291 -0.2939 -0.2540
19860TIP3    H281072   0.443   5.314   3.398  0.1247 -0.7887 -0.0292
19861TIP3   OH281073   4.403   4.715  11.906 -0.0795  0.5254 -0.0571
19861TIP3    H181074   4.420   4.631  11.864  0.6867  0.8532 -0.4304
19861TIP3    H281075   4.316   4.706  11.944  0.3498 -0.7374  0.6828
19862TIP3   OH281076   0.993   0.329  12.771  0.3367  0.2676 -0.3910
19862TIP3    H181077   0.980   0.254  12.830 -1.6991  0.0323 -1.0289
19862TIP3    H281078   1.075   0.311  12.726  0.1094 -1.3736 -0.2025
19863TIP3   OH281079   3.103   4.578   3.956 -0.3067 -0.1563  0.0936
19863TIP3    H181080   3.156   4.615   4.027 -2.5389  1.9082  0.8396
19863TIP3    H281081   3.127   4.629   3.879  0.6056 -0.9631 -0.1615
19864TIP3   OH281082   4.035   3.681  11.597 -0.2222 -0.7600  0.1265
19864TIP3    H181083   3.992   3.754  11.643 -1.7265 -0.6699 -1.3247
19864TIP3    H281084   4.106   3.723  11.548 -0.8703 -0.2976 -0.4383
19865TIP3   OH281085   2.888   2.512   6.232 -0.0630 -0.7292  0.0785
19865TIP3    H181086   2.842   2.550   6.307 -0.9787  0.4589 -1.0335
19865TIP3    H281087   2.962   2.571   6.217 -0.1814 -0.6683 -0.2704
19866TIP3   OH281088   4.442   0.210   1.671  0.7107 -0.2025 -0.5186
19866TIP3    H181089   4.405   0.230   1.585 -0.1643  1.2411  0.1525
19866TIP3    H281090   4.488   0.127   1.659 -2.3263 -1.9130 -1.5724
19867TIP3   OH281091   2.837   0.989   0.972  0.4055 -0.3163 -0.2831
19867TIP3    H181092   2.779   0.945   1.034 -1.0858  1.6151 -0.2526
19867TIP3    H281093   2.792   0.982   0.888  1.7784 -1.7239 -0.9619
19868TIP3   OH281094   0.942   6.550   3.022  0.2097  0.4810 -0.4421
19868TIP3    H181095   0.981   6.556   3.109  0.9499  1.4762 -0.8105
19868TIP3    H281096   1.017   6.561   2.962 -0.2834 -0.1776 -1.2056
19869TIP3   OH281097   6.563   3.231  11.033  0.6278 -0.0524 -0.5315
19869TIP3    H181098   6.601   3.190  10.956 -0.8409  0.7089 -1.7058
19869TIP3    H281099   6.630   3.292  11.063  1.5022 -0.8765 -0.7349
19870TIP3   OH281100   1.943   4.283   5.695  0.2640  0.3886 -0.3911
19870TIP3    H181101   1.903   4.298   5.781 -0.6102 -0.1209 -0.6901
19870TIP3    H281102   1.961   4.371   5.662  0.5807  0.5882  0.2978
19871TIP3   OH281103   4.792   2.849   5.595  0.3783  0.4062 -0.3614
19871TIP3    H181104   4.766   2.757   5.602 -3.5187  1.2872 -0.7783
19871TIP3    H281105   4.872   2.855   5.648 -0.0855 -2.8830  1.0034
19872TIP3   OH281106   6.306   3.128  12.675 -0.0306  0.4887  0.2343
19872TIP3    H181107   6.257   3.113  12.595  1.1840 -1.1089 -0.2808
19872TIP3    H281108   6.301   3.223  12.690 -0.1728  0.8467 -1.8055
19873TIP3   OH281109   0.258   1.125  16.029 -0.2320  0.5343  0.0096
19873TIP3    H181110   0.353   1.117  16.018 -0.1671  1.3114 -0.0780
19873TIP3    H281111   0.223   1.124  15.940 -0.1508  1.8115 -0.0663
19874TIP3   OH281112   2.915   5.340  17.003  0.4384  0.1106  0.8658
19874TIP3    H181113   2.972   5.297  17.066 -1.6422 -1.5113  1.7306
19874TIP3    H281114   2.976   5.385  16.943  2.7854 -3.5189  0.2017
19875TIP3   OH281115   6.358   2.654  10.296  0.5024 -0.0682  0.6072
19875TIP3    H181116   6.364   2.580  10.235  2.0013 -0.2091  0.8718
19875TIP3    H281117   6.446   2.692  10.296 -0.2656  1.8194  0.3881
19876TIP3   OH281118   0.762   5.018  15.771  0.4393  0.5441  0.4379
19876TIP3    H181119   0.807   5.082  15.826  0.6717  1.5498 -0.8765
19876TIP3    H281120   0.823   4.944  15.766 -0.0502 -0.0634  2.3900
19877TIP3   OH281121   2.090   5.575   0.793 -0.0291 -0.3280  0.1914
19877TIP3    H181122   2.158   5.542   0.852  0.0094  0.3330  0.5296
19877TIP3    H281123   2.031   5.501   0.780  0.2293 -0.6227  0.6711
19878TIP3   OH281124   0.882   6.772  13.089  0.6683 -0.6415 -0.3275
19878TIP3    H181125   0.918   6.706  13.148 -1.3346 -2.5530 -1.0854
19878TIP3    H281126   0.790   6.747  13.080  0.1778  1.4762 -1.7718
19879TIP3   OH281127   1.463   6.558  12.547  1.0639  0.8500 -0.7527
19879TIP3    H181128   1.447   6.502  12.471  0.3701  0.7561 -0.5439
19879TIP3    H281129   1.557   6.577  12.543  1.4290 -0.7481 -0.5530
19880TIP3   OH281130   2.477   1.321   5.376 -0.3613  0.0275  0.0910
19880TIP3    H181131   2.517   1.283   5.298  1.2296  0.2339  0.7786
19880TIP3    H281132   2.533   1.395   5.398 -0.9852  0.1742  1.2414
19881TIP3   OH281133   2.438   2.364   4.580  0.1116 -0.1040  0.3388
19881TIP3    H181134   2.444   2.282   4.628  1.6416 -1.2768 -1.7131
19881TIP3    H281135   2.463   2.431   4.644  2.5656 -1.6183  1.0880
19882TIP3   OH281136   5.075   0.185  16.235  0.1619  0.1919 -0.1759
19882TIP3    H181137   5.157   0.233  16.239  0.0340  0.3333  1.4962
19882TIP3    H281138   5.064   0.149  16.323 -1.9297  0.8197 -0.1212
19883TIP3   OH281139   2.071   1.338   4.339  0.2979  0.2032 -0.7644
19883TIP3    H181140   2.120   1.267   4.381  0.6191 -0.1257 -1.6521
19883TIP3    H281141   2.061   1.309   4.248 -0.5252  0.8084 -0.8799
19884TIP3   OH281142   6.564   5.046   4.899  0.0542 -0.1436  0.0305
19884TIP3    H181143   6.614   5.114   4.944  1.3115 -1.1639  0.2158
19884TIP3    H281144   6.564   5.073   4.807 -0.2975  0.5907  0.2332
19885TIP3   OH281145   4.388   3.280  16.945  0.4159  0.0166  0.0739
19885TIP3    H181146   4.357   3.362  16.908 -0.6983  0.0939  1.1191
19885TIP3    H281147   4.310   3.225  16.952  0.8871 -0.6017  0.7062
19886TIP3   OH281148   0.877   0.649   4.653 -0.4245  0.2176  0.2424
19886TIP3    H181149   0.889   0.713   4.722  0.6557 -1.9543  2.2234
19886TIP3    H281150   0.793   0.607   4.673  0.1254 -0.7603  0.5894
19887TIP3   OH281151   3.013   2.014  15.104  0.0919  0.5755  0.3529
19887TIP3    H181152   2.989   2.087  15.161 -1.6983 -0.4705  0.9908
19887TIP3    H281153   3.071   1.960  15.158 -0.5133  0.2840  0.7100
19888TIP3   OH281154   1.094   5.503   3.944 -0.3403  0.6607 -0.1191
19888TIP3    H181155   1.082   5.536   3.855  0.4568 -1.0448 -0.9268
19888TIP3    H281156   1.183   5.531   3.968  0.2454 -0.5926 -0.7125
19889TIP3   OH281157   2.399   0.512   1.212 -0.4031  0.1131  0.0992
19889TIP3    H181158   2.336   0.559   1.266 -0.8811 -0.4020  0.0021
19889TIP3    H281159   2.463   0.578   1.187  1.4449 -0.1249  3.5555
19890TIP3   OH281160   1.882   4.102  11.477 -0.1733  0.0542 -0.1191
19890TIP3    H181161   1.930   4.136  11.552 -0.6854 -0.4746  0.4682
19890TIP3    H281162   1.791   4.129  11.492 -0.7125 -1.9711  0.6709
19891TIP3   OH281163   3.772   4.263   0.369 -0.0686  0.2908  0.1580
19891TIP3    H181164   3.755   4.340   0.315 -1.0575 -0.8892 -1.2828
19891TIP3    H281165   3.714   4.274   0.444 -1.0897  0.3903 -0.6243
19892TIP3   OH281166   4.748   1.158   0.847 -0.6185  0.0131  0.4486
19892TIP3    H181167   4.658   1.152   0.816  0.2044 -2.1465 -1.8740
19892TIP3    H281168   4.800   1.112   0.780  2.5358  3.0589  0.5372
19893TIP3   OH281169   4.643   4.167  12.176  0.5461 -0.8221  0.4711
19893TIP3    H181170   4.677   4.250  12.144 -0.1558 -0.0334  1.7218
19893TIP3    H281171   4.594   4.131  12.102 -0.2909  0.5293  0.3489
19894TIP3   OH281172   1.767   6.258  12.828  0.6397 -0.0011  0.2766
19894TIP3    H181173   1.753   6.163  12.833  2.0293 -0.2031  0.7974
19894TIP3    H281174   1.771   6.286  12.919 -1.1099  0.8096  0.1466
19895TIP3   OH281175   6.090   4.586  12.626 -0.2145 -0.1120  0.2932
19895TIP3    H181176   6.059   4.548  12.544  2.2470 -0.4540 -0.5603
19895TIP3    H281177   6.101   4.512  12.686  0.1466 -0.1627  0.1673
19896TIP3   OH281178   1.626   4.770  16.767  0.0881 -0.1774  0.1074
19896TIP3    H181179   1.642   4.785  16.860 -0.6706  1.7907 -0.0339
19896TIP3    H281180   1.713   4.766  16.728  0.3968 -0.0921  0.7668
19897TIP3   OH281181   0.382   2.168   3.492 -1.0551  0.2468  0.2265
19897TIP3    H181182   0.413   2.077   3.489  0.5106  0.7274  0.7499
19897TIP3    H281183   0.401   2.202   3.405 -1.8840  0.0014 -0.0520
19898TIP3   OH281184   4.652   0.385   3.611 -0.2664 -0.1693 -0.2639
19898TIP3    H181185   4.709   0.310   3.596  1.6465  1.2899 -0.6692
19898TIP3    H281186   4.599   0.392   3.532 -2.6557 -2.8079  0.9551
19899TIP3   OH281187   3.431   4.420  11.586 -0.1692  0.1204  0.3226
19899TIP3    H181188   3.523   4.427  11.562 -0.5560  2.1484 -0.7443
19899TIP3    H281189   3.432   4.407  11.681  1.2595 -3.8386 -0.0497
19900TIP3   OH281190   3.112   1.129   2.121  0.0638  0.0434 -0.0004
19900TIP3    H181191   3.198   1.151   2.155  0.7669  0.3007 -1.8293
19900TIP3    H281192   3.064   1.212   2.120 -0.0895 -0.0334  0.6713
19901TIP3   OH281193   0.354   5.851  15.036  0.1574 -0.6031  0.2823
19901TIP3    H181194   0.289   5.879  15.101  1.6200  1.6036  0.9220
19901TIP3    H281195   0.317   5.876  14.952 -1.2607 -2.4606  0.3051
19902TIP3   OH281196   6.523   3.320   2.354  0.0681  0.3807  0.6494
19902TIP3    H181197   6.494   3.350   2.441  1.2110 -0.0360  1.1895
19902TIP3    H281198   6.604   3.368   2.338 -1.6458  2.8187 -1.5994
19903TIP3   OH281199   1.087   1.997  13.408  0.0752  0.4055 -0.0281
19903TIP3    H181200   0.997   2.019  13.433 -0.7474 -2.8729  0.3192
19903TIP3    H281201   1.087   2.004  13.313 -0.9312 -0.6525 -0.1355
19904TIP3   OH281202   2.415   5.983  12.838  0.1108  0.2847 -0.2976
19904TIP3    H181203   2.364   5.933  12.775  0.9689 -4.1296  2.0766
19904TIP3    H281204   2.501   5.994  12.796 -0.4883  0.9452 -1.3716
19905TIP3   OH281205   3.993   5.640  12.191  0.3209  0.4825  0.0761
19905TIP3    H181206   3.949   5.651  12.107  0.2986 -1.9215 -0.2794
19905TIP3    H281207   3.930   5.594  12.246  2.0371 -2.5665 -0.2828
19906TIP3   OH281208   1.690   5.007  13.055 -0.5209 -0.0550  0.4156
19906TIP3    H181209   1.629   5.068  13.096 -0.4058 -0.0528  0.5805
19906TIP3    H281210   1.672   5.015  12.961  0.1053  0.8711  0.3688
19907TIP3   OH281211   1.246   1.625   4.225  0.1325  0.3801 -0.1256
19907TIP3    H181212   1.270   1.578   4.146 -0.2746 -1.2510  0.6722
19907TIP3    H281213   1.324   1.675   4.248  1.2538 -1.3162 -0.0454
19908TIP3   OH281214   3.482   2.975  15.708 -0.0997 -0.5051 -0.3944
19908TIP3    H181215   3.563   2.925  15.700  0.7261  0.8581 -1.1002
19908TIP3    H281216   3.480   3.029  15.629 -1.6367 -0.4096 -0.3148
19909TIP3   OH281217   6.198   5.714   4.960 -0.0622  0.2398 -0.1914
19909TIP3    H181218   6.173   5.633   5.005 -0.1417 -0.8288 -2.1010
19909TIP3    H281219   6.290   5.727   4.984  0.5425 -1.5111 -1.4127
19910TIP3   OH281220   1.070   4.784  14.250  0.3706 -0.0948 -0.0286
19910TIP3    H181221   1.031   4.872  14.252  1.1561  0.2907  2.6514
19910TIP3    H281222   1.163   4.801  14.234  0.3750 -0.5184 -0.4489
19911TIP3   OH281223   1.168   0.689   6.591  0.2059  0.1821  0.2006
19911TIP3    H181224   1.093   0.739   6.560 -1.1518 -1.8881 -0.0806
19911TIP3    H281225   1.192   0.633   6.517  0.8293 -0.4866  0.8867
19912TIP3   OH281226   1.917   2.331   2.857  0.4769 -0.1015 -0.4318
19912TIP3    H181227   1.884   2.407   2.810  0.6947  0.8608  0.9097
19912TIP3    H281228   2.000   2.361   2.896  0.8129 -1.1742 -0.2763
19913TIP3   OH281229   2.200   5.509   3.424  0.4818 -0.3918 -0.4671
19913TIP3    H181230   2.123   5.557   3.395  0.1383 -0.8821 -0.3820
19913TIP3    H281231   2.206   5.433   3.366  0.3237 -0.8837  0.1397
19914TIP3   OH281232   0.035   4.377   3.110 -0.4921  0.5180  0.2762
19914TIP3    H181233   0.088   4.312   3.064 -2.1733  1.3721 -3.1664
19914TIP3    H281234   0.096   4.446   3.134  0.4202  0.1865 -1.0343
19915TIP3   OH281235   5.058   3.192   3.655 -0.2926 -0.2005 -0.2632
19915TIP3    H181236   5.087   3.214   3.744 -0.3375 -0.9258 -0.0626
19915TIP3    H281237   5.110   3.250   3.598 -1.3020  1.3145  0.2928
19916TIP3   OH281238   3.172   3.274   3.196  0.2321  0.0891 -0.0297
19916TIP3    H181239   3.231   3.221   3.142 -0.9822 -0.5087 -0.8178
19916TIP3    H281240   3.215   3.359   3.201  0.8535 -0.1336 -1.1215
19917TIP3   OH281241   5.098   4.735   6.336  0.3481  0.0993  0.2523
19917TIP3    H181242   5.062   4.773   6.416  0.4646  0.1063  0.3022
19917TIP3    H281243   5.039   4.764   6.266 -0.3186 -0.7087  0.4595
19918TIP3   OH281244   3.242   4.959   5.101 -0.1616  1.0512  0.3757
19918TIP3    H181245   3.168   4.970   5.161  0.2497 -1.2656  1.4180
19918TIP3    H281246   3.205   4.971   5.014 -1.5855  0.7601  0.9164
19919TIP3   OH281247   5.203   6.339  11.543 -0.1323 -0.5285 -0.0520
19919TIP3    H181248   5.132   6.397  11.515 -0.7651  0.1815  2.7329
19919TIP3    H281249   5.258   6.329  11.465 -0.9704  2.3770 -1.1479
19920TIP3   OH281250   1.874   2.565  12.478  0.4749  0.2342 -0.0093
19920TIP3    H181251   1.928   2.538  12.404 -0.5537  0.0016 -0.6948
19920TIP3    H281252   1.841   2.483  12.516  0.7832  0.3610  0.5490
19921TIP3   OH281253   2.190   2.123   4.705  0.1927 -1.1419  0.1345
19921TIP3    H181254   2.126   2.076   4.758 -0.3428  0.0120  0.5475
19921TIP3    H281255   2.273   2.110   4.751 -0.3730  0.4152  1.6971
19922TIP3   OH281256   0.487   6.007  17.177  0.0194 -0.0858  0.4127
19922TIP3    H181257   0.576   5.977  17.159  0.8076  2.5404 -0.5087
19922TIP3    H281258   0.490   6.034  17.269  0.0303 -0.3645  0.4971
19923TIP3   OH281259   4.111   2.703   1.000  0.1992  0.4325 -1.1837
19923TIP3    H181260   4.041   2.745   1.050  0.3062  0.8891 -1.4057
19923TIP3    H281261   4.167   2.776   0.973  1.1189  0.0128 -0.4641
19924TIP3   OH281262   4.679   4.997  13.671  0.0401  0.4402 -0.0440
19924TIP3    H181263   4.618   5.039  13.733 -1.7262 -1.2131 -0.5634
19924TIP3    H281264   4.717   5.070  13.622 -2.1611  1.5347 -0.2451
19925TIP3   OH281265   3.086   3.997  15.170  0.3529 -0.5971  0.3417
19925TIP3    H181266   3.181   4.000  15.159  0.1257  2.2666 -2.3565
19925TIP3    H281267   3.054   3.955  15.090 -0.6695  2.8860 -1.3177
19926TIP3   OH281268   4.934   5.485   4.051 -0.5937 -0.4892 -0.3110
19926TIP3    H181269   4.994   5.559   4.064 -0.7710 -0.2141 -1.0186
19926TIP3    H281270   4.859   5.505   4.107  1.0298 -2.1220  2.6893
19927TIP3   OH281271   0.554   4.462  15.523  0.0807 -0.8007 -0.1151
19927TIP3    H181272   0.555   4.533  15.459 -0.4578  0.1904  0.9373
19927TIP3    H281273   0.539   4.506  15.607 -2.5588 -2.3368  0.3128
19928TIP3   OH281274   1.183   2.987  15.904 -0.1975 -0.4799  0.2582
19928TIP3    H181275   1.097   3.029  15.908 -1.2017 -2.3704 -0.0873
19928TIP3    H281276   1.168   2.907  15.853  1.8769 -0.6368 -0.1946
19929TIP3   OH281277   6.415   3.762   0.138 -0.7909  0.1185 -0.0894
19929TIP3    H181278   6.369   3.709   0.072 -0.3762  0.1333 -0.3931
19929TIP3    H281279   6.376   3.850   0.129 -0.4079  0.2349 -0.6410
19930TIP3   OH281280   1.747   1.009  14.461 -0.1522  0.1865  0.3221
19930TIP3    H181281   1.710   0.965  14.538 -0.1773  0.8694  0.7071
19930TIP3    H281282   1.801   1.079  14.497 -0.2722  0.5997 -0.2854
19931TIP3   OH281283   6.487   5.275   3.009 -0.0974 -0.1499 -0.2142
19931TIP3    H181284   6.466   5.184   2.989  0.3846 -0.6102  1.2461
19931TIP3    H281285   6.402   5.315   3.026 -0.2357 -0.5784  0.1155
19932TIP3   OH281286   0.273   1.263  10.582 -0.6876  0.5692 -0.1507
19932TIP3    H181287   0.229   1.177  10.576  0.7739 -0.1856 -0.5883
19932TIP3    H281288   0.297   1.283  10.491 -1.2455  1.5985 -0.0901
19933TIP3   OH281289   3.071   4.351  12.176  0.2582  0.0913 -0.2702
19933TIP3    H181290   3.030   4.405  12.242  0.7781 -0.2540  0.3451
19933TIP3    H281291   3.059   4.399  12.094  0.9285  1.2620  0.2959
19934TIP3   OH281292   6.518   6.458  14.885 -0.1877 -0.0560  0.5801
19934TIP3    H181293   6.529   6.439  14.978 -1.6100 -1.6802  0.4775
19934TIP3    H281294   6.451   6.396  14.856 -0.1685  0.7792 -1.4148
19935TIP3   OH281295   0.769   2.610   1.382  0.7376  0.8210  0.0168
19935TIP3    H181296   0.680   2.645   1.383  1.5162  3.0989 -1.6362
19935TIP3    H281297   0.768   2.542   1.314  0.1103  0.2967  0.5399
19936TIP3   OH281298   1.404   0.929   1.571 -0.1163  1.2042  0.6851
19936TIP3    H181299   1.435   0.952   1.483 -0.2328 -0.2815  0.2326
19936TIP3    H281300   1.332   0.869   1.556  0.3511  0.3247  1.8006
19937TIP3   OH281301   3.476   4.783  11.362 -0.1961 -0.0258 -0.7313
19937TIP3    H181302   3.428   4.702  11.381  0.5486 -0.6046 -1.2304
19937TIP3    H281303   3.554   4.754  11.315 -0.5080  1.0759 -1.9997
19938TIP3   OH281304   0.558   4.320  16.759  0.3872 -0.0223  0.6567
19938TIP3    H181305   0.521   4.312  16.671  2.0923  0.4807 -0.1455
19938TIP3    H281306   0.582   4.230  16.783 -1.0657 -0.3170  1.0864
19939TIP3   OH281307   1.543   1.117  11.178 -0.1879 -0.1947 -0.3687
19939TIP3    H181308   1.623   1.069  11.155 -0.4855 -0.7483 -0.2594
19939TIP3    H281309   1.472   1.059  11.154 -0.5206 -0.7214  1.7229
19940TIP3   OH281310   4.664   6.778  10.581 -0.1600 -0.3175  0.1509
19940TIP3    H181311   4.683   6.688  10.605 -1.7266 -1.1416 -1.4590
19940TIP3    H281312   4.719   6.796  10.505 -0.2409 -0.1098  0.1397
19941TIP3   OH281313   6.640   0.397   1.446  0.6402  0.5520 -0.3939
19941TIP3    H181314   6.670   0.306   1.439 -0.0906  0.1717  1.1689
19941TIP3    H281315   6.545   0.391   1.449  0.5348  1.4623 -1.2188
19942TIP3   OH281316   0.615   1.044   3.591 -0.1793 -0.0583  0.0504
19942TIP3    H181317   0.613   1.070   3.683  0.4253  0.3536 -0.0469
19942TIP3    H281318   0.704   1.063   3.563 -0.8484  1.6098 -1.1282
19943TIP3   OH281319   0.083   1.989  15.993 -0.4613  0.2443 -0.6945
19943TIP3    H181320   0.131   2.013  16.072 -0.5766  1.1899 -0.8995
19943TIP3    H281321   0.062   1.896  16.004 -0.2983  0.3186  0.2851
19944TIP3   OH281322   5.795   6.009   0.868 -1.1221 -0.2111  0.8436
19944TIP3    H181323   5.832   6.046   0.948  3.2202 -0.0347 -0.9678
19944TIP3    H281324   5.809   6.076   0.802 -4.0651 -0.5776 -0.2871
19945TIP3   OH281325   1.247   0.467  11.850  0.4843  0.2181  0.5257
19945TIP3    H181326   1.197   0.385  11.857  0.9378 -0.2815 -1.3935
19945TIP3    H281327   1.338   0.440  11.857  0.6562  0.4840 -0.5547
19946TIP3   OH281328   3.218   3.412  15.948  0.6387  0.7807 -0.1557
19946TIP3    H181329   3.297   3.404  16.001 -0.3958  0.2059  1.3531
19946TIP3    H281330   3.249   3.398  15.858  2.2925  0.9237  0.3457
19947TIP3   OH281331   2.827   1.435   6.148  0.3487  0.1224 -0.0609
19947TIP3    H181332   2.836   1.358   6.205 -1.8563 -0.0574  0.1090
19947TIP3    H281333   2.829   1.509   6.208 -0.9462 -0.0123  0.1687
19948TIP3   OH281334   1.094   4.993   1.401 -0.1248  0.2159  0.3805
19948TIP3    H181335   1.138   4.965   1.321 -0.1744 -1.5166  0.9262
19948TIP3    H281336   1.102   5.088   1.400  0.8703  0.1551 -1.1049
19949TIP3   OH281337   5.140   1.977  17.053 -0.0925 -0.4516  0.4590
19949TIP3    H181338   5.048   1.974  17.026 -0.4219 -2.1368  1.6114
19949TIP3    H281339   5.188   1.989  16.971 -1.2668 -0.9944 -0.3512
19950TIP3   OH281340   1.725   2.636   3.440 -0.2323  0.0752 -0.1095
19950TIP3    H181341   1.709   2.716   3.390 -1.2107  0.2995  0.5414
19950TIP3    H281342   1.679   2.649   3.523  1.3352 -0.3230  0.8464
19951TIP3   OH281343   4.770   1.799  15.579  0.1097  0.6289  0.0899
19951TIP3    H181344   4.689   1.755  15.607 -0.5381  1.2407 -0.7931
19951TIP3    H281345   4.771   1.881  15.629  0.9279  0.0013  1.1571
19952TIP3   OH281346   2.845   5.659   0.242 -0.3276 -0.3055 -0.2994
19952TIP3    H181347   2.792   5.648   0.321 -0.2415  1.4553  0.0538
19952TIP3    H281348   2.809   5.596   0.180 -1.2455 -0.8308  0.7275
19953TIP3   OH281349   5.227   3.274  15.103 -0.5081  0.1539  0.2617
19953TIP3    H181350   5.276   3.259  15.183 -1.4067 -2.3059  0.4140
19953TIP3    H281351   5.143   3.229  15.117 -0.1978 -1.4919 -2.5070
19954TIP3   OH281352   2.426   3.684  14.942 -0.5179  0.0615 -0.5157
19954TIP3    H181353   2.366   3.664  15.014  0.2616  0.6831  0.3502
19954TIP3    H281354   2.452   3.775  14.958 -0.2063  0.1537 -1.4992
19955TIP3   OH281355   1.640   1.445  12.796 -0.4880  0.0841  0.2156
19955TIP3    H181356   1.726   1.413  12.825 -0.6440 -0.2362  0.3202
19955TIP3    H281357   1.659   1.531  12.758  0.0084 -0.3393 -0.5229
19956TIP3   OH281358   0.582   2.559  12.007 -0.0011  0.0600  0.1130
19956TIP3    H181359   0.633   2.550  11.926  0.9300 -2.6813  0.8904
19956TIP3    H281360   0.616   2.639  12.047  0.0595  1.0568 -1.8040
19957TIP3   OH281361   3.380   0.519   0.849  0.0634  0.4757 -0.2726
19957TIP3    H181362   3.362   0.613   0.849 -0.7101  0.3382  0.0480
19957TIP3    H281363   3.305   0.481   0.895  1.1738 -0.1463  1.1214
19958TIP3   OH281364   5.427   6.193  16.761  0.6914 -0.1138 -0.4228
19958TIP3    H181365   5.332   6.195  16.770  0.6591 -0.4919 -0.6683
19958TIP3    H281366   5.459   6.174  16.849  0.5192 -0.4677 -0.4357
19959TIP3   OH281367   0.365   5.394   1.131 -0.1365 -0.9577  0.1916
19959TIP3    H181368   0.269   5.396   1.120 -0.3482  0.2212  1.8851
19959TIP3    H281369   0.398   5.407   1.042 -1.5750 -0.4204 -0.3126
19960TIP3   OH281370   3.925   2.251   2.748  0.0851 -0.2714 -0.2088
19960TIP3    H181371   4.001   2.308   2.758  0.1082 -0.1974 -0.7581
19960TIP3    H281372   3.858   2.307   2.708  1.7334 -1.7409 -6.0334
19961TIP3   OH281373   6.771   2.495  15.673 -0.1737 -0.0112 -0.4231
19961TIP3    H181374   6.694   2.451  15.637  0.4301 -1.0573 -0.4858
19961TIP3    H281375   6.787   2.451  15.757  0.9333 -0.4916 -0.8704
19962TIP3   OH281376   5.535   3.106  16.253 -0.1133 -0.2302 -0.3818
19962TIP3    H181377   5.514   3.064  16.169  0.5513 -1.1140 -0.1229
19962TIP3    H281378   5.630   3.105  16.256 -0.1250  0.2965  0.1456
19963TIP3   OH281379   0.401   4.774   0.456  0.2274 -0.1654  0.4844
19963TIP3    H181380   0.389   4.839   0.387  0.4137  0.2704  0.8629
19963TIP3    H281381   0.487   4.735   0.437 -0.4080 -1.1673 -0.4526
19964TIP3   OH281382   3.922   0.829   2.801  0.0281  0.4288 -0.0625
19964TIP3    H181383   3.873   0.749   2.785  1.9548 -0.9736  0.6401
19964TIP3    H281384   3.914   0.844   2.895  0.9801  0.1438  0.0715
19965TIP3   OH281385   1.522   2.602  13.970  0.2421 -0.6669 -0.1323
19965TIP3    H181386   1.429   2.605  13.991  0.3835  0.1288  0.4240
19965TIP3    H281387   1.530   2.651  13.888  0.1263 -1.0596 -0.3816
19966TIP3   OH281388   2.162   4.107  16.615  0.0222 -0.2286 -0.3610
19966TIP3    H181389   2.068   4.093  16.628  0.0877 -0.1566  0.2303
19966TIP3    H281390   2.168   4.163  16.538 -0.4255 -0.1982 -0.3760
19967TIP3   OH281391   2.664   3.540   2.393 -0.0752  0.3648  0.6492
19967TIP3    H181392   2.709   3.457   2.381 -0.1083  0.4251  0.0967
19967TIP3    H281393   2.677   3.561   2.486  0.9862  0.3514  0.5158
19968TIP3   OH281394   2.606   0.564  14.568  0.1367 -0.9610  0.2467
19968TIP3    H181395   2.539   0.563  14.500  0.5593 -3.4227 -0.2087
19968TIP3    H281396   2.659   0.642  14.547 -2.5945  1.1856  0.7676
19969TIP3   OH281397   6.167   3.609  13.685  0.1413 -0.8558 -0.0564
19969TIP3    H181398   6.143   3.535  13.629 -0.8878 -1.2672  0.8997
19969TIP3    H281399   6.249   3.642  13.648  0.1404 -1.9107 -1.0296
19970TIP3   OH281400   5.044   2.100   6.377  0.2863  0.0228 -0.3726
19970TIP3    H181401   5.063   2.191   6.403  0.5645  0.1451 -0.9808
19970TIP3    H281402   5.109   2.082   6.309 -0.1036 -0.4632 -0.6113
19971TIP3   OH281403   2.362   0.172  14.412 -0.5130 -0.3874  0.2247
19971TIP3    H181404   2.394   0.180  14.322 -0.1072  0.4008  0.4409
19971TIP3    H281405   2.358   0.077  14.426  0.9233 -0.5184 -0.0883
19972TIP3   OH281406   4.394   0.568   4.414  0.2980 -0.5292 -0.7739
19972TIP3    H181407   4.352   0.648   4.445  1.7752 -0.3942  1.0535
19972TIP3    H281408   4.324   0.503   4.414 -0.4608  0.2673 -0.2199
19973TIP3   OH281409   6.451   5.459   3.469  0.2182  0.8175  0.1081
19973TIP3    H181410   6.507   5.416   3.404  0.4761  0.8769  0.2930
19973TIP3    H281411   6.510   5.485   3.539 -0.1185  0.4108  0.5472
19974TIP3   OH281412   5.101   4.043   1.242  0.1438 -1.1559 -0.0188
19974TIP3    H181413   5.131   4.097   1.169  2.1050 -0.6637  1.0855
19974TIP3    H281414   5.016   4.080   1.267  0.2873 -0.1972 -0.8937
19975TIP3   OH281415   3.607   5.665   2.791  0.2376 -0.2523  0.0647
19975TIP3    H181416   3.542   5.623   2.846  2.2077 -1.2841  1.7484
19975TIP3    H281417   3.586   5.636   2.702 -1.8629 -0.0895  0.4621
19976TIP3   OH281418   2.049   2.534  14.810  0.9641 -0.7967 -0.8023
19976TIP3    H181419   2.120   2.470  14.817  2.1065  0.2360 -2.3003
19976TIP3    H281420   2.091   2.617  14.833 -0.1640 -0.3746 -0.2230
19977TIP3   OH281421   1.933   6.021   0.267  0.1049 -0.4173 -0.0490
19977TIP3    H181422   1.951   6.007   0.174 -2.6323 -1.7767 -0.4438
19977TIP3    H281423   1.926   5.934   0.304  0.4631  0.1092  1.3409
19978TIP3   OH281424   6.615   1.086   2.028 -0.3177  0.3157  0.1406
19978TIP3    H181425   6.709   1.085   2.044 -0.1788 -0.5209 -0.6477
19978TIP3    H281426   6.595   1.179   2.014  0.1032  0.6763  1.7990
19979TIP3   OH281427   6.664   2.319  13.453 -0.0607  0.4166 -0.0674
19979TIP3    H181428   6.699   2.384  13.515  0.9705 -0.8987  0.7813
19979TIP3    H281429   6.739   2.296  13.398 -0.1792 -0.7204  0.2399
19980TIP3   OH281430   4.384   1.829  16.175  0.0740  0.6064  0.3185
19980TIP3    H181431   4.406   1.776  16.099  1.0511  0.4440  0.6937
19980TIP3    H281432   4.427   1.784  16.248  0.4529  1.6027  0.7243
19981TIP3   OH281433   4.010   3.480  13.783  0.0540 -0.4771 -0.1140
19981TIP3    H181434   3.991   3.514  13.696  0.4280  1.5877  0.5453
19981TIP3    H281435   4.003   3.385  13.774 -2.5046 -0.2428 -1.7638
19982TIP3   OH281436   3.811   5.875   1.883  0.5557  0.3904 -0.3252
19982TIP3    H181437   3.864   5.804   1.919 -0.5518  0.7542  2.2214
19982TIP3    H281438   3.855   5.898   1.801  1.7543 -2.2420 -0.5178
19983TIP3   OH281439   2.842   4.266  10.810 -0.6734 -0.1186  0.5737
19983TIP3    H181440   2.881   4.315  10.882  0.8122  0.3338 -0.4948
19983TIP3    H281441   2.903   4.193  10.795  0.2112  0.9764 -1.5657
19984TIP3   OH281442   0.104   3.680  11.742  0.7455 -0.2528  0.0190
19984TIP3    H181443   0.132   3.598  11.701  0.8468 -1.0938  1.6920
19984TIP3    H281444   0.184   3.719  11.775  0.4235 -1.0337  1.8997
19985TIP3   OH281445   3.711   4.584  15.242  0.0870 -0.3378 -0.5269
19985TIP3    H181446   3.761   4.634  15.306 -0.9117 -0.2933  0.2440
19985TIP3    H281447   3.659   4.523  15.294 -2.0506  0.8486 -1.1181
19986TIP3   OH281448   3.448   5.426   5.578 -0.5629  0.2853 -0.0177
19986TIP3    H181449   3.465   5.472   5.660  0.2740  1.7712 -0.9689
19986TIP3    H281450   3.361   5.455   5.552 -0.6514  0.1547  0.1353
19987TIP3   OH281451   4.097   6.650  12.484 -0.3866  0.6274  0.6913
19987TIP3    H181452   4.092   6.576  12.423  2.9875 -0.8944  1.9899
19987TIP3    H281453   4.114   6.726  12.428  1.7182 -0.5840 -0.4476
19988TIP3   OH281454   5.795   0.378  17.058  0.2087 -0.1540 -0.3074
19988TIP3    H181455   5.823   0.428  17.134  0.1765  0.4113 -0.6645
19988TIP3    H281456   5.706   0.350  17.078  0.9217 -1.8752  0.7962
19989TIP3   OH281457   2.109   6.105   0.877 -0.5177 -0.1871  0.4668
19989TIP3    H181458   2.013   6.107   0.872 -0.5563  2.7468  0.5752
19989TIP3    H281459   2.132   6.015   0.853 -3.0867  0.0742 -4.3637
19990TIP3   OH281460   4.860   2.538  13.439  0.4395 -0.1140 -1.0062
19990TIP3    H181461   4.954   2.520  13.451  0.3435 -2.1764 -2.8030
19990TIP3    H281462   4.816   2.467  13.485 -0.2349  0.5151 -0.6713
19991TIP3   OH281463   2.091   6.074   1.250 -0.1291 -0.2970  0.4531
19991TIP3    H181464   2.052   6.140   1.193 -0.7890  0.3956  1.6860
19991TIP3    H281465   2.018   6.040   1.301  0.0678 -2.4612 -0.5765
19992TIP3   OH281466   2.861   3.367  11.284  0.2682 -0.1208 -0.2081
19992TIP3    H181467   2.827   3.454  11.260  0.7504 -0.1721 -1.1383
19992TIP3    H281468   2.860   3.318  11.202 -1.8413 -1.6677  0.6538
19993TIP3   OH281469   2.937   0.725   5.120  0.0767 -0.3401  0.3880
19993TIP3    H181470   3.013   0.772   5.154  1.3019 -1.3072 -0.8839
19993TIP3    H281471   2.900   0.784   5.054  0.4128 -0.3263  0.2075
19994TIP3   OH281472   4.584   4.601   0.644 -0.1447 -0.6229  0.5473
19994TIP3    H181473   4.522   4.674   0.637  0.5279 -0.0429  0.4751
19994TIP3    H281474   4.561   4.543   0.571  1.0353  0.8693 -1.0926
19995TIP3   OH281475   1.350   6.014  11.456 -0.3089  0.0614 -0.0140
19995TIP3    H181476   1.328   5.927  11.423  2.5976 -1.0343  0.6307
19995TIP3    H281477   1.445   6.016  11.459 -0.1906  3.6657 -0.8984
19996TIP3   OH281478   2.941   4.757   1.845 -0.4924  0.0377 -0.0503
19996TIP3    H181479   2.888   4.831   1.814  1.2264  1.1035 -0.5914
19996TIP3    H281480   2.978   4.719   1.765  0.2364 -0.1365  0.3612
19997TIP3   OH281481   2.153   5.279   3.249  0.3671 -0.3115 -0.4849
19997TIP3    H181482   2.082   5.229   3.209  0.6397 -1.0446 -0.0707
19997TIP3    H281483   2.213   5.213   3.282 -0.4049  0.1852  2.1613
19998TIP3   OH281484   6.185   5.385   6.485 -0.7871 -0.0428 -0.2804
19998TIP3    H181485   6.184   5.315   6.420  1.5280  1.0780 -1.6387
19998TIP3    H281486   6.229   5.346   6.561  1.4265  0.1309 -1.3928
19999TIP3   OH281487   5.522   6.142  14.780  0.2323 -0.4498  0.3521
19999TIP3    H181488   5.447   6.122  14.835 -1.6504  1.4779 -1.3389
19999TIP3    H281489   5.560   6.221  14.818 -0.3909  0.2354 -0.4002
20000TIP3   OH281490   5.402   0.250   1.003  0.1357  0.2205 -0.6449
20000TIP3    H181491   5.332   0.305   0.968 -0.6449  0.3696  1.0852
20000TIP3    H281492   5.365   0.163   1.006  0.1090  0.2531  0.0352
20001TIP3   OH281493   4.985   5.032  16.914 -0.5044 -0.3439  0.2539
20001TIP3    H181494   5.061   5.090  16.902 -1.2782  0.1805 -2.9200
20001TIP3    H281495   5.021   4.944  16.907 -0.0594 -0.1125 -0.5125
20002TIP3   OH281496   4.647   5.755  13.432 -0.0830  0.2475 -0.5282
20002TIP3    H181497   4.730   5.777  13.474 -0.2849 -2.1878  1.3377
20002TIP3    H281498   4.581   5.789  13.491 -0.3883 -0.8193 -0.2423
20003TIP3   OH281499   3.861   2.712  14.979 -0.3750 -0.2148 -0.6167
20003TIP3    H181500   3.829   2.634  15.023  1.3337  0.1909  1.5011
20003TIP3    H281501   3.885   2.682  14.891  1.4252 -2.4133  0.5355
20004TIP3   OH281502   5.189   3.938  15.371  0.3417 -0.0949  0.0110
20004TIP3    H181503   5.243   3.995  15.425  1.9839 -1.5735  0.0491
20004TIP3    H281504   5.122   3.904  15.430  0.2402  0.6657  0.3355
20005TIP3   OH281505   2.956   4.029   4.397  0.0144  0.0518 -0.1174
20005TIP3    H181506   2.988   3.962   4.457  0.8176  0.1704 -0.4023
20005TIP3    H281507   3.035   4.063   4.354 -0.5704 -0.2520 -1.4741
20006TIP3   OH281508   0.870   1.383  11.399  0.1103  0.0919 -0.0812
20006TIP3    H181509   0.961   1.388  11.428  0.0026  1.3638  0.0933
20006TIP3    H281510   0.860   1.455  11.336 -0.6398 -0.3516 -0.4918
20007TIP3   OH281511   0.960   0.840   3.694 -0.1331  0.1534 -0.3881
20007TIP3    H181512   0.924   0.911   3.642  0.9445  0.5244 -0.6538
20007TIP3    H281513   1.037   0.811   3.645 -0.8403 -1.5676 -0.5659
20008TIP3   OH281514   1.562   2.130   6.217 -0.2487  0.1393 -0.3279
20008TIP3    H181515   1.472   2.163   6.223 -0.2651 -0.0711  0.9692
20008TIP3    H281516   1.570   2.070   6.291  0.5012 -1.0067 -1.3067
20009TIP3   OH281517   0.169   1.454   2.739 -0.1241 -0.3299 -1.0165
20009TIP3    H181518   0.229   1.431   2.810  0.5836 -0.9292 -1.7847
20009TIP3    H281519   0.202   1.538   2.706 -1.5910  0.9416  0.5663
20010TIP3   OH281520   0.835   4.311   1.955  0.1068  0.0412 -0.0925
20010TIP3    H181521   0.805   4.401   1.970 -0.2710  0.0217 -0.7258
20010TIP3    H281522   0.809   4.291   1.866 -0.8587 -1.1192  0.4273
20011TIP3   OH281523   4.122   6.151   1.170 -0.4973 -0.7295 -0.1144
20011TIP3    H181524   4.058   6.081   1.172  0.0245 -1.2530 -0.8788
20011TIP3    H281525   4.082   6.219   1.116 -1.0274 -0.3984  0.6756
20012TIP3   OH281526   1.225   2.758   5.434 -0.1899 -0.6269  0.2166
20012TIP3    H181527   1.314   2.761   5.399  0.0453 -0.5977  0.7984
20012TIP3    H281528   1.230   2.693   5.505 -1.2969 -2.7988 -1.5615
20013TIP3   OH281529   3.671   5.362   0.449 -0.0824 -0.2610 -0.1951
20013TIP3    H181530   3.579   5.346   0.471 -0.0118 -0.7018 -0.2119
20013TIP3    H281531   3.669   5.439   0.391 -0.5636 -1.0731 -1.2781
20014TIP3   OH281532   3.353   5.539  13.245  0.3175  0.3319 -0.0876
20014TIP3    H181533   3.325   5.599  13.314  1.4225  0.2327  0.4795
20014TIP3    H281534   3.297   5.559  13.170  0.0478  1.4266  0.3923
20015TIP3   OH281535   4.743   3.893  11.298  0.0021  0.0803 -0.0292
20015TIP3    H181536   4.719   3.936  11.215 -0.8655  0.6489  0.5053
20015TIP3    H281537   4.819   3.942  11.328 -0.3121  0.5445  0.0215
20016TIP3   OH281538   6.340   2.401   3.788 -0.3812  0.1582 -0.3292
20016TIP3    H181539   6.371   2.318   3.753 -0.4749  0.1646 -0.4258
20016TIP3    H281540   6.420   2.447   3.814 -0.4106 -1.1580  2.4787
20017TIP3   OH281541   3.129   3.590   4.007 -0.2131  0.7352 -0.1358
20017TIP3    H181542   3.057   3.549   3.958  1.4604 -0.4179 -1.7607
20017TIP3    H281543   3.146   3.531   4.080 -0.4126  0.6070 -0.1929
20018TIP3   OH281544   5.715   3.018   2.444 -0.6918 -0.2677 -0.0218
20018TIP3    H181545   5.680   3.057   2.523  0.3167  0.9602 -0.1508
20018TIP3    H281546   5.786   2.961   2.474 -0.2686  0.2463 -0.0355
20019TIP3   OH281547   1.804   3.076   0.030  0.6247 -0.2069 -0.0626
20019TIP3    H181548   1.721   3.104  -0.007  1.0815  1.0743 -0.1838
20019TIP3    H281549   1.802   2.981   0.024 -2.4962 -0.5824  3.5363
20020TIP3   OH281550   5.396   5.940   3.450 -0.6256 -1.0545 -0.4948
20020TIP3    H181551   5.303   5.936   3.431 -1.1399  1.9613  0.7505
20020TIP3    H281552   5.402   5.943   3.546  0.4562  1.3547 -0.5527
20021TIP3   OH281553   5.859   2.305  11.710 -0.4091 -0.3761  0.1601
20021TIP3    H181554   5.790   2.260  11.661 -1.2880  1.6742 -0.5784
20021TIP3    H281555   5.823   2.392  11.727  0.2977 -0.6440  3.5738
20022TIP3   OH281556   2.746   2.122   1.379 -0.1888 -0.2743 -0.4242
20022TIP3    H181557   2.693   2.186   1.426  0.9861  1.1296 -0.9420
20022TIP3    H281558   2.692   2.099   1.302 -0.6595  0.0062 -0.1837
20023TIP3   OH281559   5.079   3.073  11.123 -0.2474  0.7565 -0.0739
20023TIP3    H181560   5.013   3.031  11.068  0.1711 -0.3698  0.2465
20023TIP3    H281561   5.075   3.165  11.099 -1.5305  0.6179 -0.4642
20024TIP3   OH281562   6.500   2.939   1.636  0.1508  0.2341  0.1761
20024TIP3    H181563   6.543   2.956   1.720 -2.4503  0.7298  1.5176
20024TIP3    H281564   6.431   3.005   1.631 -0.4259 -0.4527 -1.8857
20025TIP3   OH281565   2.409   0.819  16.373  0.2902  0.3303  0.0336
20025TIP3    H181566   2.370   0.792  16.456 -0.8914  3.1865  0.5141
20025TIP3    H281567   2.478   0.880  16.398  0.2027  0.9036 -1.0697
20026TIP3   OH281568   5.833   0.628   5.768 -0.6871 -0.1942  0.0959
20026TIP3    H181569   5.774   0.700   5.744 -0.2793  0.5594  1.2764
20026TIP3    H281570   5.900   0.669   5.822 -0.3960 -1.4563  0.7261
20027TIP3   OH281571   1.992   2.053   2.382 -0.4488 -0.4436  0.2956
20027TIP3    H181572   1.965   2.140   2.353 -0.1627  0.7071  3.0996
20027TIP3    H281573   1.930   1.993   2.340 -3.7236  1.5547  1.8799
20028TIP3   OH281574   3.717   1.699   0.257  0.2204 -0.5156 -0.2439
20028TIP3    H181575   3.781   1.756   0.214  1.1348  2.4066  4.2170
20028TIP3    H281576   3.770   1.643   0.314 -1.0254 -1.7576 -0.2571
20029TIP3   OH281577   2.244   4.060   1.437 -0.5548  0.0153  0.4557
20029TIP3    H181578   2.166   4.008   1.452 -1.0934  1.0426  1.3740
20029TIP3    H281579   2.259   4.106   1.520  0.9577 -0.0652  0.2628
20030TIP3   OH281580   2.934   3.263   1.840 -0.2262 -0.1298  0.0440
20030TIP3    H181581   2.913   3.322   1.913  1.1774 -1.2551  1.4288
20030TIP3    H281582   2.978   3.319   1.776 -2.6033  1.1502 -0.6061
20031TIP3   OH281583   6.075   2.152   4.614  0.0376  0.2777  0.4292
20031TIP3    H181584   6.063   2.161   4.708 -0.6758 -1.0491  0.4906
20031TIP3    H281585   5.992   2.115   4.583  0.7541 -0.6037 -0.5019
20032TIP3   OH281586   4.417   5.075  16.205  0.4165 -0.3877  0.0664
20032TIP3    H181587   4.470   5.006  16.245 -0.6816  0.1093  2.5360
20032TIP3    H281588   4.377   5.033  16.128  1.7110 -1.7381  0.0913
20033TIP3   OH281589   3.822   0.674  15.427 -0.0155  0.2309  0.1261
20033TIP3    H181590   3.857   0.763  15.417 -0.2386  0.1487 -1.7392
20033TIP3    H281591   3.896   0.622  15.459 -0.3442  1.3772  3.1057
20034TIP3   OH281592   4.849   5.260   3.266  0.4392 -0.3032  0.2336
20034TIP3    H181593   4.912   5.250   3.337  0.4175  0.1534  0.3163
20034TIP3    H281594   4.885   5.330   3.211 -1.6994  2.5652  2.1753
20035TIP3   OH281595   3.852   2.903   2.262 -0.1920  0.4681 -0.2496
20035TIP3    H181596   3.905   2.881   2.339  1.7604  0.8272 -1.4021
20035TIP3    H281597   3.762   2.905   2.294  0.3501 -1.2816  1.5982
20036TIP3   OH281598   5.000   2.139  15.428 -0.1706 -0.3865 -0.0722
20036TIP3    H181599   5.024   2.047  15.420  1.3970  0.0322 -0.7418
20036TIP3    H281600   4.926   2.150  15.369  0.1717 -1.0430 -0.6387
20037TIP3   OH281601   4.318   6.772   3.774  0.0963  0.0924 -0.4392
20037TIP3    H181602   4.335   6.705   3.840  1.3115 -0.1676 -0.9838
20037TIP3    H281603   4.229   6.803   3.793 -1.0454 -2.6031 -0.9985
20038TIP3   OH281604   6.664   2.511  13.651 -1.0561 -0.4730  0.9982
20038TIP3    H181605   6.620   2.596  13.661 -1.1261 -0.3178 -0.4622
20038TIP3    H281606   6.745   2.520  13.702  0.2471  1.4688 -1.2148
20039TIP3   OH281607   1.698   6.281   3.207 -0.3022 -0.7485 -0.3183
20039TIP3    H181608   1.610   6.301   3.242 -0.5714 -0.4654 -1.1367
20039TIP3    H281609   1.705   6.186   3.213 -0.3238 -0.7011  0.5468
20040TIP3   OH281610   3.603   5.428  16.121  0.1943  0.2349 -0.3457
20040TIP3    H181611   3.565   5.405  16.206 -2.8444 -0.0536 -1.6566
20040TIP3    H281612   3.656   5.505  16.138 -2.2509  1.6438  1.4858
20041TIP3   OH281613   2.870   6.630  12.906  0.2435 -0.0925  0.2750
20041TIP3    H181614   2.848   6.620  12.999  0.7085  0.7369  0.4765
20041TIP3    H281615   2.797   6.680  12.870  1.5082  2.3065  0.8610
20042TIP3   OH281616   2.055   5.370  14.992 -0.3774 -0.3930 -0.0404
20042TIP3    H181617   2.128   5.340  14.936 -0.3763 -0.7813  0.1640
20042TIP3    H281618   2.060   5.465  14.988 -0.1324 -0.4148 -0.3882
20043TIP3   OH281619   0.218   3.830   5.535  0.3862 -0.3707 -0.3256
20043TIP3    H181620   0.238   3.737   5.549  2.1182  0.0831  0.5769
20043TIP3    H281621   0.226   3.869   5.622 -0.5852  0.6025 -0.6525
20044TIP3   OH281622   5.901   0.546  13.970  0.2632 -0.3390 -0.1890
20044TIP3    H181623   5.831   0.485  13.946 -0.7858  0.2414  1.2550
20044TIP3    H281624   5.964   0.491  14.018  0.8106 -0.8536 -1.4566
20045TIP3   OH281625   0.199   2.830  11.775 -0.4687  0.1274  0.2962
20045TIP3    H181626   0.183   2.737  11.759  0.4611  0.1624 -0.9411
20045TIP3    H281627   0.170   2.874  11.695 -0.4290  0.8548  0.6702
20046TIP3   OH281628   2.934   2.656   3.725 -0.0933 -0.2068 -0.1800
20046TIP3    H181629   2.996   2.648   3.653 -1.4138 -0.2986 -1.3441
20046TIP3    H281630   2.868   2.589   3.707 -0.5578 -0.0902  1.0069
20047TIP3   OH281631   4.253   1.785   0.785  0.5637  0.1921  0.0463
20047TIP3    H181632   4.348   1.797   0.776  0.7856 -0.9206  0.6500
20047TIP3    H281633   4.231   1.829   0.867  0.7550 -0.4383  0.4459
20048TIP3   OH281634   1.943   4.153  14.507 -0.0348  0.2880  0.0910
20048TIP3    H181635   1.866   4.153  14.450  0.8932  1.2485 -1.2298
20048TIP3    H281636   1.981   4.066  14.496 -0.9269 -0.1965  0.7620
20049TIP3   OH281637   0.971   5.696   0.401  0.4144  0.2674 -0.2950
20049TIP3    H181638   0.971   5.754   0.325 -2.0693  2.2541  1.0864
20049TIP3    H281639   0.914   5.623   0.376  1.6418 -0.4298 -1.1798
20050TIP3   OH281640   0.188   4.961   1.367 -0.1901  0.4479 -0.1582
20050TIP3    H181641   0.265   5.015   1.351 -0.7673  1.7474  1.1761
20050TIP3    H281642   0.150   4.948   1.280 -0.1725  2.4633 -0.5338
20051TIP3   OH281643   0.088   2.113  15.269 -0.2783  0.2127 -0.0482
20051TIP3    H181644   0.024   2.121  15.340  0.8367 -0.7874  1.1188
20051TIP3    H281645   0.064   2.032  15.224  0.4079 -0.3928  0.6600
20052TIP3   OH281646   4.267   4.195   0.618  0.4631 -0.1695  0.1046
20052TIP3    H181647   4.243   4.149   0.537  1.7591 -0.1332 -0.3184
20052TIP3    H281648   4.341   4.146   0.653  0.5702  0.4147  0.7199
20053TIP3   OH281649   3.518   6.554  16.388  0.5511 -0.2730 -0.0406
20053TIP3    H181650   3.543   6.504  16.465 -0.9292  2.2426  2.2320
20053TIP3    H281651   3.430   6.522  16.366  0.0300  0.5785  0.7694
20054TIP3   OH281652   5.217   4.127   4.282  0.8377  0.5245  0.0817
20054TIP3    H181653   5.288   4.184   4.313  1.2357 -0.0082  0.1622
20054TIP3    H281654   5.233   4.118   4.189  1.7694 -0.8085  0.3431
20055TIP3   OH281655   6.052   5.493  11.826  0.0286 -0.1247 -0.0469
20055TIP3    H181656   6.108   5.569  11.842  0.1998 -0.5558  1.5709
20055TIP3    H281657   5.965   5.523  11.853 -0.4366  0.3080 -1.8755
20056TIP3   OH281658   5.068   6.595   2.660 -0.0304 -0.5902 -0.5951
20056TIP3    H181659   5.129   6.530   2.692 -1.2685 -1.2233  0.5983
20056TIP3    H281660   5.061   6.658   2.732 -0.6786 -0.4724 -0.7573
20057TIP3   OH281661   1.980   0.749   2.340 -0.4678 -0.8188 -0.1950
20057TIP3    H181662   1.958   0.775   2.251  1.5655 -0.7324 -0.7155
20057TIP3    H281663   1.991   0.654   2.335  0.3250 -0.7371 -0.2277
20058TIP3   OH281664   0.110   1.965   1.582  0.1786 -0.0831 -0.0593
20058TIP3    H181665   0.187   1.907   1.577 -0.4140 -0.8995  0.1486
20058TIP3    H281666   0.130   2.024   1.655 -0.1543 -1.4605  1.1883
20059TIP3   OH281667   3.638   5.998  15.082  0.3214 -0.2687 -0.6173
20059TIP3    H181668   3.580   6.013  15.156  1.6098 -1.5175  0.7133
20059TIP3    H281669   3.589   5.940  15.024 -0.1719 -0.4225 -0.0514
20060TIP3   OH281670   4.477   2.033  16.505  0.4695 -0.1675  0.6248
20060TIP3    H181671   4.495   2.126  16.487 -0.1851 -0.0908  0.3675
20060TIP3    H281672   4.494   1.989  16.422 -0.6398 -0.0768  0.3380
20061TIP3   OH281673   0.083   0.503  14.437  0.2974  0.2420 -0.3217
20061TIP3    H181674   0.113   0.583  14.480  1.0678 -0.1107 -0.1948
20061TIP3    H281675  -0.005   0.489  14.472  0.2037  0.9587 -0.2461
20062TIP3   OH281676   1.354   3.638  12.084  0.9133  0.5238  0.2604
20062TIP3    H181677   1.279   3.661  12.029  0.6968 -0.2662  0.2108
20062TIP3    H281678   1.317   3.583  12.153  1.4763 -0.0887  0.0888
20063TIP3   OH281679   0.984   3.813  17.178 -0.0109 -0.0284  0.2112
20063TIP3    H181680   1.010   3.843  17.266  0.6029  0.6527 -0.1896
20063TIP3    H281681   0.899   3.855  17.163 -0.2570 -0.3833  0.5909
20064TIP3   OH281682   3.233   3.991   4.858  0.9311  0.4396  0.0254
20064TIP3    H181683   3.310   4.039   4.828 -0.9237  1.9617 -2.6636
20064TIP3    H281684   3.181   4.056   4.904 -0.5501  0.5438 -1.6831
20065TIP3   OH281685   5.334   2.827  15.129  0.0009 -0.1369  0.2820
20065TIP3    H181686   5.246   2.824  15.166 -0.4303  0.9066 -0.6151
20065TIP3    H281687   5.320   2.830  15.034  0.9876  0.3767  0.1440
20066TIP3   OH281688   3.592   2.529   2.745  0.2546 -0.6398 -0.3852
20066TIP3    H181689   3.627   2.576   2.820 -3.0067  1.2597  0.1235
20066TIP3    H281690   3.670   2.502   2.696  2.4402  0.0157  2.4430
20067TIP3   OH281691   0.336   5.459   5.010 -0.2518  0.9069 -0.0284
20067TIP3    H181692   0.328   5.411   4.928 -0.3842 -0.1995  0.6124
20067TIP3    H281693   0.348   5.391   5.077  0.7239  1.8173  0.7707
20068TIP3   OH281694   2.312   6.545  13.647 -0.4415  0.2167 -0.8206
20068TIP3    H181695   2.295   6.522  13.738 -0.1039 -1.7429 -1.2064
20068TIP3    H281696   2.381   6.612  13.652  0.4959 -0.7782  0.3430
20069TIP3   OH281697   5.911   0.057  11.729 -0.8678  0.5964  0.2181
20069TIP3    H181698   5.899   0.143  11.770  0.2639  1.6460 -1.5123
20069TIP3    H281699   5.901   0.074  11.635 -1.0060 -1.2639 -0.1408
20070TIP3   OH281700   0.322   5.617   3.487  0.0784  0.2424  0.4525
20070TIP3    H181701   0.371   5.634   3.567  1.8485  1.8940 -0.8944
20070TIP3    H281702   0.245   5.674   3.493  1.0437  1.5926  0.2816
20071TIP3   OH281703   1.225   5.031  12.825  0.6734 -0.8066 -0.5748
20071TIP3    H181704   1.281   5.006  12.898 -1.6784 -0.1179  1.5952
20071TIP3    H281705   1.180   4.950  12.800  0.6879 -0.8278 -0.5321
20072TIP3   OH281706   4.593   6.296  15.375 -0.2053 -0.5501 -0.4236
20072TIP3    H181707   4.665   6.295  15.437  0.3987 -0.0665 -1.1026
20072TIP3    H281708   4.516   6.317  15.428  0.2929 -0.2070  0.1688
20073TIP3   OH281709   2.737   3.505   4.256 -0.3943 -0.3136  0.1549
20073TIP3    H181710   2.696   3.538   4.176 -0.8988 -2.5189 -0.5726
20073TIP3    H281711   2.789   3.431   4.227  0.1581 -0.6000  1.7728
20074TIP3   OH281712   2.952   0.021  13.242 -0.1331 -0.1680  0.7018
20074TIP3    H181713   2.948  -0.057  13.297  2.2900 -2.8364 -2.5391
20074TIP3    H281714   3.036   0.061  13.263 -1.2166  1.6003  2.1038
20075TIP3   OH281715   1.941   5.332  10.911 -0.3164 -0.2706  0.2595
20075TIP3    H181716   1.909   5.340  10.821  0.8399  0.8023 -0.0856
20075TIP3    H281717   2.035   5.322  10.902 -0.0665  0.8769  1.3856
20076TIP3   OH281718   1.202   5.866   5.172  0.5237  0.1071  0.3898
20076TIP3    H181719   1.139   5.826   5.112  0.6339  0.4763  0.0242
20076TIP3    H281720   1.284   5.866   5.123  0.7999 -0.3127  0.8404
20077TIP3   OH281721   4.638   1.365  15.611 -0.1790 -0.2048 -0.2682
20077TIP3    H181722   4.608   1.454  15.593 -2.0752 -0.6273  0.4968
20077TIP3    H281723   4.660   1.365  15.704  1.2225 -0.1956 -0.5803
20078TIP3   OH281724   5.250   0.058   5.861  0.4012 -0.3056 -0.0596
20078TIP3    H181725   5.306  -0.018   5.845 -0.9079 -1.4367  0.4336
20078TIP3    H281726   5.239   0.059   5.956 -0.6288 -0.2910 -0.1704
20079TIP3   OH281727   2.388   4.763  13.593  0.4831 -0.0746  0.4100
20079TIP3    H181728   2.388   4.668  13.601  0.5049 -0.1807 -0.7862
20079TIP3    H281729   2.398   4.780  13.500  0.6342  1.1071  0.6232
20080TIP3   OH281730   0.889   2.689   6.536 -0.0627 -0.2764 -0.1562
20080TIP3    H181731   0.862   2.733   6.455 -0.4070  1.4729  0.8688
20080TIP3    H281732   0.821   2.712   6.600 -0.4419 -2.6250  0.3608
20081TIP3   OH281733   5.556   1.262  17.017 -0.3162  0.0733  0.1801
20081TIP3    H181734   5.613   1.279  16.942 -0.4516 -0.4801 -0.0541
20081TIP3    H281735   5.580   1.328  17.082 -0.7190  1.0342 -0.6278
20082TIP3   OH281736   4.216   0.198   2.092 -0.6718 -0.1388  0.2158
20082TIP3    H181737   4.207   0.129   2.158 -1.9404 -0.8326 -0.6413
20082TIP3    H281738   4.276   0.161   2.027 -0.7569 -0.1266  0.1308
20083TIP3   OH281739   4.877   3.986   2.047 -0.1683 -0.3387 -0.3560
20083TIP3    H181740   4.864   3.952   1.958 -1.3098  0.7217 -0.6184
20083TIP3    H281741   4.789   4.003   2.079  0.2947  0.4981  0.5025
20084TIP3   OH281742   6.719   3.765   2.993 -0.0869  0.2564  0.4022
20084TIP3    H181743   6.798   3.734   2.948  0.6616  3.1501 -0.5067
20084TIP3    H281744   6.701   3.850   2.953 -2.7350  0.4348  1.7609
20085TIP3   OH281745   6.016   3.426   1.074 -0.4296  0.4981 -0.3867
20085TIP3    H181746   6.007   3.521   1.071 -2.5920  0.3435 -0.3825
20085TIP3    H281747   6.084   3.410   1.140 -0.4818  2.0135  0.0627
20086TIP3   OH281748   5.507   3.126   0.701  0.2057 -0.2718  0.3170
20086TIP3    H181749   5.530   3.139   0.609  1.5952  0.4556  0.7289
20086TIP3    H281750   5.429   3.180   0.715  1.1124  1.1655  0.0117
20087TIP3   OH281751   4.510   1.094  12.508  0.1296 -0.3794  0.3455
20087TIP3    H181752   4.447   1.161  12.535  0.5859  0.2865 -0.1812
20087TIP3    H281753   4.533   1.048  12.589  0.7178  0.9030  0.9312
20088TIP3   OH281754   4.241   1.365   2.870  0.4470 -0.1362  0.3026
20088TIP3    H181755   4.274   1.386   2.958  0.7292  0.7059  0.0067
20088TIP3    H281756   4.300   1.296   2.839  1.1984  0.5256  0.2451
20089TIP3   OH281757   6.392   5.395   5.552 -0.0954  0.1095 -0.0673
20089TIP3    H181758   6.394   5.326   5.486 -1.3179 -2.0671  1.9986
20089TIP3    H281759   6.337   5.463   5.515  1.0179 -0.0346 -2.1138
20090TIP3   OH281760   5.675   3.638   0.990 -0.7372  1.1778  0.1451
20090TIP3    H181761   5.640   3.727   0.990 -0.9429  1.1238  1.8188
20090TIP3    H281762   5.760   3.645   1.033 -2.5622  0.0232  4.5423
20091TIP3   OH281763   1.172   6.508   4.082  0.1302  0.1170  0.1400
20091TIP3    H181764   1.094   6.513   4.137  0.6878  0.4599  0.9286
20091TIP3    H281765   1.150   6.556   4.003 -0.1492  1.0012  0.7470
20092TIP3   OH281766   2.627   3.399  13.749  0.1257 -0.1781 -0.6600
20092TIP3    H181767   2.666   3.465  13.692 -1.1583 -0.0417 -1.4228
20092TIP3    H281768   2.539   3.433  13.768  0.2580 -0.5911  0.7830
20093TIP3   OH281769   5.328   4.938  14.269 -0.3780 -0.1168  0.1908
20093TIP3    H181770   5.322   4.929  14.364 -0.1733  1.7585  0.4109
20093TIP3    H281771   5.383   4.864  14.242 -0.1991 -0.5112  1.5615
20094TIP3   OH281772   4.855   1.402  10.826  0.3362  0.1736 -0.3854
20094TIP3    H181773   4.814   1.480  10.863  0.8406  0.4058 -0.3046
20094TIP3    H281774   4.785   1.358  10.778 -0.0779  0.3995  0.0073
20095TIP3   OH281775   3.542   1.609   2.137  0.2920  0.1562 -0.0291
20095TIP3    H181776   3.458   1.613   2.090  0.2463 -0.9732 -0.0817
20095TIP3    H281777   3.552   1.696   2.176 -1.0627  0.2218  0.2411
20096TIP3   OH281778   5.696   3.856   4.321 -0.1278 -0.1508  0.6405
20096TIP3    H181779   5.601   3.857   4.335 -0.0847 -0.1712  0.9273
20096TIP3    H281780   5.706   3.836   4.228 -0.3936 -0.6884  0.7214
20097TIP3   OH281781   0.948   2.848   1.330  0.0393  0.2006 -0.2887
20097TIP3    H181782   0.872   2.903   1.313  0.3273  0.4057 -0.9612
20097TIP3    H281783   0.912   2.764   1.358 -0.3909  1.1630  2.2495
20098TIP3   OH281784   2.273   1.349   0.175  0.3155  0.5659 -0.3299
20098TIP3    H181785   2.250   1.415   0.240  1.3254  1.4599 -0.8461
20098TIP3    H281786   2.339   1.391   0.120 -0.0852 -0.3568 -1.5881
20099TIP3   OH281787   5.529   2.643  11.007  0.6279  0.1845  0.2913
20099TIP3    H181788   5.592   2.628  10.937  0.1963  1.7445 -0.4891
20099TIP3    H281789   5.477   2.718  10.976 -2.0825 -1.4501  0.5456
20100TIP3   OH281790   0.053   2.224   2.484 -0.2837  0.1153 -0.3243
20100TIP3    H181791   0.148   2.222   2.481 -0.2675  1.6004 -1.1340
20100TIP3    H281792   0.029   2.143   2.531  1.4611  1.0644  2.4031
20101TIP3   OH281793   2.268   0.874   4.645 -0.0630  0.1919  0.1125
20101TIP3    H181794   2.320   0.903   4.570  0.0857 -0.8402 -0.2029
20101TIP3    H281795   2.220   0.797   4.613  0.0107 -0.2704  1.0692
20102TIP3   OH281796   3.013   1.809   1.497  0.1808  0.2918  0.4869
20102TIP3    H181797   3.013   1.836   1.588 -0.1044 -0.4194  0.7109
20102TIP3    H281798   2.988   1.716   1.500  1.6600 -0.1602 -0.1874
20103TIP3   OH281799   1.814   5.613  12.413  0.8247 -0.7778  0.2839
20103TIP3    H181800   1.895   5.564  12.427  0.7601 -1.1342 -0.5109
20103TIP3    H281801   1.791   5.648  12.499  2.3426  0.1429  0.3438
20104TIP3   OH281802   6.349   3.842   1.289 -0.8571 -0.1942  0.0659
20104TIP3    H181803   6.395   3.801   1.362 -2.1279  0.5444  1.3297
20104TIP3    H281804   6.293   3.772   1.254 -2.4678  0.1745  1.7453
20105TIP3   OH281805   2.213   4.136   0.887 -0.0178 -0.0364  0.1142
20105TIP3    H181806   2.211   4.043   0.911  1.6528 -0.4009 -0.9682
20105TIP3    H281807   2.274   4.176   0.949  0.1915  0.0929 -0.1736
20106TIP3   OH281808   5.793   1.555  14.962  0.3921  0.3383 -0.4921
20106TIP3    H181809   5.776   1.483  14.901 -0.7327 -0.3245  0.5624
20106TIP3    H281810   5.855   1.612  14.916 -0.8367  0.1494 -2.4688
20107TIP3   OH281811   1.173   1.772  16.991  0.0789 -0.1815 -0.9339
20107TIP3    H181812   1.141   1.841  16.932  0.1686  0.1079 -0.6439
20107TIP3    H281813   1.210   1.706  16.932  0.6914  0.3693 -1.1802
20108TIP3   OH281814   1.782   0.181   5.569  0.5881  0.1053 -0.3463
20108TIP3    H181815   1.869   0.144   5.551  0.5130  0.1462 -0.8076
20108TIP3    H281816   1.801   0.272   5.594  0.7779 -0.2389  0.8682
20109TIP3   OH281817   1.229   2.125   1.539 -0.6887  0.3369 -0.3429
20109TIP3    H181818   1.301   2.071   1.572 -1.9176 -0.7712  0.6182
20109TIP3    H281819   1.273   2.201   1.500  0.9661  0.2124  1.1259
20110TIP3   OH281820   3.994   5.464   0.290  0.0285  0.2729  0.1842
20110TIP3    H181821   4.045   5.438   0.367  0.7565  0.6838 -0.1452
20110TIP3    H281822   3.980   5.558   0.302  2.6151  0.9949 -1.5189
20111TIP3   OH281823   5.802   2.351  15.478  0.4420 -0.7466 -0.2232
20111TIP3    H181824   5.894   2.339  15.502  0.4753  0.9744  0.6446
20111TIP3    H281825   5.755   2.288  15.532  1.0717 -1.3960 -0.4155
20112TIP3   OH281826   6.447   3.741  15.993 -0.1390  0.0935 -0.2696
20112TIP3    H181827   6.530   3.693  15.991  0.5345  1.2456 -0.9487
20112TIP3    H281828   6.416   3.740  15.902 -1.3338 -1.0552  0.1100
20113TIP3   OH281829   3.751   2.057  13.944 -0.1751  0.3638  0.5062
20113TIP3    H181830   3.725   2.038  13.853  2.9429 -2.2875 -0.0152
20113TIP3    H281831   3.775   2.149  13.943 -1.0041  0.6092 -1.1367
20114TIP3   OH281832   6.446   6.109   0.627  0.2856 -0.0584  0.0827
20114TIP3    H181833   6.478   6.035   0.678 -0.1410  0.3177  0.9193
20114TIP3    H281834   6.371   6.074   0.579  0.1754 -0.2135  0.3637
20115TIP3   OH281835   1.305   3.698  13.673 -0.3660 -0.2884 -0.2285
20115TIP3    H181836   1.365   3.632  13.707 -0.3846 -0.6877 -0.9660
20115TIP3    H281837   1.246   3.715  13.747  1.5689  1.2846  1.0582
20116TIP3   OH281838   2.123   2.283  13.959 -0.1339  0.9069 -0.2180
20116TIP3    H181839   2.029   2.297  13.945 -0.2164 -0.3332 -1.0472
20116TIP3    H281840   2.138   2.314  14.048 -1.9491 -1.4735  1.0472
20117TIP3   OH281841   4.506   1.098  14.907 -0.3210 -0.3662 -0.0491
20117TIP3    H181842   4.497   1.189  14.879  1.4152  0.0961  0.7193
20117TIP3    H281843   4.525   1.103  15.001 -1.4275 -1.6149  0.2739
20118TIP3   OH281844   1.980   3.410  15.666  0.8090  0.9519 -0.5840
20118TIP3    H181845   2.056   3.372  15.710  0.1903  0.7235  0.2950
20118TIP3    H281846   1.960   3.349  15.595  0.9887  0.6370 -0.3614
20119TIP3   OH281847   2.054   2.344  15.823  0.0681 -0.2688 -0.3549
20119TIP3    H181848   2.081   2.330  15.914 -0.8279 -2.8191 -0.4006
20119TIP3    H281849   2.100   2.276  15.774  0.7580  1.2444 -1.9031
20120TIP3   OH281850   1.300   5.131   6.606  0.2783 -0.1668  0.3938
20120TIP3    H181851   1.237   5.072   6.565 -0.9633  2.3613 -1.7204
20120TIP3    H281852   1.247   5.207   6.633  1.9364  0.5706  1.7868
20121TIP3   OH281853   4.817   1.234  16.883 -0.2487  0.1023  0.4273
20121TIP3    H181854   4.753   1.295  16.919  0.5636  1.4027 -0.2801
20121TIP3    H281855   4.899   1.254  16.928 -0.4599 -2.1724  2.0133
20122TIP3   OH281856   1.900   6.222  14.700 -0.1851 -0.5616  0.2885
20122TIP3    H181857   1.893   6.276  14.622  0.6886  0.2310  0.7424
20122TIP3    H281858   1.815   6.228  14.742  0.0152  0.8231  0.5488
20123TIP3   OH281859   6.000   5.671   3.362 -0.3860 -0.1370 -0.1609
20123TIP3    H181860   6.055   5.595   3.381 -0.3836  0.3329  1.9143
20123TIP3    H281861   5.944   5.680   3.439 -0.8230  1.5894 -0.6406
20124TIP3   OH281862   5.444   0.646  17.031 -0.0177 -0.3972  0.1799
20124TIP3    H181863   5.362   0.695  17.035  0.2012 -0.0578  0.7899
20124TIP3    H281864   5.436   0.579  17.099 -0.0885 -0.8388 -0.2663
20125TIP3   OH281865   0.434   1.880   4.623 -0.4757  0.2444 -0.4131
20125TIP3    H181866   0.515   1.929   4.610 -0.2206 -0.0759 -0.0268
20125TIP3    H281867   0.371   1.946   4.653  0.1842  0.1440  1.2990
20126TIP3   OH281868   0.257   0.191   5.121 -0.4659  0.7835 -0.1398
20126TIP3    H181869   0.202   0.211   5.045 -0.5450  0.4186 -0.1757
20126TIP3    H281870   0.262   0.096   5.123  0.7638  0.8198 -0.5602
20127TIP3   OH281871   1.633   6.535   0.447 -0.1338 -0.0382  0.0967
20127TIP3    H181872   1.618   6.556   0.539 -0.3271 -3.2205  0.9199
20127TIP3    H281873   1.717   6.575   0.427 -0.2701  1.0547  1.5203
20128TIP3   OH281874   6.552   2.653   2.822  0.1472  0.2648  0.0729
20128TIP3    H181875   6.584   2.674   2.909  0.1249 -0.7046  0.3183
20128TIP3    H281876   6.473   2.707   2.813 -1.4978 -1.6831  1.7951
20129TIP3   OH281877   6.574   1.281   4.073  0.2064 -0.9626  0.4830
20129TIP3    H181878   6.667   1.301   4.082  0.4822 -1.4667 -0.9440
20129TIP3    H281879   6.533   1.324   4.148  1.3185  1.0026  0.0390
20130TIP3   OH281880   0.460   5.785   6.397 -0.4206 -0.1798 -0.7430
20130TIP3    H181881   0.384   5.731   6.422 -0.0326 -0.3714  0.0402
20130TIP3    H281882   0.442   5.871   6.434  0.2112 -0.4958  0.3529
20131TIP3   OH281883   1.903   3.529  14.748 -0.0568 -0.4812  0.0758
20131TIP3    H181884   1.990   3.545  14.787 -0.0529 -2.1584  0.8767
20131TIP3    H281885   1.848   3.507  14.823 -0.8214 -0.8261 -0.5778
20132TIP3   OH281886   0.191   0.870   2.534  0.8892  0.0791  0.2883
20132TIP3    H181887   0.264   0.920   2.570 -0.0687  0.9809  1.0188
20132TIP3    H281888   0.184   0.899   2.443  1.3846  0.0400  0.2364
20133TIP3   OH281889   5.193   2.285   5.040  0.7464  0.1329  0.3119
20133TIP3    H181890   5.187   2.298   4.946 -1.2358 -1.5342  0.1454
20133TIP3    H281891   5.111   2.317   5.075  0.5135 -1.2848  1.1689
20134TIP3   OH281892   1.211   0.050   0.485 -0.4041  0.0664 -0.6997
20134TIP3    H181893   1.152   0.126   0.479 -0.2630  0.3884  1.4517
20134TIP3    H281894   1.297   0.084   0.463 -0.4331  0.4174 -0.2783
20135TIP3   OH281895   2.038   4.759   2.692 -0.1363 -0.2154 -0.8167
20135TIP3    H181896   2.083   4.792   2.614  1.2309  0.0285  0.0356
20135TIP3    H281897   1.965   4.708   2.657  0.3489  0.0037 -2.2495
20136TIP3   OH281898   6.564   0.908   6.221  0.1881 -0.3267  0.1824
20136TIP3    H181899   6.549   0.817   6.195  0.1641 -0.4786  0.7223
20136TIP3    H281900   6.493   0.957   6.180  0.5617 -0.4524 -0.6382
20137TIP3   OH281901   2.068   0.031   1.713  0.1551 -0.5082  0.0365
20137TIP3    H181902   1.980   0.027   1.752  0.0223 -1.5203 -0.3198
20137TIP3    H281903   2.128   0.024   1.787 -0.0146  1.6437  0.4363
20138TIP3   OH281904   4.763   5.018   0.023  0.1676 -0.0894  0.0611
20138TIP3    H181905   4.772   4.928   0.054 -2.9725 -0.2396  0.8355
20138TIP3    H281906   4.772   5.071   0.101 -2.1274 -0.0796  0.3721
20139TIP3   OH281907   3.572   6.573   0.916 -0.0073  0.3162  0.4264
20139TIP3    H181908   3.536   6.640   0.859  0.8680 -0.0129 -0.5507
20139TIP3    H281909   3.638   6.618   0.968  2.3248 -0.1589 -1.9134
20140TIP3   OH281910   5.293   6.345  13.193 -0.2125  0.4135 -0.3128
20140TIP3    H181911   5.308   6.439  13.185  2.2012  0.0406 -0.7966
20140TIP3    H281912   5.303   6.311  13.104 -1.2235 -0.3004 -0.1700
20141TIP3   OH281913   0.347   6.055   1.368 -0.0460 -0.1057 -0.2001
20141TIP3    H181914   0.349   6.038   1.274 -2.1758 -0.5999 -0.2274
20141TIP3    H281915   0.283   5.992   1.402 -1.9877  2.3364  1.0132
20142TIP3   OH281916   1.883   3.708   3.389  0.6596 -0.0220 -0.6080
20142TIP3    H181917   1.908   3.649   3.459  0.6990  0.8990  0.1780
20142TIP3    H281918   1.813   3.762   3.426  0.9050  0.6953 -1.1494
20143TIP3   OH281919   4.733   6.190  16.531 -0.0090  0.2074 -0.2778
20143TIP3    H181920   4.644   6.199  16.497  0.1134 -2.3540 -1.4773
20143TIP3    H281921   4.777   6.271  16.506 -0.6075 -0.5048 -4.2827
20144TIP3   OH281922   1.484   2.024   4.597 -0.1787 -0.4536  0.3524
20144TIP3    H181923   1.470   1.960   4.667 -1.3751 -2.8516 -1.9403
20144TIP3    H281924   1.520   1.974   4.524  2.2120  2.1787 -0.4834
20145TIP3   OH281925   6.163   3.642  15.489  0.0116  0.0310 -0.5049
20145TIP3    H181926   6.182   3.551  15.511 -0.9334  0.1703  1.0400
20145TIP3    H281927   6.178   3.648  15.395  1.0931 -1.4502 -0.4542
20146TIP3   OH281928   2.853   4.641   2.405 -0.1071  0.0083  0.1701
20146TIP3    H181929   2.898   4.580   2.463  1.1276  0.3092 -0.4450
20146TIP3    H281930   2.882   4.727   2.434  1.6995  0.1177 -1.7817
20147TIP3   OH281931   3.646   2.789   4.325 -0.1339 -0.1234 -1.0153
20147TIP3    H181932   3.694   2.783   4.242 -0.4827  1.7872 -1.4119
20147TIP3    H281933   3.556   2.769   4.302 -0.1403 -0.1385 -0.9776
20148TIP3   OH281934   0.711   6.479  13.322 -0.0379  0.4733 -0.4355
20148TIP3    H181935   0.664   6.510  13.399 -0.0737 -0.3357 -0.1309
20148TIP3    H281936   0.789   6.435  13.358  0.8950  1.6578 -0.9192
20149TIP3   OH281937   5.895   3.639   0.781 -0.4516 -0.7071 -0.7069
20149TIP3    H181938   5.842   3.584   0.839  1.1633 -1.2047  0.3644
20149TIP3    H281939   5.881   3.728   0.814 -2.9663 -0.3794 -2.3641
20150TIP3   OH281940   4.762   1.930   3.417 -0.2437 -0.0928 -0.1029
20150TIP3    H181941   4.710   1.852   3.434  1.8567 -2.3342 -3.0349
20150TIP3    H281942   4.724   1.968   3.338  1.2789 -0.7310 -1.2156
20151TIP3   OH281943   4.591   4.906   0.367 -0.7139 -0.4695 -0.1395
20151TIP3    H181944   4.600   4.855   0.287 -0.2216  0.7962 -0.9359
20151TIP3    H281945   4.509   4.955   0.355 -0.6030 -0.2226  0.1004
20152TIP3   OH281946   1.398   6.280   6.047 -0.3526  0.0361 -0.1411
20152TIP3    H181947   1.423   6.195   6.011  3.0336  1.2275 -1.0687
20152TIP3    H281948   1.425   6.276   6.139  2.6126  0.9257 -0.8644
20153TIP3   OH281949   5.863   5.312  16.008 -0.5971 -0.5183  0.3824
20153TIP3    H181950   5.891   5.238  15.955 -0.7679 -0.1334 -0.2599
20153TIP3    H281951   5.886   5.288  16.098  0.8474 -0.6576  0.0074
20154TIP3   OH281952   4.794   5.429   1.396  0.2267 -0.6587  0.2100
20154TIP3    H181953   4.745   5.503   1.360 -1.4783 -1.7229  0.2496
20154TIP3    H281954   4.825   5.381   1.319  1.5521  0.1872  0.1811
20155TIP3   OH281955   2.347   4.889  16.761 -0.1022  0.1789  0.2367
20155TIP3    H181956   2.276   4.878  16.697  0.7237  0.1192 -0.6955
20155TIP3    H281957   2.418   4.929  16.711  0.1287  1.3320  1.4342
20156TIP3   OH281958   4.788   3.978   4.016 -0.3426 -0.2559 -0.1630
20156TIP3    H181959   4.706   4.021   4.037  1.4042  2.8970  0.7861
20156TIP3    H281960   4.774   3.941   3.928 -1.8832  2.7052 -1.2869
20157TIP3   OH281961   5.008   4.042  13.724 -0.9237 -0.4397  0.2381
20157TIP3    H181962   4.943   4.079  13.784  0.2942  0.0067  1.3071
20157TIP3    H281963   5.092   4.056  13.767  0.0318  0.1919 -1.7269
20158TIP3   OH281964   1.871   2.963  10.484 -0.1988  0.0492  0.1700
20158TIP3    H181965   1.858   3.037  10.425 -0.7013  0.7029  1.0729
20158TIP3    H281966   1.783   2.928  10.498 -0.2440  0.6147  1.4124
20159TIP3   OH281967   5.118   6.164  15.402  0.2683 -0.6498  0.0754
20159TIP3    H181968   5.081   6.104  15.338 -0.8137 -0.6485  0.6712
20159TIP3    H281969   5.114   6.250  15.360 -2.3015 -0.3169  0.8101
20160TIP3   OH281970   1.449   3.646  16.518 -0.0968 -0.2245 -0.2196
20160TIP3    H181971   1.490   3.605  16.594 -1.7224 -1.8598 -0.1436
20160TIP3    H281972   1.457   3.740  16.534 -0.0991 -0.5194  1.8185
20161TIP3   OH281973   6.251   2.258  16.285  0.0032  0.1079  0.1321
20161TIP3    H181974   6.181   2.320  16.306  0.4310  0.8723 -0.6432
20161TIP3    H281975   6.315   2.310  16.234  2.1265 -0.0109  2.4708
20162TIP3   OH281976   2.399   3.057   5.379  0.2424  0.3019  0.5803
20162TIP3    H181977   2.358   3.112   5.312  0.7451  0.0400  0.0462
20162TIP3    H281978   2.346   3.071   5.457  0.4835  1.7309  0.5243
20163TIP3   OH281979   4.455   3.695   2.760  0.3665  0.3000  0.3657
20163TIP3    H181980   4.478   3.772   2.813 -0.6892  0.7900  0.1483
20163TIP3    H281981   4.522   3.693   2.691 -0.0502  1.5357 -0.1170
20164TIP3   OH281982   2.007   1.174  12.635  0.5271  0.0397  0.1470
20164TIP3    H181983   1.977   1.113  12.568 -0.2021  0.8964 -0.3332
20164TIP3    H281984   1.971   1.139  12.717  0.0993 -0.1551 -0.1229
20165TIP3   OH281985   4.527   4.822  14.464  0.1397 -0.7045  0.5498
20165TIP3    H181986   4.445   4.811  14.512 -1.1854  0.8279 -1.2177
20165TIP3    H281987   4.558   4.909  14.488 -0.9483  0.4167 -1.7999
20166TIP3   OH281988   3.594   1.519   5.769 -0.3137  0.1573  0.4039
20166TIP3    H181989   3.543   1.593   5.737 -0.9509 -0.0828  0.8283
20166TIP3    H281990   3.614   1.468   5.690 -1.9282 -0.4679  0.3480
20167TIP3   OH281991   5.450   4.529  15.530  0.5673  0.1920 -0.4753
20167TIP3    H181992   5.470   4.477  15.451 -0.5376  0.0541 -0.6774
20167TIP3    H281993   5.365   4.570  15.511 -0.1819 -0.6006  1.0147
20168TIP3   OH281994   2.374   6.814   6.395 -0.4923  0.1023 -0.1090
20168TIP3    H181995   2.341   6.889   6.445  0.6791  1.0563 -0.6918
20168TIP3    H281996   2.454   6.789   6.441  0.1202  0.4230 -0.9688
20169TIP3   OH281997   3.054   6.647   5.030 -0.0973 -0.0824  0.0119
20169TIP3    H181998   2.983   6.591   5.061 -0.6054  0.1288 -0.7373
20169TIP3    H281999   3.010   6.719   4.984  0.6094 -0.4303 -1.2690
20170TIP3   OH282000   0.963   5.050   5.505 -0.0145  0.4700 -0.8933
20170TIP3    H182001   1.040   5.108   5.499  0.6642 -0.3350 -0.1777
20170TIP3    H282002   0.997   4.969   5.543 -1.5209  0.6477  0.9608
20171TIP3   OH282003   2.109   4.490  15.861  0.4304  0.4634  0.2171
20171TIP3    H182004   2.038   4.430  15.886 -0.7649  1.9639  0.5716
20171TIP3    H282005   2.078   4.530  15.780  0.6760  1.4353  0.5955
20172TIP3   OH282006   5.970   5.145   2.227  0.9074  0.2417  0.1879
20172TIP3    H182007   5.917   5.092   2.167  1.0350  0.0809  0.2162
20172TIP3    H282008   5.996   5.221   2.176 -2.5761  2.3962  1.2153
20173TIP3   OH282009   3.585   0.854   0.737 -1.1857 -0.5069  0.2038
20173TIP3    H182010   3.614   0.870   0.648 -0.0452 -0.7500  0.5099
20173TIP3    H282011   3.524   0.925   0.756 -0.2407  0.4466 -0.2351
20174TIP3   OH282012   5.404   2.022   3.839  0.1761  0.0272 -0.5464
20174TIP3    H182013   5.393   1.971   3.920 -0.9631  1.5416  0.3088
20174TIP3    H282014   5.348   1.979   3.776  0.8073 -0.9707 -0.4558
20175TIP3   OH282015   0.189   6.414  15.279  0.4738 -0.1467 -0.1073
20175TIP3    H182016   0.204   6.371  15.195 -0.2912 -0.6708  0.0160
20175TIP3    H282017   0.174   6.342  15.340  1.3523  0.2141  0.5573
20176TIP3   OH282018   6.368   1.939   1.325  0.1817  0.2438  0.1645
20176TIP3    H182019   6.412   1.933   1.409  0.4435 -0.0777  0.0064
20176TIP3    H282020   6.279   1.907   1.341  0.8792 -1.9880 -0.1611
20177TIP3   OH282021   4.145   4.800   4.330  0.2949  0.2407  0.0424
20177TIP3    H182022   4.181   4.713   4.343 -0.3048  0.0461  0.4353
20177TIP3    H282023   4.175   4.826   4.243  0.5267 -0.3279 -0.0501
20178TIP3   OH282024   3.849   5.450   1.689  0.1454 -0.2267 -0.0935
20178TIP3    H182025   3.820   5.538   1.664  1.4777  0.4216  0.5609
20178TIP3    H282026   3.943   5.459   1.703 -0.1285 -1.0229  2.9432
20179TIP3   OH282027   6.143   4.310  15.361 -0.1426  0.3622 -0.1718
20179TIP3    H182028   6.161   4.312  15.267  0.1950 -0.0040 -0.1167
20179TIP3    H282029   6.220   4.349  15.402 -0.3636  0.6798 -0.0549
20180TIP3   OH282030   1.643   6.450  17.204  0.0521  0.2758  0.3840
20180TIP3    H182031   1.710   6.518  17.198 -0.1332  0.4226 -0.0954
20180TIP3    H282032   1.677   6.377  17.153  0.0497  0.1744  0.5246
20181TIP3   OH282033   5.899   3.877   2.645 -0.0109 -0.6117  0.5138
20181TIP3    H182034   5.842   3.819   2.595 -2.4364  1.2371  0.9548
20181TIP3    H282035   5.951   3.922   2.579 -0.6770 -0.7006 -0.0857
20182TIP3   OH282036   2.955   1.973  13.873 -0.9604 -0.6792  0.1676
20182TIP3    H182037   2.909   2.052  13.843 -1.0290 -0.5657  0.5742
20182TIP3    H282038   2.887   1.920  13.915 -1.0265 -1.2050 -0.5823
20183TIP3   OH282039   0.388   0.563  13.025  0.4183 -0.6829 -0.3783
20183TIP3    H182040   0.389   0.641  13.082  0.9978  0.3143 -1.7162
20183TIP3    H282041   0.427   0.593  12.943 -1.2750 -1.8322 -1.6526
20184TIP3   OH282042   3.831   2.870  11.536  0.0784 -0.1226  0.4457
20184TIP3    H182043   3.748   2.903  11.501 -0.7550 -0.7858  1.7427
20184TIP3    H282044   3.874   2.947  11.573 -0.8372 -0.0896  1.4732
20185TIP3   OH282045   2.173   5.306  10.606 -0.4439  0.3957 -0.4344
20185TIP3    H182046   2.085   5.269  10.608 -0.2336 -0.1216 -0.4331
20185TIP3    H282047   2.200   5.297  10.515  0.1974 -0.9120 -0.1487
20186TIP3   OH282048   5.632   0.879  11.428 -0.2649 -0.3119 -0.6942
20186TIP3    H182049   5.574   0.806  11.450 -0.8515  0.1007 -0.8755
20186TIP3    H282050   5.710   0.864  11.483 -0.2041 -1.2977 -1.0165
20187TIP3   OH282051   3.913   1.993   5.924  0.4345 -0.2879 -0.3613
20187TIP3    H182052   3.824   2.026   5.940  0.3077 -1.1512  0.8939
20187TIP3    H282053   3.903   1.932   5.851  0.5163  1.6939 -2.1030
20188TIP3   OH282054   0.238   2.493  14.315 -0.0586 -0.0642  0.0241
20188TIP3    H182055   0.231   2.416  14.371  2.4622 -0.4261 -0.0345
20188TIP3    H282056   0.185   2.471  14.238 -3.3876  0.3519  2.0315
20189TIP3   OH282057   3.754   4.022  15.087  0.7918  0.0374 -0.1049
20189TIP3    H182058   3.693   4.042  15.015 -1.2460 -0.7693  1.3056
20189TIP3    H282059   3.714   4.064  15.164  0.7409 -2.4241  1.3181
20190TIP3   OH282060   5.140   3.966   4.706  0.3285  0.2639  0.5183
20190TIP3    H182061   5.187   3.898   4.658 -0.5074 -0.6309  0.9444
20190TIP3    H282062   5.083   4.007   4.640 -0.9600 -1.0926  0.7296
20191TIP3   OH282063   0.220   0.195   1.444 -0.0282 -0.3831  0.4700
20191TIP3    H182064   0.277   0.240   1.381 -0.1379 -0.8926  0.0039
20191TIP3    H282065   0.233   0.102   1.426 -0.1535 -0.5265  1.1214
20192TIP3   OH282066   5.512   5.779  16.895 -0.0897  0.3017  0.1993
20192TIP3    H182067   5.556   5.763  16.812 -0.1683 -1.0200  0.3947
20192TIP3    H282068   5.514   5.695  16.940 -2.0050  0.4331  0.6070
20193TIP3   OH282069   2.278   3.378  14.132  0.2668  0.3169  0.0762
20193TIP3    H182070   2.332   3.439  14.181  0.4145  0.4517 -0.2559
20193TIP3    H282071   2.206   3.356  14.192  1.8653 -1.6165  1.4187
20194TIP3   OH282072   5.120   6.267  13.846 -0.2601 -0.3398  0.0977
20194TIP3    H182073   5.191   6.233  13.902  1.1732  0.3438 -1.2389
20194TIP3    H282074   5.089   6.344  13.893 -0.0585 -0.5793  0.6467
20195TIP3   OH282075   0.938   6.488  11.221 -0.0406 -0.1629 -0.4720
20195TIP3    H182076   0.875   6.527  11.161  0.4223 -1.8264 -2.1234
20195TIP3    H282077   0.923   6.394  11.215  0.4083 -0.4148  1.6263
20196TIP3   OH282078   5.411   6.485   4.180 -0.3118 -0.1445  0.4027
20196TIP3    H182079   5.392   6.459   4.089  1.2253 -2.4269  0.6515
20196TIP3    H282080   5.432   6.403   4.224 -0.9765  0.9234  2.8558
20197TIP3   OH282081   1.761   4.783  13.221 -0.3288 -0.0126  0.3822
20197TIP3    H182082   1.734   4.857  13.167  0.5130  0.9867  1.2935
20197TIP3    H282083   1.690   4.719  13.212 -1.2851  1.0876 -0.0549
20198TIP3   OH282084   3.415   0.021   0.275 -0.3348  0.3967  0.3706
20198TIP3    H182085   3.403   0.035   0.181 -0.5356  0.1176  0.3522
20198TIP3    H282086   3.329   0.041   0.313 -0.1804  0.7731  0.5275
20199TIP3   OH282087   2.294   1.128  11.335 -0.1054 -0.0807 -0.4869
20199TIP3    H182088   2.265   1.071  11.263  0.3156 -1.4525  0.3885
20199TIP3    H282089   2.387   1.144  11.316 -0.2590  0.4419 -0.8084
20200TIP3   OH282090   5.489   5.517  17.022  0.2433  0.0506  0.0812
20200TIP3    H182091   5.532   5.459  17.085 -0.1168 -0.3106  0.0012
20200TIP3    H282092   5.478   5.463  16.944  0.6993  0.4991 -0.2981
20201TIP3   OH282093   2.569   3.854   6.850  0.8144  0.6069  0.0903
20201TIP3    H182094   2.662   3.873   6.863  0.6696  1.7979 -0.5070
20201TIP3    H282095   2.566   3.811   6.765  0.8286  0.4273  0.1794
20202TIP3   OH282096   0.069   3.229  16.582 -0.3120 -0.6148  0.1729
20202TIP3    H182097   0.060   3.145  16.538  1.4004 -0.7305 -0.0283
20202TIP3    H282098   0.063   3.209  16.675  1.0759 -1.1380  0.1733
20203TIP3   OH282099   3.190   0.378   5.095  0.5469 -0.3015 -0.5860
20203TIP3    H182100   3.197   0.462   5.049  1.3908 -0.4320 -0.7148
20203TIP3    H282101   3.096   0.363   5.103  0.3747 -0.1177 -1.9835
20204TIP3   OH282102   3.798   1.020   0.943 -0.0712 -0.3136 -0.4857
20204TIP3    H182103   3.875   0.975   0.909  1.5225  0.9012  1.2685
20204TIP3    H282104   3.768   0.965   1.015  0.7647  0.4396  0.4754
20205TIP3   OH282105   4.047   4.914  16.426  0.1755  0.5013  0.3434
20205TIP3    H182106   4.052   4.825  16.462  2.2190  0.7924  0.8970
20205TIP3    H282107   4.059   4.903  16.332  0.5232  0.1853  0.4217
20206TIP3   OH282108   2.264   3.225   1.166 -0.1634 -0.2278 -0.7620
20206TIP3    H182109   2.230   3.248   1.253 -0.1475 -0.7255 -0.6228
20206TIP3    H282110   2.217   3.145   1.142  0.0788 -0.2804 -1.0649
20207TIP3   OH282111   3.259   1.882  11.344 -0.0769 -0.1240 -0.7352
20207TIP3    H182112   3.165   1.875  11.365 -0.2226 -3.2435 -1.9027
20207TIP3    H282113   3.262   1.892  11.249  0.7750  0.3507 -0.6640
20208TIP3   OH282114   3.751   2.485  15.220  0.2319 -0.3875  0.0940
20208TIP3    H182115   3.716   2.402  15.253  0.2282 -1.0143 -1.4219
20208TIP3    H282116   3.695   2.506  15.145 -0.1462  1.3153  0.7955
20209TIP3   OH282117   5.531   1.903   2.005  0.0007  0.4212 -0.3923
20209TIP3    H182118   5.437   1.896   1.992 -0.0122 -0.8084  0.2194
20209TIP3    H282119   5.540   1.953   2.087 -0.1171  0.6332 -0.5093
20210TIP3   OH282120   5.278   6.366   1.613  0.3563  0.4604 -0.5158
20210TIP3    H182121   5.221   6.326   1.547  0.1601  0.5527 -0.4009
20210TIP3    H282122   5.362   6.378   1.568  0.7097 -0.9401 -0.2920
20211TIP3   OH282123   6.326   3.816  17.137 -0.0105 -0.7047 -0.8777
20211TIP3    H182124   6.362   3.864  17.062 -0.2511 -0.1869 -0.6671
20211TIP3    H282125   6.249   3.866  17.162  0.4089 -0.5371  0.0917
20212TIP3   OH282126   2.090   6.388  11.968 -0.2789 -0.4248 -0.1375
20212TIP3    H182127   2.058   6.421  11.884 -0.6489  0.2289  0.2585
20212TIP3    H282128   2.054   6.299  11.974 -0.1817 -0.5064 -0.7007
20213TIP3   OH282129   5.748   5.946   2.163  0.4083  0.7810 -0.1630
20213TIP3    H182130   5.812   5.953   2.093  3.0278 -1.0553  1.8247
20213TIP3    H282131   5.684   6.016   2.145  1.4047  0.9498 -3.7671
20214TIP3   OH282132   6.807   2.124  13.196 -0.8252 -0.4163  0.2113
20214TIP3    H182133   6.878   2.086  13.248 -0.5739 -0.1728  0.0505
20214TIP3    H282134   6.851   2.169  13.124 -1.1692 -0.7371 -0.2097
20215TIP3   OH282135   0.676   2.948   1.427 -0.3695 -0.6035  0.1286
20215TIP3    H182136   0.582   2.935   1.414 -0.4638 -0.4485  0.6310
20215TIP3    H282137   0.690   3.040   1.406 -0.0502 -0.9915 -1.4749
20216TIP3   OH282138   5.097   1.436  13.309 -0.2165 -0.6017 -0.1052
20216TIP3    H182139   5.070   1.527  13.316  1.3835 -0.1204  0.3638
20216TIP3    H282140   5.017   1.388  13.286 -1.1148  0.8827 -0.1885
20217TIP3   OH282141   1.955   6.186  16.282  0.0777 -1.2129  0.1017
20217TIP3    H182142   2.039   6.227  16.260 -0.8310 -0.3181 -1.9385
20217TIP3    H282143   1.935   6.218  16.370  2.1909 -2.0365  0.9439
20218TIP3   OH282144   0.477   3.835  14.849 -0.3758  0.1385  0.5778
20218TIP3    H182145   0.438   3.836  14.937  0.9638  0.4446  1.1846
20218TIP3    H282146   0.476   3.743  14.823 -0.9754  0.0731  0.8100
20219TIP3   OH282147   5.019   2.159  14.410  0.4793  0.4239  0.4050
20219TIP3    H182148   5.098   2.117  14.374  0.6107  0.8578  0.1845
20219TIP3    H282149   5.018   2.133  14.502  1.0002  0.5894  0.4593
20220TIP3   OH282150   6.676   2.339   3.776  0.4434  0.4935 -0.8071
20220TIP3    H182151   6.611   2.273   3.751 -0.1301  1.3073 -1.5066
20220TIP3    H282152   6.751   2.288   3.806 -0.4885 -0.4692 -0.0287
20221TIP3   OH282153   6.568   6.223  16.262 -0.2264  0.1772 -0.0876
20221TIP3    H182154   6.499   6.183  16.314 -1.3755  1.2241 -0.7352
20221TIP3    H282155   6.552   6.317  16.269 -0.3002  0.3619 -2.1133
20222TIP3   OH282156   4.214   0.226  16.822  0.7472 -0.2650  0.7512
20222TIP3    H182157   4.263   0.301  16.855  0.0781  1.4973 -1.9129
20222TIP3    H282158   4.208   0.242  16.728 -2.9886 -1.5277  0.6370
20223TIP3   OH282159   1.362   5.509  12.583  0.1602 -0.1071 -0.0144
20223TIP3    H182160   1.387   5.483  12.672  1.0844 -0.0289 -0.2334
20223TIP3    H282161   1.363   5.427  12.533 -0.5989 -0.1873  0.0959
20224TIP3   OH282162   6.755   2.082  15.494 -0.0656 -0.3482 -0.3367
20224TIP3    H182163   6.813   2.056  15.566 -0.7110 -0.5317  0.1282
20224TIP3    H282164   6.685   2.132  15.535 -1.1078 -1.4894 -0.6427
20225TIP3   OH282165   0.007   1.376  16.645  0.0042  0.0910  0.3289
20225TIP3    H182166  -0.065   1.377  16.583 -0.5892  0.2807  1.0154
20225TIP3    H282167  -0.009   1.450  16.703  1.1431  0.5818  0.0514
20226TIP3   OH282168   0.112   1.842   3.418 -0.6419  0.3377  0.3518
20226TIP3    H182169   0.143   1.769   3.364  1.3578  1.5634 -0.2349
20226TIP3    H282170   0.050   1.801   3.478 -1.3701 -1.4329 -1.4748
20227TIP3   OH282171   4.949   2.259  17.172  0.5159  0.2159 -0.5539
20227TIP3    H182172   5.037   2.285  17.200  0.3638  0.4465 -0.2783
20227TIP3    H282173   4.905   2.234  17.253  0.9768 -1.9364 -0.9151
20228TIP3   OH282174   4.518   0.931  14.643 -0.5820  0.2477  0.1094
20228TIP3    H182175   4.496   0.974  14.725  1.7175 -0.1051  0.9823
20228TIP3    H282176   4.563   0.998  14.591  3.7420 -1.0182  1.7922
20229TIP3   OH282177   5.318   3.511  16.455  0.7476 -0.4283 -0.1051
20229TIP3    H182178   5.401   3.542  16.491  1.1103 -1.3106 -0.1754
20229TIP3    H282179   5.326   3.523  16.361 -0.6119  2.9053  0.0685
20230TIP3   OH282180   5.020   6.757   3.090  0.1554  0.4415  0.2274
20230TIP3    H182181   4.952   6.773   3.156 -1.1683  1.3966 -1.2849
20230TIP3    H282182   4.991   6.677   3.046  0.5823  0.2700  0.2609
20231TIP3   OH282183   0.673   3.792   3.671 -0.2381  0.6059  0.0638
20231TIP3    H182184   0.725   3.774   3.592 -1.3795 -0.3645 -0.5008
20231TIP3    H282185   0.734   3.782   3.743  0.3144 -0.7932 -0.5637
20232TIP3   OH282186   2.923   4.443  16.364 -0.0337  0.0645 -0.0246
20232TIP3    H182187   2.860   4.378  16.396 -0.7107 -0.1563 -1.6675
20232TIP3    H282188   2.926   4.510  16.432 -2.3226  0.2531 -0.0283
20233TIP3   OH282189   2.602   3.770  16.298  0.2893  0.6360  0.2947
20233TIP3    H182190   2.564   3.720  16.225  0.4017  2.1074 -0.8264
20233TIP3    H282191   2.547   3.749  16.373  1.8219 -3.0983  0.5464
20234TIP3   OH282192   1.924   2.737  15.028 -0.3136  0.0557 -0.0343
20234TIP3    H182193   1.990   2.783  15.080 -0.8624 -0.8471  1.5069
20234TIP3    H282194   1.846   2.736  15.083 -1.2317 -0.0439 -1.2995
20235TIP3   OH282195   3.119   5.473  14.354  0.5565  0.1822  0.4712
20235TIP3    H182196   3.109   5.567  14.370  0.3915 -0.0273  1.7190
20235TIP3    H282197   3.073   5.432  14.427 -2.2006 -0.9331 -1.7110
20236TIP3   OH282198   6.503   1.960   1.699 -0.7513 -0.0189  0.1579
20236TIP3    H182199   6.504   1.875   1.654  0.1158 -0.2633  0.6192
20236TIP3    H282200   6.499   1.939   1.792  2.1324  0.3318  0.4402
20237TIP3   OH282201   1.491   3.582   5.024  0.1072  0.4723  0.1704
20237TIP3    H182202   1.399   3.557   5.016  0.7079 -1.1516 -3.0506
20237TIP3    H282203   1.508   3.580   5.118 -2.5378 -1.5041  0.7151
20238TIP3   OH282204   4.139   0.836  14.985  0.5325  0.0534 -0.2802
20238TIP3    H182205   4.113   0.914  15.034  3.4498 -0.0553  1.7166
20238TIP3    H282206   4.230   0.853  14.961  0.2868 -1.4704 -2.6181
20239TIP3   OH282207   2.678   4.596  12.128  0.3117 -0.6465 -0.0458
20239TIP3    H182208   2.759   4.576  12.081  1.3171  0.9173  0.9404
20239TIP3    H282209   2.677   4.692  12.134 -0.9533 -0.7079  1.1228
20240TIP3   OH282210   3.626   4.455  15.840 -0.1209  0.0510 -0.1757
20240TIP3    H182211   3.543   4.408  15.833 -0.1170  0.0668 -0.3138
20240TIP3    H282212   3.693   4.387  15.834 -0.0742  0.2033 -1.6572
20241TIP3   OH282213   1.083   3.308  14.642 -0.1720  0.0324 -0.6968
20241TIP3    H182214   1.050   3.398  14.638  2.2908  1.0816  0.3186
20241TIP3    H282215   1.141   3.301  14.566  1.5230  0.2047  0.5118
20242TIP3   OH282216   4.884   5.082   3.699  0.2575 -0.7024 -0.0156
20242TIP3    H182217   4.941   5.016   3.660  0.2260  0.2596 -1.7844
20242TIP3    H282218   4.830   5.033   3.761  2.4095 -1.7727  1.1532
20243TIP3   OH282219   4.010   0.698   1.526  0.0236  0.2201 -0.2807
20243TIP3    H182220   3.915   0.696   1.542 -0.1981 -0.8522 -1.5854
20243TIP3    H282221   4.048   0.670   1.609 -0.8361 -0.0449  0.0426
20244TIP3   OH282222   3.291   3.752  14.654 -0.0987 -0.4517 -0.6343
20244TIP3    H182223   3.260   3.843  14.653  1.1844  0.0560 -2.7937
20244TIP3    H282224   3.225   3.703  14.606 -1.2996 -0.9213  1.3913
20245TIP3   OH282225   3.439   0.249   2.997 -0.2893 -0.4754  0.2172
20245TIP3    H182226   3.403   0.332   3.029  0.1252 -0.2777  0.1868
20245TIP3    H282227   3.377   0.220   2.930 -0.9786 -0.7240  0.9574
20246TIP3   OH282228   5.506   6.571   3.846  0.0508  0.1416  0.0684
20246TIP3    H182229   5.584   6.514   3.844 -0.3097 -0.3462 -0.6070
20246TIP3    H282230   5.488   6.589   3.754 -1.6051 -1.1106  0.1046
20247TIP3   OH282231   2.740   4.254  12.025  0.2341  0.0361 -0.3222
20247TIP3    H182232   2.836   4.253  12.014  0.3285  0.2372  0.4323
20247TIP3    H282233   2.707   4.284  11.941  0.8761  0.7335 -0.3372
20248TIP3   OH282234   5.549   0.927   1.877 -0.0975  0.1022  0.6500
20248TIP3    H182235   5.520   0.847   1.833  0.6827 -0.0848  0.4508
20248TIP3    H282236   5.641   0.936   1.852 -0.0131  0.7413  1.1501
20249TIP3   OH282237   6.595   0.976   3.722 -0.5058 -0.2017 -0.3929
20249TIP3    H182238   6.559   0.907   3.666 -1.1759 -0.4977  0.3791
20249TIP3    H282239   6.667   0.934   3.769  0.5085  0.2342 -1.5142
20250TIP3   OH282240   4.161   5.585   4.883  0.0075 -0.1941 -0.9920
20250TIP3    H182241   4.145   5.492   4.896  0.6724 -0.1091  0.6312
20250TIP3    H282242   4.226   5.588   4.812 -0.7299 -0.8996 -1.7162
20251TIP3   OH282243   0.274   0.203  11.908  0.1350 -0.2725  0.2451
20251TIP3    H182244   0.211   0.158  11.965 -0.4781  0.5499  0.2267
20251TIP3    H282245   0.325   0.132  11.869  1.1050 -0.8520  2.4083
20252TIP3   OH282246   5.470   3.561   3.568 -0.1714  0.0860  0.4249
20252TIP3    H182247   5.479   3.641   3.620 -1.1407  0.5506 -0.0872
20252TIP3    H282248   5.509   3.492   3.622  4.0470  1.4024 -0.5657
20253TIP3   OH282249   4.904   0.013   2.791 -0.2022  0.0143 -0.4621
20253TIP3    H182250   4.888   0.005   2.885  0.3194 -0.2523 -0.3894
20253TIP3    H282251   4.853  -0.058   2.752 -2.2744  1.5155 -0.6150
20254TIP3   OH282252   4.422   4.972   3.127  0.1547  0.4294 -0.1577
20254TIP3    H182253   4.482   5.037   3.165 -0.5939  0.2418  1.4305
20254TIP3    H282254   4.335   5.009   3.140 -0.1335  1.1250 -3.2638
20255TIP3   OH282255   3.769   6.640  11.716  0.3936  0.1260  0.1287
20255TIP3    H182256   3.740   6.608  11.630  0.5298 -0.9821  0.4866
20255TIP3    H282257   3.688   6.648  11.766  0.5839 -2.6719  1.0268
20256TIP3   OH282258   4.187   3.941  16.507  0.4227  0.1168  0.7022
20256TIP3    H182259   4.278   3.972  16.503  0.8134 -1.0080  0.5562
20256TIP3    H282260   4.160   3.935  16.416 -0.5980  2.6205  0.7642
20257TIP3   OH282261   0.125   3.364   2.963  0.5283  0.2361 -0.4850
20257TIP3    H182262   0.147   3.433   3.025 -1.0287  0.6436 -0.3427
20257TIP3    H282263   0.176   3.289   2.991  0.4111  0.6293  0.8590
20258TIP3   OH282264   3.174   2.806  16.381 -0.3082 -0.0103 -0.1687
20258TIP3    H182265   3.168   2.897  16.352 -1.1397 -0.1342 -0.4086
20258TIP3    H282266   3.240   2.807  16.450 -0.8193  0.9013  0.3189
20259TIP3   OH282267   1.104   4.148   1.476 -0.6901  0.5738  0.6729
20259TIP3    H182268   1.176   4.196   1.517 -0.8219  0.4520  1.0555
20259TIP3    H282269   1.117   4.160   1.382  0.3345 -0.1859  0.7022
20260TIP3   OH282270   0.429   5.033   6.292  0.4717  0.3023 -0.4339
20260TIP3    H182271   0.373   5.100   6.252  0.3630 -0.6612 -1.9919
20260TIP3    H282272   0.516   5.051   6.258  0.5441  0.0045 -0.4142
20261TIP3   OH282273   2.501   0.991  13.062 -0.0001  0.1803  0.2327
20261TIP3    H182274   2.414   1.021  13.037  0.7696  1.9246 -0.5284
20261TIP3    H282275   2.485   0.925  13.130 -1.9522 -0.7956 -1.0714
20262TIP3   OH282276   1.806   6.417   3.797  0.0661 -0.2593  0.0556
20262TIP3    H182277   1.861   6.376   3.730  0.7548  1.3700 -0.4432
20262TIP3    H282278   1.805   6.354   3.869  2.3702 -0.5055 -0.0313
20263TIP3   OH282279   5.099   5.703  14.113 -0.1112 -0.0098  0.6924
20263TIP3    H182280   5.188   5.674  14.095 -0.1244 -0.7811  1.7477
20263TIP3    H282281   5.045   5.659  14.047  0.2124 -0.1110  0.4947
20264TIP3   OH282282   5.112   2.625   3.574 -0.2015 -0.3027 -0.0941
20264TIP3    H182283   5.122   2.557   3.641  0.0768 -1.0448 -0.8737
20264TIP3    H282284   5.200   2.635   3.538 -0.3354  0.1477 -0.2998
20265TIP3   OH282285   5.178   1.807   1.764  0.9229  0.0676  0.1786
20265TIP3    H182286   5.207   1.719   1.740 -0.0429 -0.5257  1.0970
20265TIP3    H282287   5.083   1.803   1.761  0.8518  0.9343  0.7067
20266TIP3   OH282288   5.795   3.117   2.721 -0.4969  0.1405  0.2740
20266TIP3    H182289   5.709   3.155   2.701 -0.6040 -0.9604 -1.5926
20266TIP3    H282290   5.781   3.066   2.801 -1.2758  0.8987  0.6399
20267TIP3   OH282291   2.613   3.219  10.700 -0.3984 -0.7410 -0.0053
20267TIP3    H182292   2.695   3.192  10.742 -0.6867  0.4429  1.3832
20267TIP3    H282293   2.640   3.251  10.614  0.4393 -1.5082 -0.0390
20268TIP3   OH282294   5.839   0.900   1.403  0.2768  0.1071  0.1208
20268TIP3    H182295   5.775   0.955   1.449 -0.2624 -0.4335  0.0239
20268TIP3    H282296   5.822   0.916   1.310  0.8529  0.6061  0.0901
20269TIP3   OH282297   0.846   1.938  12.096  0.1327 -0.3219  0.2566
20269TIP3    H182298   0.911   1.878  12.059  0.6180  0.2712  0.1321
20269TIP3    H282299   0.787   1.882  12.146  1.3655 -0.7631  1.2725
20270TIP3   OH282300   4.681   6.363  13.033 -0.7941 -0.5009 -0.2962
20270TIP3    H182301   4.613   6.327  12.975 -1.1057  1.7553 -1.4475
20270TIP3    H282302   4.657   6.330  13.120 -0.7321 -3.3957 -1.2484
20271TIP3   OH282303   1.291   2.699   1.655  0.4606  0.3451  0.3195
20271TIP3    H182304   1.209   2.740   1.682 -0.2275 -0.3117 -0.7009
20271TIP3    H282305   1.305   2.729   1.565  0.4366 -0.8750 -0.1101
20272TIP3   OH282306   3.912   0.567  16.833  0.3350  0.4258 -1.1649
20272TIP3    H182307   3.955   0.589  16.750 -0.7681  1.7459 -1.4245
20272TIP3    H282308   3.941   0.635  16.893  0.6626 -0.1902 -0.6178
20273TIP3   OH282309   5.389   4.855  14.526 -0.0842  0.4730 -0.1430
20273TIP3    H182310   5.472   4.815  14.500 -0.3834 -0.1790 -0.1346
20273TIP3    H282311   5.358   4.801  14.599 -0.5092  0.7111 -0.1419
20274TIP3   OH282312   1.465   5.575  14.444 -0.2735 -0.3325  0.4641
20274TIP3    H182313   1.460   5.651  14.501  0.4384 -1.5372  2.2067
20274TIP3    H282314   1.435   5.607  14.359  2.1045  2.4553  0.5178
20275TIP3   OH282315   3.423   3.971   4.524 -0.0515 -0.1053 -0.1959
20275TIP3    H182316   3.408   3.878   4.538 -0.1124 -0.2549 -1.1531
20275TIP3    H282317   3.431   4.008   4.612 -0.7760 -0.8850  0.2169
20276TIP3   OH282318   4.883   0.808   4.566 -0.0257  0.2027 -0.1479
20276TIP3    H182319   4.798   0.804   4.522 -1.0862  0.4763  1.7630
20276TIP3    H282320   4.887   0.727   4.617  0.6884  0.3766  0.0746
20277TIP3   OH282321   2.129   0.677   4.112  0.3774 -0.2129 -0.4719
20277TIP3    H182322   2.076   0.725   4.047  3.3358  0.8429 -2.3256
20277TIP3    H282323   2.159   0.599   4.065  1.1442 -0.3515  0.2347
20278TIP3   OH282324   3.621   4.007  15.594 -0.0893 -0.2741 -0.2450
20278TIP3    H182325   3.580   4.087  15.625  1.3274  0.4093 -0.0504
20278TIP3    H282326   3.699   3.997  15.650  0.6593 -0.8652 -1.3642
20279TIP3   OH282327   6.233   1.702  12.758 -0.5198 -0.4992  0.5350
20279TIP3    H182328   6.262   1.782  12.713 -1.7968 -0.1878  0.2272
20279TIP3    H282329   6.307   1.678  12.814  0.7261 -0.3068 -0.9405
20280TIP3   OH282330   6.564   4.988  15.522  0.0187 -0.6835 -0.4634
20280TIP3    H182331   6.489   4.936  15.551 -1.3679  1.8942  0.9335
20280TIP3    H282332   6.551   5.074  15.563  2.3732  0.6742 -2.3061
20281TIP3   OH282333   4.522   2.391   1.648  0.0487  0.0074 -0.2095
20281TIP3    H182334   4.534   2.326   1.579 -0.3241  0.3317 -0.5834
20281TIP3    H282335   4.574   2.357   1.721 -0.8796 -1.1745 -0.0707
20282TIP3   OH282336   0.172   1.631   5.143 -0.4097 -0.1352 -0.0341
20282TIP3    H182337   0.251   1.581   5.162  0.0800  1.3720  2.4458
20282TIP3    H282338   0.115   1.614   5.218 -0.8371  1.7687  0.1239
20283TIP3   OH282339   0.324   6.398   3.257 -0.5272  0.6294 -0.2620
20283TIP3    H182340   0.382   6.467   3.289  1.1745  0.0468 -1.8445
20283TIP3    H282341   0.241   6.412   3.303  0.7170  1.7820  1.7861
20284TIP3   OH282342   4.574   1.771   4.878  0.8289 -0.5337  0.2247
20284TIP3    H182343   4.583   1.676   4.890  1.6206 -0.7037 -1.3800
20284TIP3    H282344   4.486   1.791   4.908  0.5682 -1.8297  0.3941
20285TIP3   OH282345   4.526   5.040  16.953  0.2703 -0.5126  0.1710
20285TIP3    H182346   4.494   5.101  17.019 -0.3174  0.2107 -0.7700
20285TIP3    H282347   4.613   5.073  16.929 -0.7892  1.0942 -1.6910
20286TIP3   OH282348   6.547   6.589  11.498  0.1497 -0.4049  0.5352
20286TIP3    H182349   6.457   6.577  11.528 -0.0095 -0.2303  0.1233
20286TIP3    H282350   6.555   6.534  11.420  0.3344 -0.2528  0.4444
   6.82013   6.82013  17.29240
